/*--------------------------------*- C++ -*----------------------------------*\
| =========                 |                                                 |
| \\      /  F ield         | OpenFOAM: The Open Source CFD Toolbox           |
|  \\    /   O peration     | Version:  2206                                  |
|   \\  /    A nd           | Website:  www.openfoam.com                      |
|    \\/     M anipulation  |                                                 |
\*---------------------------------------------------------------------------*/
FoamFile
{
    version     2.0;
    format      ascii;
    arch        "LSB;label=32;scalar=64";
    class       volScalarField;
    location    "1500";
    object      nut;
}
// * * * * * * * * * * * * * * * * * * * * * * * * * * * * * * * * * * * * * //

dimensions      [0 2 -1 0 0 0 0];

internalField   nonuniform List<scalar> 
7480
(
1.6140546e-05
2.244088e-05
2.3613708e-05
2.2660392e-05
2.1076864e-05
1.9612269e-05
1.848467e-05
1.7626873e-05
1.6939111e-05
1.6357294e-05
1.5852912e-05
1.5414262e-05
1.5033696e-05
1.4704204e-05
1.4419122e-05
1.4171764e-05
1.3956871e-05
1.377022e-05
1.3607474e-05
1.3465385e-05
1.3339369e-05
1.3226547e-05
1.3124382e-05
1.3030755e-05
1.2944266e-05
1.2863749e-05
1.2788402e-05
1.2717407e-05
1.2650019e-05
1.258561e-05
1.2523835e-05
1.2464473e-05
1.2407275e-05
1.2352033e-05
1.2298506e-05
1.2246573e-05
1.2195906e-05
1.2146439e-05
1.2098061e-05
1.2050641e-05
1.2004087e-05
1.1958315e-05
1.191326e-05
1.1868884e-05
1.1825137e-05
1.1781985e-05
1.1739377e-05
1.1697262e-05
1.165561e-05
1.1614391e-05
1.1573582e-05
1.1533168e-05
1.1493129e-05
1.1453459e-05
1.1414138e-05
1.1375154e-05
1.1336496e-05
1.1298148e-05
1.126009e-05
1.1222313e-05
1.1184818e-05
1.1147602e-05
1.1110658e-05
1.1073981e-05
1.1037566e-05
1.100141e-05
1.0965504e-05
1.0929841e-05
1.0894419e-05
1.0859235e-05
1.0824285e-05
1.0789566e-05
1.0755074e-05
1.072081e-05
1.0686768e-05
1.0652944e-05
1.0619335e-05
1.0585937e-05
1.0552748e-05
1.0519763e-05
1.0486978e-05
1.045439e-05
1.0421993e-05
1.0389783e-05
1.0357754e-05
1.0325898e-05
1.0294207e-05
1.0262668e-05
1.0231271e-05
1.0199986e-05
1.0168816e-05
1.0137658e-05
1.0106611e-05
1.0075266e-05
1.0044208e-05
1.0011792e-05
9.9803666e-06
9.9442151e-06
9.9151849e-06
9.8592312e-06
1.6735346e-06
5.1467964e-06
8.7903588e-06
1.1681582e-05
1.3403529e-05
1.4480821e-05
1.5238322e-05
1.5811586e-05
1.622544e-05
1.6523104e-05
1.6750065e-05
1.69386e-05
1.7106223e-05
1.7260871e-05
1.7407371e-05
1.7538014e-05
1.766294e-05
1.7788966e-05
1.7915796e-05
1.8037779e-05
1.815259e-05
1.8257555e-05
1.8350706e-05
1.8432625e-05
1.8505148e-05
1.8569029e-05
1.8626217e-05
1.8675272e-05
1.8715866e-05
1.8748349e-05
1.8774187e-05
1.8794325e-05
1.8809202e-05
1.8819356e-05
1.8824557e-05
1.8825727e-05
1.8821774e-05
1.8814048e-05
1.8802702e-05
1.8787773e-05
1.876941e-05
1.8747841e-05
1.8723354e-05
1.8696151e-05
1.8666428e-05
1.8634398e-05
1.8600077e-05
1.8563595e-05
1.8525086e-05
1.848467e-05
1.8442521e-05
1.8398755e-05
1.8353494e-05
1.8306858e-05
1.8258909e-05
1.8209773e-05
1.8159519e-05
1.8108194e-05
1.8055834e-05
1.8002527e-05
1.7948377e-05
1.7893461e-05
1.7837831e-05
1.7781541e-05
1.7724659e-05
1.7667234e-05
1.760929e-05
1.7550868e-05
1.7492024e-05
1.7432802e-05
1.7373238e-05
1.7313361e-05
1.7253211e-05
1.719283e-05
1.713224e-05
1.7071466e-05
1.7010534e-05
1.6949471e-05
1.68883e-05
1.6827045e-05
1.6765724e-05
1.6704361e-05
1.664297e-05
1.658157e-05
1.6520176e-05
1.6458804e-05
1.6397462e-05
1.6336169e-05
1.6274921e-05
1.6213752e-05
1.6152606e-05
1.6091624e-05
1.6030501e-05
1.5969871e-05
1.5908425e-05
1.5848661e-05
1.5786019e-05
1.5727531e-05
1.5669521e-05
1.5564241e-05
4.5005653e-07
4.7390401e-07
9.4775674e-07
2.2187448e-06
4.1431786e-06
6.4082797e-06
8.5124483e-06
1.0326181e-05
1.2009554e-05
1.3630236e-05
1.5180684e-05
1.6642631e-05
1.8008245e-05
1.9283901e-05
2.0481286e-05
2.1626414e-05
2.2720739e-05
2.3758383e-05
2.4735456e-05
2.5649999e-05
2.6502883e-05
2.7295147e-05
2.8026238e-05
2.8701971e-05
2.9327116e-05
2.9902891e-05
3.0442814e-05
3.0940026e-05
3.1397751e-05
3.1817892e-05
3.2205985e-05
3.2564843e-05
3.2896387e-05
3.3203098e-05
3.348478e-05
3.374556e-05
3.3981727e-05
3.4199563e-05
3.4398589e-05
3.4579584e-05
3.4743591e-05
3.4891715e-05
3.5025093e-05
3.5144668e-05
3.5251351e-05
3.5346053e-05
3.5429077e-05
3.5501104e-05
3.5562768e-05
3.5614641e-05
3.5657403e-05
3.5691585e-05
3.571773e-05
3.5736353e-05
3.5747791e-05
3.5752546e-05
3.5750957e-05
3.5743292e-05
3.5729775e-05
3.5710772e-05
3.5686687e-05
3.5657835e-05
3.5624458e-05
3.5586811e-05
3.5545164e-05
3.5499741e-05
3.5450687e-05
3.5398193e-05
3.5342486e-05
3.5283753e-05
3.5222155e-05
3.5157838e-05
3.5090966e-05
3.5021713e-05
3.4950198e-05
3.4876537e-05
3.4800855e-05
3.4723271e-05
3.4643896e-05
3.4562839e-05
3.4480199e-05
3.4396075e-05
3.4310556e-05
3.4223732e-05
3.4135685e-05
3.4046499e-05
3.3956247e-05
3.3865018e-05
3.3772855e-05
3.3679909e-05
3.3586088e-05
3.3491855e-05
3.3396475e-05
3.3301837e-05
3.3204492e-05
3.311169e-05
3.3011091e-05
3.2925001e-05
3.2831364e-05
3.2668151e-05
6.6379955e-06
1.1683819e-06
4.4490695e-07
3.9913002e-07
5.8677329e-07
9.3856104e-07
1.798034e-06
3.1762009e-06
4.870001e-06
6.6142644e-06
8.3662589e-06
1.0250779e-05
1.227806e-05
1.4410495e-05
1.6589295e-05
1.8761098e-05
2.0887372e-05
2.2946707e-05
2.4930942e-05
2.683661e-05
2.8659615e-05
3.039602e-05
3.2046233e-05
3.3608742e-05
3.5085332e-05
3.6475433e-05
3.7783231e-05
3.90139e-05
4.0170277e-05
4.1259358e-05
4.2284438e-05
4.3249626e-05
4.4158628e-05
4.5016726e-05
4.5825064e-05
4.6589537e-05
4.7297548e-05
4.7968088e-05
4.8594349e-05
4.9180714e-05
4.9729223e-05
5.024206e-05
5.0721395e-05
5.1169096e-05
5.1587084e-05
5.1977189e-05
5.2339932e-05
5.267699e-05
5.2989605e-05
5.3279007e-05
5.354662e-05
5.3793559e-05
5.4021024e-05
5.4230126e-05
5.4421608e-05
5.4596597e-05
5.4755827e-05
5.4899923e-05
5.502941e-05
5.5145116e-05
5.5247925e-05
5.5338534e-05
5.541749e-05
5.54854e-05
5.5542872e-05
5.5590415e-05
5.5628384e-05
5.5657235e-05
5.5677479e-05
5.5689541e-05
5.5693801e-05
5.5690603e-05
5.5680338e-05
5.5663405e-05
5.5640088e-05
5.5610675e-05
5.557546e-05
5.5534728e-05
5.5488747e-05
5.5437774e-05
5.5382053e-05
5.5321821e-05
5.5257299e-05
5.5188705e-05
5.5116245e-05
5.5040122e-05
5.4960524e-05
5.4877663e-05
5.4791683e-05
5.4702885e-05
5.4611217e-05
5.4517458e-05
5.4420615e-05
5.4323598e-05
5.4221483e-05
5.4125033e-05
5.4016423e-05
5.393026e-05
5.3828644e-05
5.3656191e-05
6.3356335e-05
1.8170177e-05
5.1857906e-06
2.0224037e-06
1.0599568e-06
7.1267413e-07
6.2318161e-07
7.139374e-07
9.3722894e-07
1.4760931e-06
2.3992993e-06
3.5598989e-06
5.003679e-06
6.6407051e-06
8.5186478e-06
1.0679763e-05
1.3102936e-05
1.5725395e-05
1.8463876e-05
2.1237262e-05
2.3984872e-05
2.6672195e-05
2.9284382e-05
3.1812843e-05
3.4249995e-05
3.6588453e-05
3.8825148e-05
4.0960816e-05
4.3000275e-05
4.4945934e-05
4.6799286e-05
4.8563233e-05
5.0241117e-05
5.1834185e-05
5.3347644e-05
5.4788422e-05
5.6152764e-05
5.744851e-05
5.8678788e-05
5.9844508e-05
6.0948138e-05
6.1993289e-05
6.2982902e-05
6.3919514e-05
6.480609e-05
6.5645398e-05
6.6439087e-05
6.7188421e-05
6.7894926e-05
6.8560635e-05
6.9187858e-05
6.9778261e-05
7.0333583e-05
7.0855611e-05
7.1345828e-05
7.1806232e-05
7.2237889e-05
7.2641838e-05
7.3018959e-05
7.3370734e-05
7.3698627e-05
7.4003778e-05
7.4287109e-05
7.4549699e-05
7.4792586e-05
7.5016636e-05
7.5222459e-05
7.5410886e-05
7.5582801e-05
7.5738933e-05
7.5879952e-05
7.6006472e-05
7.6119199e-05
7.6218839e-05
7.6305893e-05
7.6380886e-05
7.6444349e-05
7.6496796e-05
7.653871e-05
7.6570561e-05
7.659279e-05
7.660583e-05
7.6610088e-05
7.6605961e-05
7.6593831e-05
7.6574069e-05
7.6547026e-05
7.651308e-05
7.6472522e-05
7.6425841e-05
7.6373085e-05
7.6315333e-05
7.6251486e-05
7.6185232e-05
7.6110757e-05
7.6041167e-05
7.5955039e-05
7.5896477e-05
7.5813329e-05
7.567777e-05
0.00015958386
9.2295872e-05
4.3135905e-05
2.0035692e-05
9.95496e-06
5.4343663e-06
3.2453671e-06
2.1105096e-06
1.4911001e-06
1.1718948e-06
1.070076e-06
1.1306416e-06
1.3273773e-06
1.8351083e-06
2.6345844e-06
3.7305044e-06
5.1901951e-06
6.9598806e-06
9.0969184e-06
1.1621852e-05
1.4493305e-05
1.7621313e-05
2.0896437e-05
2.4219293e-05
2.7521409e-05
3.0765673e-05
3.3933608e-05
3.7012765e-05
3.9993892e-05
4.2871229e-05
4.5642498e-05
4.8307655e-05
5.0867517e-05
5.3322461e-05
5.5674614e-05
5.7928803e-05
6.0085392e-05
6.2148066e-05
6.4120561e-05
6.6005721e-05
6.7806804e-05
6.9526053e-05
7.1166265e-05
7.2730429e-05
7.4220805e-05
7.5639675e-05
7.699114e-05
7.8277938e-05
7.950294e-05
8.0668556e-05
8.1776889e-05
8.2829788e-05
8.3829618e-05
8.477864e-05
8.5679125e-05
8.6534095e-05
8.7344579e-05
8.8112091e-05
8.8838418e-05
8.9525634e-05
9.0175338e-05
9.0789093e-05
9.1368211e-05
9.1914095e-05
9.2428469e-05
9.2912665e-05
9.3367552e-05
9.3794444e-05
9.4194651e-05
9.4569229e-05
9.4919188e-05
9.5245463e-05
9.5549152e-05
9.5831324e-05
9.6092714e-05
9.6334149e-05
9.6556448e-05
9.6760399e-05
9.6946754e-05
9.7116238e-05
9.7269541e-05
9.7407334e-05
9.7530259e-05
9.7638935e-05
9.7733962e-05
9.7815922e-05
9.7885371e-05
9.794289e-05
9.7988961e-05
9.8024287e-05
9.8049069e-05
9.8064675e-05
9.8070014e-05
9.8069374e-05
9.8056458e-05
9.8045902e-05
9.8013836e-05
9.8012302e-05
9.7972864e-05
9.7921529e-05
0.00021494724
0.00017649321
0.00012548205
8.1742685e-05
5.1354287e-05
3.2265992e-05
2.0582129e-05
1.3410655e-05
8.9576032e-06
6.0992907e-06
4.2697976e-06
3.0610977e-06
2.2729968e-06
1.8088552e-06
1.5862211e-06
1.5602795e-06
1.6990635e-06
2.1728163e-06
2.9652864e-06
4.1237213e-06
5.74014e-06
7.7714147e-06
1.0288627e-05
1.3281718e-05
1.6674911e-05
2.0343887e-05
2.4155402e-05
2.8003e-05
3.1822212e-05
3.5581009e-05
3.9261279e-05
4.2848619e-05
4.6332243e-05
4.9705972e-05
5.2967189e-05
5.611607e-05
5.9152033e-05
6.2076005e-05
6.4890156e-05
6.759671e-05
7.0198214e-05
7.2696996e-05
7.5095545e-05
7.7396635e-05
7.9602834e-05
8.1716547e-05
8.3741204e-05
8.5679982e-05
8.7536027e-05
8.9312242e-05
9.1011222e-05
9.2636049e-05
9.4188995e-05
9.5672334e-05
9.7088674e-05
9.8439511e-05
9.9728126e-05
0.00010095712
0.00010212917
0.00010324617
0.00010431012
0.00010532298
0.0001062864
0.00010720241
0.00010807329
0.00010890062
0.00010968545
0.00011042971
0.00011113495
0.00011180276
0.00011243465
0.00011303211
0.00011359627
0.00011412842
0.00011462974
0.00011510141
0.00011554459
0.00011596037
0.0001163498
0.00011671389
0.00011705362
0.00011736993
0.00011766374
0.00011793591
0.00011818731
0.00011841875
0.00011863104
0.00011882499
0.00011900131
0.00011916094
0.00011930427
0.00011943295
0.000119546
0.00011964817
0.00011973295
0.000119816
0.00011987159
0.00011995923
0.00011998946
0.00012007201
0.00023612237
0.00022282136
0.00019426824
0.00015790525
0.00012220127
9.1962308e-05
6.810849e-05
5.0123441e-05
3.67927e-05
2.6977155e-05
1.9786497e-05
1.4508197e-05
1.0616338e-05
7.7546247e-06
5.6830046e-06
4.1943122e-06
3.1576611e-06
2.5042346e-06
2.1447876e-06
2.036357e-06
2.1478278e-06
2.6652872e-06
3.5592525e-06
4.922988e-06
6.8383816e-06
9.2985312e-06
1.2346481e-05
1.5928505e-05
1.9917007e-05
2.4152948e-05
2.8494715e-05
3.2847808e-05
3.7161901e-05
4.1409617e-05
4.5570801e-05
4.9630459e-05
5.3579156e-05
5.741201e-05
6.1126576e-05
6.4721653e-05
6.8197369e-05
7.1554605e-05
7.4794642e-05
7.7919254e-05
8.0930471e-05
8.3830338e-05
8.6621533e-05
8.9306967e-05
9.1889665e-05
9.4372603e-05
9.6758567e-05
9.9050598e-05
0.00010125141
0.00010336358
0.0001053899
0.00010733248
0.00010919433
0.00011097838
0.0001126876
0.00011432449
0.00011589145
0.0001173908
0.00011882518
0.0001201965
0.00012150645
0.00012275731
0.00012395178
0.0001250916
0.00012617862
0.00012721477
0.00012820191
0.00012914189
0.00013003624
0.00013088669
0.00013169464
0.00013246165
0.00013318921
0.00013387873
0.00013453158
0.00013514909
0.00013573253
0.00013628315
0.00013680214
0.00013729068
0.00013774987
0.00013818083
0.00013858461
0.00013896229
0.00013931482
0.00013964341
0.00013994867
0.00014023255
0.0001404942
0.00014073877
0.00014095974
0.00014117346
0.00014135258
0.00014156437
0.00014169192
0.00014196053
0.00024280384
0.00024110935
0.00023044128
0.00021044704
0.00018457583
0.00015695655
0.0001306137
0.00010717392
8.7086794e-05
7.0235636e-05
5.6282071e-05
4.4810029e-05
3.5417395e-05
2.7775946e-05
2.1596783e-05
1.6617463e-05
1.2625933e-05
9.5024588e-06
7.1114203e-06
5.3291896e-06
4.0387538e-06
3.2043963e-06
2.7286758e-06
2.5657384e-06
2.7454689e-06
3.3975096e-06
4.5445795e-06
6.314153e-06
8.7139818e-06
1.18041e-05
1.5551437e-05
1.9830257e-05
2.4459847e-05
2.9266124e-05
3.4125399e-05
3.8968695e-05
4.3758697e-05
4.8469506e-05
5.3081522e-05
5.7582206e-05
6.1964563e-05
6.6224315e-05
7.0358786e-05
7.4366905e-05
7.8248692e-05
8.2004702e-05
8.5636248e-05
8.914523e-05
9.2533932e-05
9.5804856e-05
9.896052e-05
0.00010200367
0.00010493702
0.0001077632
0.00011048498
0.00011310478
0.00011562545
0.00011804995
0.0001203814
0.00012262264
0.00012477636
0.00012684519
0.00012883192
0.00013073897
0.00013256846
0.0001343228
0.00013600482
0.00013761682
0.00013916098
0.00014063955
0.0001420547
0.00014340862
0.00014470336
0.00014594059
0.0001471224
0.0001482506
0.00014932698
0.00015035327
0.00015133117
0.00015226232
0.00015314831
0.00015399069
0.00015479095
0.00015555055
0.00015627092
0.00015695342
0.00015759941
0.00015821023
0.00015878711
0.00015933152
0.00015984433
0.00016032777
0.00016078119
0.00016121009
0.000161608
0.00016199188
0.00016233269
0.00016270633
0.00016296108
0.00016347049
0.00024439332
0.00024684477
0.00024508081
0.00023711109
0.00022310073
0.00020477042
0.00018419715
0.00016303727
0.00014254682
0.00012345149
0.00010607769
9.0510044e-05
7.6701721e-05
6.4564638e-05
5.3939328e-05
4.4667648e-05
3.6611141e-05
2.9650366e-05
2.3695467e-05
1.8657216e-05
1.4442438e-05
1.1026361e-05
8.3288418e-06
6.2643026e-06
4.774607e-06
3.8085697e-06
3.2872632e-06
3.1514415e-06
3.5721245e-06
4.5324509e-06
6.1656716e-06
8.5492446e-06
1.1712043e-05
1.5646898e-05
2.0227004e-05
2.5249553e-05
3.0510864e-05
3.5862478e-05
4.1219504e-05
4.6535248e-05
5.1777944e-05
5.6924108e-05
6.1958485e-05
6.6871872e-05
7.1658262e-05
7.6313751e-05
8.0836383e-05
8.522557e-05
8.9481665e-05
9.3605752e-05
9.7599329e-05
0.00010146432
0.00010520288
0.0001088173
0.00011231003
0.00011568342
0.00011894006
0.00012208276
0.00012511452
0.0001280383
0.00013085692
0.00013357315
0.00013618987
0.00013870978
0.00014113534
0.00014346909
0.00014571396
0.00014787257
0.00014994744
0.00015194105
0.00015385586
0.00015569433
0.00015745882
0.00015915139
0.00016077434
0.00016232982
0.00016381992
0.00016524668
0.0001666121
0.00016791813
0.00016916666
0.00017035954
0.00017149856
0.00017258548
0.00017362201
0.00017460983
0.00017555054
0.0001764458
0.0001772971
0.0001781062
0.00017887423
0.0001796037
0.00018029418
0.0001809515
0.00018156931
0.00018216512
0.00018270805
0.00018328379
0.00018369808
0.00018450566
0.00024452348
0.00024796972
0.00024971991
0.00024813333
0.00024234838
0.00023250421
0.00021943719
0.00020418522
0.00018776022
0.00017099544
0.00015449362
0.00013865438
0.00012368866
0.00010964067
9.6581508e-05
8.4524873e-05
7.3443977e-05
6.3289994e-05
5.4039017e-05
4.5668546e-05
3.811284e-05
3.1354391e-05
2.5380455e-05
2.0161287e-05
1.5696204e-05
1.2004141e-05
9.0579282e-06
6.7955101e-06
5.236905e-06
4.2716582e-06
3.8256005e-06
3.9841078e-06
4.7973168e-06
6.3597238e-06
8.7838061e-06
1.2087335e-05
1.6273992e-05
2.1204056e-05
2.6647837e-05
3.2374833e-05
3.821847e-05
4.4083366e-05
4.9915666e-05
5.5678391e-05
6.1344895e-05
6.6897913e-05
7.2326551e-05
7.762352e-05
8.2784227e-05
8.7806191e-05
9.2688269e-05
9.7430373e-05
0.00010203319
0.00010649791
0.0001108261
0.00011501955
0.00011908028
0.00012301067
0.00012681335
0.00013049106
0.00013404654
0.00013748252
0.00014080182
0.00014400723
0.00014710138
0.00015008691
0.00015296674
0.00015574369
0.00015842047
0.00016099977
0.00016348425
0.00016587656
0.00016817932
0.0001703949
0.00017252579
0.00017457442
0.00017654315
0.0001784343
0.00018025014
0.00018199289
0.00018366473
0.0001852678
0.00018680416
0.00018827587
0.00018968491
0.00019103323
0.00019232275
0.00019355538
0.0001947329
0.00019585734
0.00019693011
0.00019795399
0.00019892881
0.00019986066
0.00020074341
0.00020159506
0.00020238272
0.00020320317
0.00020381189
0.00020497775
0.00024451811
0.00024780958
0.00025052767
0.00025166576
0.00025039624
0.00024629348
0.00023940086
0.00023008615
0.00021888016
0.00020635541
0.00019304182
0.00017938583
0.00016572987
0.0001522869
0.00013921777
0.00012663919
0.00011462323
0.00010321564
9.2371934e-05
8.2071747e-05
7.2325477e-05
6.3141747e-05
5.4521073e-05
4.6501624e-05
3.9087732e-05
3.2302998e-05
2.618e-05
2.0728297e-05
1.6055144e-05
1.2193802e-05
9.1259156e-06
6.8968844e-06
5.4364234e-06
4.6525886e-06
4.5800147e-06
5.2957091e-06
6.8672004e-06
9.4148848e-06
1.2960053e-05
1.7495412e-05
2.2850793e-05
2.8762962e-05
3.4979275e-05
4.1324225e-05
4.769827e-05
5.4042977e-05
6.0317716e-05
6.6494144e-05
7.2553946e-05
7.84851e-05
8.4279491e-05
8.993205e-05
9.5439843e-05
0.00010080133
0.00010601605
0.00011108425
0.00011600679
0.00012078503
0.00012542083
0.00012991632
0.00013427381
0.00013849573
0.00014258463
0.00014654316
0.00015037393
0.00015407954
0.00015766282
0.00016112661
0.00016447371
0.0001677069
0.00017082895
0.00017384262
0.0001767507
0.00017955577
0.00018226051
0.00018486753
0.00018737941
0.00018979869
0.00019212788
0.00019436944
0.0001965258
0.00019859934
0.00020059239
0.00020250726
0.00020434619
0.00020611141
0.00020780509
0.00020942942
0.00021098644
0.00021247846
0.00021390715
0.00021527557
0.0002165838
0.00021783819
0.00021903282
0.00022018624
0.00022126333
0.00022237329
0.00022321387
0.0002248009
0.00024481944
0.00024762596
0.00025029646
0.00025227178
0.00025301587
0.00025209004
0.0002492507
0.00024446485
0.0002378671
0.00022970614
0.00022029001
0.00020993957
0.00019895633
0.00018758976
0.00017604192
0.00016447713
0.00015302378
0.00014178654
0.00013081458
0.00012012882
0.00010975302
9.9708544e-05
9.0025721e-05
8.0648014e-05
7.15674e-05
6.2817405e-05
5.443816e-05
4.6465215e-05
3.8981738e-05
3.2056627e-05
2.572835e-05
2.0132342e-05
1.5382526e-05
1.1515724e-05
8.6188647e-06
6.6664527e-06
5.5536847e-06
5.3139953e-06
6.000751e-06
7.6868339e-06
1.046979e-05
1.4388133e-05
1.9393609e-05
2.526438e-05
3.1699568e-05
3.8433827e-05
4.5294106e-05
5.2182685e-05
5.9038898e-05
6.5820381e-05
7.24987e-05
7.9055446e-05
8.547817e-05
9.175846e-05
9.7890924e-05
0.00010387219
0.00010970038
0.00011537481
0.00012089565
0.00012626375
0.00013148044
0.00013654738
0.00014146655
0.00014624014
0.00015087046
0.00015535988
0.00015971097
0.00016392644
0.000168009
0.00017196139
0.00017578637
0.00017948673
0.0001830653
0.0001865248
0.00018986798
0.00019309759
0.00019621636
0.00019922698
0.00020213215
0.00020493451
0.00020763668
0.00021024125
0.00021275078
0.00021516779
0.00021749477
0.00021973417
0.00022188841
0.00022395992
0.00022595101
0.00022786422
0.00022970149
0.00023146612
0.00023315847
0.00023478511
0.00023634036
0.00023784334
0.0002392565
0.00024070283
0.00024181517
0.00024388906
0.0002455446
0.00024783564
0.00025013811
0.00025213892
0.0002535406
0.00025405346
0.0002534334
0.00025151594
0.00024822901
0.00024359273
0.00023770499
0.0002307169
0.00022280896
0.0002141657
0.00020496041
0.0001953497
0.00018547022
0.00017544217
0.00016535912
0.00015528679
0.00014527565
0.00013536552
0.00012560186
0.00011598884
0.0001065215
9.7208147e-05
8.8079119e-05
7.9110649e-05
7.0266278e-05
6.1607575e-05
5.3180653e-05
4.5084434e-05
3.7442472e-05
3.0323321e-05
2.3891169e-05
1.8329798e-05
1.3723579e-05
1.0225386e-05
7.838457e-06
6.4518062e-06
6.1560741e-06
6.9165173e-06
8.8595935e-06
1.2022005e-05
1.64712e-05
2.2080269e-05
2.8557379e-05
3.5567171e-05
4.2846363e-05
5.0235429e-05
5.7643e-05
6.5009268e-05
7.2292919e-05
7.9466627e-05
8.6512142e-05
9.3416938e-05
0.00010017264
0.00010677377
0.00011321691
0.00011950019
0.00012562283
0.00013158494
0.00013738724
0.00014303099
0.00014851775
0.00015384934
0.00015902785
0.00016405558
0.00016893495
0.00017366849
0.0001782588
0.00018270856
0.00018702051
0.00019119739
0.00019524194
0.00019915696
0.00020294522
0.00020660951
0.00021015262
0.00021357733
0.00021688638
0.00022008253
0.00022316848
0.00022614696
0.00022902062
0.00023179214
0.00023446412
0.00023703922
0.00023951997
0.00024190914
0.00024420891
0.0002464228
0.00024855144
0.00025060158
0.00025256784
0.00025446989
0.00025626759
0.00025809902
0.00025952534
0.00026215463
0.00024669769
0.00024853558
0.00025042291
0.00025217093
0.00025361901
0.00025461014
0.00025498789
0.00025460471
0.00025333696
0.00025110276
0.00024787198
0.00024366385
0.00023853858
0.00023258453
0.00022590529
0.00021860986
0.00021080536
0.00020259432
0.00019406999
0.00018531129
0.00017638386
0.00016734134
0.00015823499
0.00014910135
0.00013996181
0.00013083118
0.00012173398
0.00011267898
0.00010364505
9.4636894e-05
8.5685283e-05
7.6750597e-05
6.7835423e-05
5.901029e-05
5.0355893e-05
4.2066389e-05
3.4232824e-05
2.7060857e-05
2.0788504e-05
1.5537969e-05
1.1559929e-05
8.8488993e-06
7.2969519e-06
7.104947e-06
8.0933363e-06
1.0476481e-05
1.4227622e-05
1.9376153e-05
2.570479e-05
3.2852634e-05
4.0469393e-05
4.8312482e-05
5.6241875e-05
6.4173005e-05
7.2048766e-05
7.9830825e-05
8.7493775e-05
9.5020189e-05
0.00010239812
0.00010961951
0.00011667908
0.00012357352
0.00013030103
0.0001368609
0.00014325321
0.00014947863
0.00015553828
0.00016143369
0.0001671667
0.00017273934
0.00017815385
0.00018341259
0.0001885181
0.00019347293
0.00019827973
0.00020294119
0.00020746006
0.00021183912
0.00021608116
0.00022018901
0.00022416548
0.0002280134
0.00023173561
0.00023533491
0.00023881413
0.00024217607
0.00024542353
0.00024855931
0.00025158614
0.00025450698
0.00025732423
0.0002600416
0.00026265998
0.00026518627
0.00026761539
0.00026996759
0.00027220001
0.00027446697
0.0002762517
0.00027950771
0.00024824944
0.00024971376
0.00025122887
0.00025267031
0.00025394425
0.00025497143
0.00025567345
0.00025596201
0.00025573966
0.00025491262
0.00025340552
0.00025116982
0.00024818678
0.00024446571
0.00024003891
0.00023495546
0.00022927485
0.00022306256
0.0002163862
0.00020931114
0.00020189775
0.00019419979
0.00018626714
0.00017814381
0.00016986502
0.00016145721
0.00015294581
0.00014435272
0.00013568405
0.00012694128
0.00011814184
0.00010927585
0.00010032457
9.1294831e-05
8.2224717e-05
7.3036925e-05
6.3809246e-05
5.4644021e-05
4.5751465e-05
3.7259101e-05
2.9440775e-05
2.2571144e-05
1.6804978e-05
1.2516991e-05
9.6338089e-06
8.1093819e-06
8.1406582e-06
9.6165496e-06
1.2630099e-05
1.7205757e-05
2.3239208e-05
3.0395238e-05
3.8262671e-05
4.6509248e-05
5.4929947e-05
6.3406202e-05
7.1861615e-05
8.0244526e-05
8.8520562e-05
9.6666362e-05
0.00010466584
0.00011250807
0.00012018566
0.00012769378
0.00013502942
0.00014219089
0.00014917747
0.00015598925
0.00016262691
0.00016909159
0.00017538479
0.00018150831
0.00018746419
0.00019325465
0.00019888202
0.00020434879
0.00020965751
0.00021481083
0.00021981146
0.00022466217
0.00022936575
0.00023392503
0.00023834288
0.00024262216
0.00024676576
0.00025077658
0.00025465751
0.00025841151
0.00026204144
0.0002655504
0.00026894098
0.00027221703
0.00027537971
0.000278436
0.00028138116
0.000284236
0.00028695485
0.00028970935
0.0002918989
0.00029585569
0.00025016613
0.00025132922
0.00025253449
0.00025369409
0.00025474549
0.00025564577
0.00025636171
0.00025685426
0.0002570695
0.00025694141
0.00025640096
0.0002553848
0.00025384208
0.00025173856
0.00024905775
0.0002457998
0.00024197864
0.00023761921
0.00023275467
0.00022742332
0.00022166576
0.00021552238
0.00020903282
0.00020223512
0.00019516416
0.0001878498
0.00018031865
0.00017259525
0.00016469758
0.00015663592
0.00014842336
0.00014006585
0.00013155851
0.0001228949
0.00011409334
0.0001051146
9.5949923e-05
8.6634731e-05
7.7140254e-05
6.7491623e-05
5.7819937e-05
4.835795e-05
3.9255327e-05
3.0898584e-05
2.3541427e-05
1.7471998e-05
1.3028333e-05
1.0152006e-05
9.0182546e-06
9.5016399e-06
1.1717382e-05
1.5624611e-05
2.1236299e-05
2.8276733e-05
3.6304798e-05
4.4902446e-05
5.3785766e-05
6.2790086e-05
7.1814485e-05
8.0791735e-05
8.9677163e-05
9.8440775e-05
0.00010706192
0.00011552637
0.00012382437
0.00013194923
0.00013989654
0.00014766353
0.00015524871
0.00016265151
0.00016987211
0.00017691123
0.00018377006
0.00019045013
0.00019695324
0.00020328141
0.00020943684
0.0002154219
0.00022123906
0.0002268909
0.0002323801
0.00023770938
0.00024288154
0.00024789942
0.00025276591
0.00025748393
0.00026205642
0.00026648639
0.00027077679
0.00027493084
0.00027895125
0.00028284198
0.00028660442
0.00029024559
0.00029376112
0.00029717232
0.00030043069
0.00030372616
0.00030636881
0.00031110303
0.00025241874
0.00025333991
0.00025429358
0.00025521532
0.00025605847
0.00025679491
0.00025741117
0.00025789568
0.00025822757
0.00025837321
0.00025828865
0.00025792415
0.00025722953
0.00025615913
0.00025467539
0.00025275101
0.00025036915
0.00024752309
0.00024421533
0.00024045605
0.00023626137
0.00023165149
0.00022664931
0.00022127943
0.00021556706
0.00020953646
0.00020321043
0.00019661071
0.00018975661
0.00018266292
0.00017534282
0.00016780674
0.00016005932
0.00015209843
0.00014393077
0.00013554586
0.00012692642
0.00011807678
0.00010897652
9.960162e-05
8.9978145e-05
8.0113306e-05
6.9993387e-05
5.9806324e-05
4.977442e-05
4.0148459e-05
3.1345571e-05
2.3621054e-05
1.7514005e-05
1.3167983e-05
1.0607586e-05
1.0075895e-05
1.1387222e-05
1.4596232e-05
1.9713319e-05
2.6547795e-05
3.4659574e-05
4.3559043e-05
5.2877405e-05
6.239383e-05
7.1977796e-05
8.15445e-05
9.1037537e-05
0.00010041918
0.00010966354
0.00011875267
0.0001276741
0.00013641917
0.000144982
0.00015335872
0.00016154697
0.00016954551
0.000177354
0.00018497273
0.00019240253
0.00019964462
0.00020670058
0.00021357222
0.00022026161
0.00022677097
0.0002331027
0.00023925931
0.0002452434
0.0002510577
0.00025670498
0.00026218811
0.00026751
0.00027267366
0.00027768206
0.00028253845
0.00028724563
0.00029180761
0.000296226
0.00030050778
0.00030464897
0.00030867135
0.00031252358
0.0003164147
0.00031956034
0.00032515113
0.00025498467
0.00025571083
0.00025646115
0.0002571876
0.00025785315
0.00025843552
0.00025892762
0.000259329
0.00025963648
0.00025983899
0.00025991623
0.00025983946
0.00025957372
0.00025908105
0.00025832374
0.00025726712
0.00025588126
0.0002541422
0.00025203259
0.00024954161
0.00024666456
0.000243402
0.00023975894
0.00023574398
0.00023136855
0.00022664586
0.00022159002
0.00021621566
0.00021053731
0.00020456802
0.00019831951
0.000191802
0.00018502311
0.00017798554
0.00017069281
0.00016314355
0.00015532805
0.00014724072
0.00013887028
0.00013019456
0.00012120543
0.00011189442
0.00010222028
9.2221571e-05
8.1897826e-05
7.1259323e-05
6.05313e-05
4.9920786e-05
3.9862041e-05
3.0730296e-05
2.2923676e-05
1.7016336e-05
1.3032678e-05
1.1317129e-05
1.1640406e-05
1.4132487e-05
1.8694048e-05
2.5245467e-05
3.3371122e-05
4.2526537e-05
5.2256417e-05
6.2274103e-05
7.2412839e-05
8.2567522e-05
9.2668771e-05
0.00010267035
0.00011254063
0.00012225769
0.00013180621
0.00014117551
0.00015035817
0.00015934918
0.00016814528
0.00017674455
0.00018514604
0.00019334962
0.00020135572
0.00020916528
0.00021677962
0.00022420038
0.00023142944
0.00023846892
0.0002453211
0.00025198842
0.00025847346
0.00026477891
0.00027090756
0.00027686232
0.00028264611
0.00028826215
0.00029371328
0.00029900346
0.00030413449
0.00030911326
0.00031393619
0.00031862549
0.00032312695
0.00032766948
0.00033136948
0.00033789828
0.00025784703
0.00025841491
0.00025900028
0.00025956718
0.00026008556
0.00026053598
0.00026091238
0.00026121688
0.00026145303
0.00026162127
0.00026171658
0.00026172726
0.00026163498
0.00026141589
0.0002610424
0.00026048514
0.00025971466
0.000258703
0.00025742499
0.00025585905
0.00025398768
0.00025179755
0.00024927938
0.00024642776
0.00024324069
0.00023971913
0.00023586638
0.00023168761
0.00022718932
0.00022237861
0.00021726263
0.00021184823
0.00020614146
0.00020014603
0.00019386457
0.00018729777
0.00018044152
0.00017329003
0.00016583517
0.00015806175
0.00014995433
0.00014150025
0.00013266835
0.00012344876
0.00011382707
0.00010375905
9.3309079e-05
8.242231e-05
7.1208938e-05
5.9887659e-05
4.8775906e-05
3.8406663e-05
2.9094324e-05
2.161894e-05
1.6191997e-05
1.3050781e-05
1.2396602e-05
1.4107024e-05
1.810257e-05
2.4349391e-05
3.2457099e-05
4.1842385e-05
5.1969753e-05
6.2483351e-05
7.3175905e-05
8.3919864e-05
9.4631873e-05
0.00010525666
0.00011575666
0.00012610582
0.00013628594
0.0001462842
0.00015609163
0.000165702
0.00017511115
0.0001843164
0.00019331625
0.00020211006
0.00021069792
0.00021908046
0.00022725874
0.00023523421
0.00024300861
0.00025058391
0.00025796231
0.00026514621
0.00027213813
0.0002789408
0.00028555699
0.00029198978
0.00029824198
0.00030431745
0.00031021813
0.00031595071
0.00032151208
0.00032692472
0.00033213167
0.00033738234
0.00034168929
0.00034923965
0.00026099343
0.00026143187
0.00026188252
0.00026231857
0.00026271553
0.00026305603
0.00026333356
0.00026354952
0.00026370855
0.00026381521
0.00026387185
0.00026387698
0.00026382437
0.00026370281
0.00026349661
0.00026318644
0.00026275029
0.00026216465
0.00026140562
0.00026044997
0.00025927585
0.00025786348
0.0002561955
0.00025425728
0.00025203696
0.00024952546
0.00024671626
0.00024360518
0.00024019005
0.00023647033
0.00023244667
0.00022812043
0.00022349338
0.0002185668
0.00021334131
0.00020781673
0.00020199061
0.00019585836
0.00018941349
0.00018264552
0.00017554057
0.0001680848
0.00016025555
0.00015203147
0.00014339373
0.00013430177
0.0001247555
0.000114712
0.00010414731
9.3142272e-05
8.1600767e-05
6.9768843e-05
5.7825851e-05
4.6372446e-05
3.5807122e-05
2.6763205e-05
1.9871959e-05
1.5351114e-05
1.3661306e-05
1.4526993e-05
1.7939869e-05
2.3866544e-05
3.1939011e-05
4.1540625e-05
5.2059593e-05
6.3068911e-05
7.4317774e-05
8.5654766e-05
9.6982051e-05
0.00010823503
0.00011936997
0.00013035664
0.00014117384
0.00015180663
0.00016224442
0.00017247978
0.00018250759
0.00019232445
0.00020192826
0.00021131794
0.0002204932
0.00022945435
0.00023820224
0.0002467381
0.00025506353
0.00026318042
0.00027109087
0.00027879727
0.00028630211
0.00029360826
0.00030071836
0.00030763609
0.00031436348
0.00032090695
0.0003272638