/*--------------------------------*- C++ -*----------------------------------*\
| =========                 |                                                 |
| \\      /  F ield         | OpenFOAM: The Open Source CFD Toolbox           |
|  \\    /   O peration     | Version:  2206                                  |
|   \\  /    A nd           | Website:  www.openfoam.com                      |
|    \\/     M anipulation  |                                                 |
\*---------------------------------------------------------------------------*/
FoamFile
{
    version     2.0;
    format      ascii;
    arch        "LSB;label=32;scalar=64";
    class       volScalarField;
    location    "1500";
    object      p;
}
// * * * * * * * * * * * * * * * * * * * * * * * * * * * * * * * * * * * * * //

dimensions      [0 2 -2 0 0 0 0];

internalField   nonuniform List<scalar> 
7480
(
0.062915037
0.052012077
0.036611996
0.027240514
0.021941434
0.018754402
0.01674085
0.015200113
0.013849229
0.012723364
0.01183001
0.011127796
0.010595419
0.010206336
0.0099293506
0.009742044
0.009624019
0.0095606454
0.0095338705
0.0095288692
0.0095478107
0.009569233
0.0095843469
0.009595268
0.0096000347
0.0095974538
0.0095882706
0.0095726628
0.0095492099
0.0095184589
0.0094816625
0.0094393049
0.0093918483
0.0093400814
0.009284023
0.0092237843
0.0091596165
0.0090914643
0.0090196455
0.0089445971
0.0088664007
0.0087849576
0.0087008059
0.0086140281
0.0085246146
0.0084329505
0.0083388494
0.0082424336
0.0081439002
0.0080430115
0.0079400993
0.0078351315
0.0077281301
0.0076192541
0.0075082796
0.0073954296
0.007280613
0.0071638386
0.0070450936
0.0069243328
0.0068016686
0.0066769614
0.0065503177
0.00642163
0.0062909258
0.0061581575
0.0060232918
0.0058862974
0.0057471441
0.0056058262
0.0054622935
0.0053165426
0.0051685231
0.005018245
0.0048656521
0.0047107548
0.0045535058
0.0043939361
0.0042320109
0.0040677821
0.0039012378
0.0037324558
0.0035614817
0.0033884026
0.0032133779
0.0030365301
0.0028581879
0.0026785453
0.0024982959
0.0023175758
0.0021382808
0.0019592753
0.0017876546
0.0016138065
0.0014688818
0.0012994181
0.0012410922
0.0010361941
0.0018330027
-0.0018231125
0.059225641
0.051007883
0.038676091
0.029382991
0.023062425
0.019252809
0.016985754
0.015352394
0.01396456
0.012823063
0.011918802
0.011206915
0.010666304
0.010269401
0.0099848478
0.0097906844
0.0096667854
0.0095981839
0.0095688895
0.0095654265
0.0095776245
0.0095921565
0.0096049231
0.0096138321
0.0096167921
0.0096126623
0.0096021333
0.0095853214
0.0095608002
0.009529122
0.0094915135
0.0094484259
0.0094003128
0.0093479533
0.0092913556
0.0092306295
0.0091660227
0.0090974726
0.0090252891
0.0089499072
0.0088714033
0.0087896765
0.0087052637
0.0086182427
0.0085286032
0.0084367287
0.0083424309
0.0082458323
0.0081471279
0.0080460787
0.0079430164
0.0078379072
0.0077307726
0.0076217708
0.0075106776
0.0073977155
0.0072827928
0.0071659182
0.0070470784
0.0069262278
0.0068034782
0.0066786897
0.0065519689
0.0064232078
0.0062924339
0.0061595992
0.0060246703
0.0058876159
0.0057484052
0.0056070328
0.005463448
0.0053176475
0.0051695807
0.0050192573
0.0048666213
0.0047116829
0.0045543946
0.0043947874
0.0042328265
0.0040685635
0.0039019866
0.0037331736
0.0035621697
0.0033890623
0.0032140107
0.0030371373
0.0028587707
0.0026791049
0.0024988337
0.002318093
0.0021387791
0.0019597556
0.0017881198
0.0016142569
0.0014693237
0.001299852
0.0012415308
0.0010367148
0.0018334162
-0.0018225505
0.055459365
0.048699097
0.037912736
0.02915098
0.02332348
0.019763472
0.017483478
0.015755258
0.014283394
0.013091374
0.012150397
0.011407695
0.010843137
0.010426025
0.010124023
0.0099153069
0.0097785701
0.0096984047
0.0096593924
0.0096473198
0.0096483663
0.0096550448
0.0096615251
0.0096646848
0.0096626119
0.0096542012
0.009639956
0.0096197488
0.0095921844
0.0095578619
0.0095179513
0.0094727969
0.0094228283
0.0093687935
0.0093106757
0.0092485582
0.0091826977
0.0091130287
0.009039809
0.008963483
0.008884113
0.0088015909
0.0087164512
0.0086287581
0.0085384978
0.008446049
0.0083512156
0.0082541222
0.0081549583
0.0080534805
0.0079500202
0.0078445386
0.0077370561
0.0076277284
0.0075163286
0.0074030797
0.0072878867
0.0071707579
0.0070516788
0.006930603
0.006807641
0.0066826516
0.0065557411
0.0064268005
0.0062958569
0.0061628614
0.0060277802
0.0058905815
0.0057512341
0.0056097319
0.0054660238
0.0053201063
0.0051719283
0.0050214993
0.0048687627
0.0047137288
0.0045563496
0.0043966561
0.004234613
0.0040702718
0.0039036205
0.0037347367
0.0035636655
0.0033904941
0.0032153816
0.0030384505
0.0028600292
0.0026803116
0.0024999917
0.0023192049
0.0021398489
0.0019607851
0.0017891167
0.0016152189
0.0014702709
0.0013007726
0.0012424801
0.0010376681
0.0018344973
-0.0018218178
0.052554942
0.04698619
0.037661828
0.029464658
0.023898402
0.020316193
0.017943042
0.016163957
0.014659538
0.013437786
0.012463185
0.011685377
0.011091841
0.01064912
0.010323789
0.010094282
0.0099383374
0.009840979
0.0097868018
0.0097613469
0.0097510836
0.0097481116
0.0097459623
0.0097414646
0.0097325017
0.0097180015
0.0096983773
0.0096732519
0.00964125
0.0096030399
0.0095596825
0.0095113926
0.0094585938
0.0094019976
0.0093415448
0.0092772217
0.0092093636
0.009137924
0.0090630328
0.0089851881
0.0089044238
0.008820618
0.0087343038
0.0086455244
0.008554261
0.0084608825
0.0083651799
0.0082672836
0.0081673739
0.0080652
0.0079610946
0.0078550099
0.0077469651
0.0076371111
0.0075252169
0.007411506
0.0072958782
0.0071783403
0.0070588765
0.0069374394
0.0068141378
0.0066888275
0.0065616145
0.0064323884
0.0063011752
0.0061679245
0.0060326019
0.0058951749
0.0057556114
0.0056139044
0.0054700021
0.0053239003
0.0051755476
0.0050249528
0.0048720588
0.0047168753
0.0045593542
0.0043995257
0.0042373543
0.0040728913
0.0039061242
0.0037371302
0.0035659544
0.0033926836
0.0032174767
0.0030404559
0.0028619498
0.0026821518
0.0025017564
0.0023208982
0.0021414767
0.0019623503
0.00179063
0.0016166783
0.0014717031
0.0013021628
0.0012439044
0.00103904
0.0018361638
-0.0018208346
0.049821793
0.045157301
0.037201998
0.029820491
0.024536441
0.020899736
0.018403759
0.01652943
0.014953865
0.013715139
0.01273726
0.011951982
0.011342362
0.010877364
0.010532222
0.010284817
0.010112466
0.01000021
0.0099305655
0.0098902492
0.0098671695
0.0098526599
0.0098411899
0.0098290658
0.0098133084
0.0097926485
0.009767496
0.0097373127
0.0097006621
0.0096582801
0.0096110996
0.0095592435
0.0095031562
0.009443551
0.0093803384
0.009313384
0.0092431228
0.0091695227
0.0090925846
0.0090128644
0.0089303673
0.0088449575
0.0087571703
0.0086670219
0.0085744899
0.0084799339
0.0083831241
0.0082841987
0.0081833299
0.0080802595
0.0079753224
0.0078684587
0.0077596869
0.0076491527
0.0075366198
0.0074223126
0.0073061222
0.0071880545
0.0070680924
0.0069461881
0.0068224475
0.0066967225
0.006569119
0.0064395244
0.0063079634
0.0061743837
0.0060387497
0.0059010285
0.0057611868
0.0056192162
0.005475064
0.0053287254
0.0051801483
0.0050293408
0.0048762447
0.0047208695
0.0045631663
0.004403165
0.0042408295
0.0040762105
0.0039092953
0.0037401606
0.0035688511
0.0033954532
0.0032201258
0.0030429906
0.0028643761
0.0026844755
0.0025039834
0.0023230338
0.0021435279
0.0019643213
0.0017925323
0.0016185117
0.001473494
0.0013039001
0.0012456658
0.001040738
0.0018382353
-0.001819611
0.047271454
0.043227687
0.036509966
0.029953962
0.02496224
0.021387615
0.018851873
0.016922757
0.015310903
0.014032316
0.013014777
0.012189278
0.011553343
0.011069829
0.01071565
0.010456622
0.010267225
0.010144139
0.010065273
0.010016535
0.0099859137
0.009962734
0.0099423218
0.0099215403
0.0098977891
0.0098703432
0.0098397646
0.0098049742
0.0097641077
0.0097179298
0.0096672093
0.0096119458
0.0095526157
0.0094899756
0.0094239185
0.0093542604
0.0092815017
0.0092055885
0.0091264623
0.0090447163
0.0089603261
0.0088731417
0.0087837123
0.0086920232
0.0085980485
0.0085021506
0.0084040777
0.0083039743
0.0082020049
0.0080978993
0.0079919974
0.0078842261
0.007774605
0.0076632756
0.007549996
0.0074349905
0.0073181392
0.0071994488
0.0070789014
0.0069564477
0.0068321902
0.0067059763
0.006577912
0.0064478826
0.0063159117
0.0061819438
0.0060459424
0.0059078743
0.0057677044
0.005625423
0.0054809761
0.0053343584
0.0051855171
0.005034459
0.0048811251
0.0047255242
0.0045676068
0.0044074023
0.0042448737
0.0040800715
0.0039129821
0.0037436821
0.0035722155
0.0033986685
0.0032231995
0.0030459299
0.0028671881
0.0026871668
0.002506561
0.0023255039
0.0021458979
0.0019665967
0.0017947241
0.0016206224
0.0014755461
0.0013058881
0.0012476601
0.0010426689
0.0018405778
-0.0018181882
0.045037643
0.041394226
0.035666398
0.029880491
0.02523924
0.021786409
0.019246617
0.017286267
0.015664012
0.014360147
0.013313525
0.012460255
0.011793391
0.011279209
0.010896234
0.01061006
0.010398084
0.01026205
0.010174936
0.01011813
0.010080546
0.010053804
0.01003163
0.010009047
0.009982326
0.0099502428
0.0099141618
0.0098738656
0.0098279535
0.0097777921
0.0097238662
0.0096656834
0.0096035977
0.0095383567
0.0094697666
0.0093976364
0.0093225498
0.0092444105
0.0091631393
0.0090793892
0.0089930958
0.0089040959
0.00881297
0.0087196693
0.0086241672
0.0085268398
0.0084274153
0.0083260491
0.0082228949
0.0081176659
0.0080107118
0.0079019459
0.0077913891
0.0076791801
0.0075650689
0.0074492829
0.0073316935
0.0072123088
0.0070911078
0.0069680379
0.0068431991
0.0067164339
0.0065878496
0.0064573292
0.0063248954
0.0061904881
0.0060540707
0.0059156095
0.0057750677
0.005632434
0.0054876533
0.0053407193
0.0051915781
0.0050402356
0.0048866316
0.0047307746
0.0045726141
0.0044121788
0.0042494311
0.0040844208
0.0039171337
0.003747646
0.0035760011
0.0034022848
0.003226655
0.0030492328
0.0028703462
0.0026901878
0.0025094523
0.0023282727
0.0021485521
0.0019691428
0.0017971722
0.0016229777
0.0014778259
0.0013080932
0.0012498503
0.0010447907
0.0018431347
-0.0018165717
0.043101066
0.039794746
0.034818196
0.029683115
0.025395774
0.022091854
0.01958218
0.017614385
0.01598834
0.014666254
0.013599018
0.012728502
0.012039781
0.01150044
0.011094148
0.010783627
0.0105469
0.010389546
0.010281546
0.010206284
0.010154967
0.010120849
0.010095526
0.010070684
0.010043914
0.010013517
0.0099787569
0.0099389058
0.0098914535
0.0098381545
0.0097804925
0.0097186572
0.009653536
0.009585923
0.0095152367
0.0094410937
0.0093641193
0.0092841163
0.0092009789
0.0091154433
0.0090274046
0.0089366999
0.0088439568
0.0087490923
0.008652089
0.0085533407
0.0084525528
0.0083499024
0.0082455334
0.008139142
0.0080310947
0.0079212887
0.0078097467
0.0076966059
0.0075816058
0.007464982
0.0073465999
0.007226468
0.0071045613
0.0069808232
0.0068553523
0.0067279867
0.006598835
0.0064677768
0.0063348338
0.0061999438
0.0060630694
0.0059241752
0.005783223
0.0056402004
0.005495051
0.0053477673
0.0051982941
0.0050466364
0.004892733
0.0047365919
0.0045781616
0.0044174701
0.004254479
0.0040892375
0.0039217307
0.0037520343
0.0035801911
0.0034062863
0.0032304775
0.0030528852
0.0028738374
0.002693526
0.0025126456
0.002331329
0.0021514793
0.0019719487
0.0017998657
0.0016255668
0.001480322
0.0013105035
0.001252222
0.001047085
0.0018458751
-0.0018147455
0.041379471
0.038406663
0.034054957
0.029462596
0.025489247
0.022332187
0.019869895
0.017909614
0.016286688
0.014955847
0.013874186
0.012988722
0.012280034
0.011720148
0.011290795
0.010959423
0.010704417
0.010526855
0.010399633
0.010307588
0.010241577
0.010193424
0.010155697
0.010120318
0.010086884
0.010055052
0.010020484
0.0099812256
0.0099367687
0.0098866288
0.0098311939
0.0097696754
0.0097029602
0.0096327911
0.0095594182
0.0094829448
0.0094042194
0.0093227253
0.0092381412
0.0091512358
0.0090618098
0.0089696919
0.0088755694
0.0087793231
0.0086809588
0.0085808974
0.0084788206
0.0083749403
0.0082693934
0.0081618598
0.0080527291
0.0079418815
0.0078293457
0.0077152582
0.0075993481
0.0074818618
0.0073626574
0.007241746
0.0071190994
0.0069946585
0.0068685205
0.006740519
0.0066107648
0.0064791326
0.0063456442
0.0062102368
0.0060728719
0.0059335119
0.0057921172
0.0056486744
0.005503126
0.0053554634
0.0052056298
0.0050536297
0.0048994008
0.0047429504
0.004584226
0.0044232551
0.0042599983
0.0040945042
0.0039267572
0.0037568325
0.0035847721
0.0034106609
0.0032346558
0.0030568771
0.0028776521
0.0026971724
0.0025161325
0.0023346649
0.0021546723
0.0019750074
0.0018027976
0.0016283828
0.0014830266
0.001313111
0.0012547651
0.0010495391
0.0018487712
-0.0018126864
0.03982142
0.037160722
0.033356477
0.029244512
0.025557713
0.022541132
0.020131754
0.018185097
0.016567995
0.015232702
0.01413968
0.013241107
0.01251528
0.011936867
0.011486226
0.011135458
0.010862805
0.010665457
0.010520654
0.010413907
0.010334185
0.010273011
0.010224491
0.010179784
0.010137878
0.010098271
0.010056314
0.010011116
0.0099649265
0.0099156458
0.0098617921
0.0098033601
0.0097402917
0.0096729104
0.0096007805
0.0095236693
0.0094432354
0.0093597978
0.0092734869
0.0091853142
0.0090948199
0.0090016648
0.0089065416
0.0088092448
0.0087097964
0.0086086499
0.0085054622
0.0084004952
0.0082938836
0.008185294
0.0080751484
0.0079633098
0.0078498179
0.0077348099
0.0076180052
0.0074996645
0.0073796371
0.0072579396
0.0071345417
0.0070093833
0.0068825606
0.0067539029
0.0066235244
0.0064912951
0.0063572375
0.0062212878
0.006083407
0.0059435559
0.0058016934
0.0056578054
0.005511833
0.0053637671
0.0052135493
0.0050611833
0.004906606
0.0047498242
0.0045907844
0.0044295133
0.0042659706
0.0041002045
0.0039321985
0.0037620274
0.0035897324
0.0034153979
0.0032391805
0.0030611996
0.0028817824
0.00270112
0.0025199066
0.0023382743
0.0021581252
0.0019783135
0.0018059623
0.0016314203
0.0014859337
0.0013159094
0.0012574714
0.0010521427
0.001851797
-0.0018103674
0.038399871
0.036017457
0.032689084
0.029012627
0.025600727
0.022726483
0.020377091
0.018449894
0.016840432
0.01550249
0.014399575
0.013488862
0.012747387
0.012151455
0.011681188
0.011311572
0.011021526
0.010805516
0.010643984
0.010521848
0.010428288
0.010355024
0.010296176
0.010243018
0.01019358
0.010146965
0.010098681
0.010048274
0.0099971131
0.0099428395
0.0098843436
0.0098238167
0.0097615333
0.0096960378
0.0096266772
0.0095531748
0.0094756788
0.0093938761
0.0093074503
0.0092181107
0.0091261894
0.009031786
0.0089357679
0.0088377042
0.0087375087
0.0086356125
0.0085316075
0.0084258042
0.0083183341
0.0082088534
0.0080978293
0.0079851085
0.0078707496
0.0077548935
0.00763725
0.007518099
0.0073972807
0.0072748198
0.0071506854
0.0070248176
0.0068973132
0.0067679968
0.006636988
0.0065041528
0.0063695147
0.006233009
0.0060945969
0.005954238
0.0058118903
0.0056675388
0.0055211238
0.0053726356
0.0052220145
0.0050692637
0.0049143192
0.0047571874
0.0045978135
0.0044362241
0.0042723778
0.0041063225
0.0039380406
0.0037676067
0.0035950612
0.0034204879
0.003244043
0.0030658455
0.0028862219
0.0027053631
0.0025239625
0.0023421527
0.0021618338
0.0019818629
0.0018093562
0.0016346757
0.001489039
0.0013188941
0.0012603346
0.0010548873
0.0018549269
-0.0018077566
0.037096849
0.03495891
0.03203888
0.028754854
0.025608844
0.022882613
0.020603246
0.018703758
0.017105683
0.015767584
0.014656517
0.013734503
0.012978253
0.012365452
0.011876436
0.011488341
0.011181108
0.010947131
0.010768922
0.010631525
0.0105245
0.010439292
0.010369658
0.010307723
0.010250699
0.010197348
0.010143722
0.010088756
0.010033061
0.0099745485
0.009912548
0.0098487051
0.009782946
0.00971388
0.0096423652
0.0095694786
0.0094938394
0.0094146108
0.0093316366
0.009245148
0.0091548414
0.0090604957
0.0089636235
0.0088644963
0.0087634271
0.0086609082
0.0085563451
0.0084500096
0.0083419733
0.008231856
0.0081201725
0.0080067496
0.0078916732
0.0077750932
0.007656712
0.0075368355
0.007415295
0.0072921264
0.0071672994
0.0070407563
0.0069125962
0.0067826393
0.0066510127
0.0065175787
0.0063823633
0.0062453007
0.0061063533
0.0059654803
0.0058226388
0.0056778137
0.0055309446
0.0053820215
0.0052309837
0.0050778341
0.0049225079
0.0047650111
0.0046052884
0.0044433657
0.0042792009
0.0041128413
0.0039442689
0.0037735577
0.0036007473
0.0034259213
0.0032492353
0.0030708075
0.0028909644
0.0027098963
0.0025282959
0.0023462962
0.0021657948
0.0019856528
0.0018129762
0.0016381462
0.0014923393
0.0013220615
0.0012633494
0.0010577656
0.0018581355
-0.0018048173
0.035898213
0.033974605
0.031403187
0.028469351
0.025577744
0.023004061
0.020804793
0.018942382
0.017361243
0.01602677
0.014910166
0.013978263
0.013208345
0.012579456
0.012072471
0.011666345
0.011342081
0.011090521
0.010895736
0.010743256
0.010622715
0.01052549
0.010445108
0.010374234
0.010309405
0.010249166
0.010189939
0.01013013
0.010070057
0.010007967
0.0099430467
0.0098763395
0.0098076422
0.0097359276
0.009662032
0.009586601
0.0095081837
0.0094271277
0.0093447731
0.0092600736
0.00917224
0.0090811141
0.0089868581
0.0088890652
0.0087880073
0.0086848052
0.0085794449
0.0084725365
0.0083640875
0.0082535724
0.0081414978
0.0080276236
0.0079120505
0.0077949344
0.007675971
0.0075555005
0.007433347
0.0073095626
0.0071841194
0.0070569643
0.0069282006
0.0067976448
0.0066654338
0.0065314268
0.0063956535
0.006258048
0.0061185746
0.0059771927
0.0058338594
0.0056885598
0.0055412331
0.0053918698
0.0052404085
0.0050868518
0.0049311345
0.0047732627
0.0046131802
0.0044509128
0.0042864176
0.0041197419
0.0039508666
0.0037798659
0.0036067784
0.0034316874
0.003254748
0.003076078
0.0028960033
0.002714714
0.0025329019
0.0023507005
0.0021700044
0.0019896799
0.0018168194
0.001641829
0.0014958312
0.0013254083
0.0012665107
0.0010607705
0.0018613955
-0.0018015075
0.034792171
0.033056744
0.030782797
0.028159308
0.025508031
0.023088755
0.020977996
0.019161695
0.017603806
0.016277563
0.01515878
0.014219067
0.013437028
0.012793154
0.012269149
0.011845587
0.011504538
0.011235783
0.011024622
0.010857146
0.010723037
0.010613713
0.010522544
0.010442525
0.010369825
0.01030262
0.010237497
0.01017265
0.010108123
0.010042311
0.0099742466
0.0099046635
0.009833436
0.0097596702
0.0096838313
0.0096062614
0.00952582
0.009443005
0.0093586948
0.0092717751
0.0091826052
0.0090922045
0.0089996854
0.0089043378
0.0088062149
0.0087052718
0.0086008442
0.0084938166
0.0083848089
0.0082737287
0.008161289
0.0080471335
0.0079312923
0.0078138752
0.0076945429
0.0075736664
0.0074510582
0.007326792
0.0072008456
0.0070731739
0.0069438875
0.0068128
0.0066800613
0.0065455281
0.0064092355
0.0062711179
0.0061311427
0.0059892707
0.0058454595
0.005699695
0.005551917
0.0054021167
0.0052502323
0.005096267
0.0049401552
0.0047819035
0.0046214551
0.0044588359
0.0042940023
0.0041270017
0.0039578143
0.0037865143
0.0036131397
0.0034377735
0.0032605703
0.0030816475
0.0029013306
0.0027198094
0.0025377747
0.002355361
0.0021744586
0.0019939408
0.0018208826
0.0016457214
0.0014995113
0.0013289312
0.0012698133
0.0010638946
0.0018646774
-0.0017977799
0.033768631
0.032198863
0.030179228
0.027829624
0.025402934
0.023137185
0.021121093
0.019358807
0.017830502
0.01651745
0.015400327
0.014455428
0.013663232
0.013005812
0.012465945
0.012025717
0.011668288
0.011382791
0.011155523
0.010973172
0.010825526
0.010704067
0.010602048
0.010512727
0.010432005
0.010357693
0.010286515
0.010216519
0.010147417
0.010077693
0.01000632
0.0099337782
0.0098599392
0.0097839679
0.0097061271
0.0096267023
0.0095447683
0.0094605826
0.0093746882
0.0092862289
0.0091956986
0.0091036692
0.0090093171
0.0089132682
0.0088160276
0.0087167814
0.0086148058
0.0085103406
0.0084030716
0.0082925411
0.0081798663
0.0080652595
0.0079490821
0.0078314532
0.0077119272
0.007590855
0.0074679956
0.0073434297
0.0072171366
0.0070890814
0.0069593858
0.0068278626
0.0066946787
0.0065596889
0.0064229363
0.0062843565
0.006143921
0.0060015928
0.0058573312
0.0057111239
0.0055629115
0.0054126871
0.0052603889
0.0051060212
0.0049495185
0.0047908882
0.0046300731
0.0044670997
0.004301924
0.0041345937
0.0039650884
0.0037934825
0.0036198135
0.0034441641
0.0032666889
0.0030875046
0.0029069366
0.0027251742
0.0025429073
0.0023602714
0.0021791522
0.0019984309
0.0018251615
0.0016498196
0.0015033755
0.0013326259
0.0012732512
0.00106713
0.0018679485
-0.0017935806
0.032818847
0.031395325
0.029593816
0.027485392
0.0252668
0.023151414
0.021233899
0.01953207
0.018039221
0.016744298
0.015632883
0.014685776
0.013885714
0.013216485
0.012662137
0.012206209
0.01183298
0.011531285
0.011288262
0.01109123
0.010930132
0.010796539
0.010683636
0.010584895
0.010496009
0.010414467
0.010337096
0.010261803
0.010187996
0.010114223
0.010039417
0.009963822
0.0098872634
0.0098089554
0.0097290295
0.0096476993
0.0095641574
0.0094785379
0.0093912973
0.0093017518
0.0092101812
0.0091169249
0.0090214047
0.0089242671
0.0088255412
0.0087247717
0.0086227856
0.0085193748
0.0084137735
0.0083057231
0.0081952008
0.0080817194
0.0079657308
0.0078478344
0.0077279872
0.0076067298
0.0074837461
0.0073590598
0.0072326064
0.0071043403
0.0069743876
0.0068425583
0.0067090408
0.0065736898
0.0064365594
0.0062975877
0.0061567521
0.0060140188
0.0058693496
0.0057227353
0.0055741182
0.0054234936
0.0052708009
0.0051160459
0.0049591636
0.0048001629
0.0046389868
0.0044756626
0.0043101462
0.0041424857
0.0039726606
0.0038007458
0.0036267782
0.0034508407
0.0032730876
0.0030936354
0.0029128091
0.002730798
0.0025482907
0.0023654242
0.0021840784
0.0020031445
0.0018296511
0.0016541191
0.0015074189
0.0013364878
0.0012768179
0.0010704676
0.0018711724
-0.0017888494
0.03193519
0.030641113
0.02902745
0.027131245
0.025104219
0.023134318
0.021317322
0.019680882
0.018228637
0.016956504
0.015854821
0.014908656
0.014103233
0.013424162
0.012856904
0.012386429
0.011998158
0.011680911
0.011422584
0.011211141
0.011036735
0.010891057
0.01076727
0.010659024
0.010561858
0.010472984
0.010389286
0.010308555
0.01022993
0.010151993
0.010073633
0.0099948796
0.0099155008
0.0098347542
0.0097526541
0.0096693412
0.0095840991
0.009496975
0.0094083464
0.0093176176
0.0092249733
0.0091307279
0.0090344075
0.0089364058
0.0088366847
0.0087349968
0.0086320831
0.0085272725
0.0084206493
0.0083130562
0.008203836
0.0080922349
0.0079784375
0.0078621209
0.0077428692
0.0076215432
0.0074983132
0.0073734631
0.0072469259
0.007118593
0.00698855
0.0068565756
0.0067228697
0.006587283
0.0064498829
0.0063106124
0.0061694573
0.0060263882
0.0058813714
0.0057344012
0.0055854226
0.0054344345
0.0052813777
0.0051262606
0.0049690193
0.0048096648
0.0046481406
0.0044844754
0.0043186253
0.0041506396
0.0039804974
0.0038082747
0.0036340081
0.0034577807
0.0032797467
0.0031000226
0.0029189333
0.0027366678
0.0025539137
0.0023708097
0.0021892289
0.0020080743
0.0018343446
0.0016586139
0.0015116351
0.0013405108
0.0012805052
0.0010738968
0.0018743078
-0.0017835183
0.031110981
0.029931745
0.028480566
0.026771142
0.024919573
0.023089062
0.021372905
0.01980539
0.018398085
0.017152976
0.016064875
0.015122831
0.014314658
0.013627863
0.013049413
0.012565699
0.0121633
0.011831259
0.011558176
0.011332674
0.011145168
0.010987506
0.010852872
0.010735072
0.010629537
0.010533242
0.010443101
0.010356804
0.010273257
0.010191046
0.010109016
0.010027006
0.00994472
0.0098614465
0.0097770933
0.0096917262
0.0096047042
0.0095159984
0.0094259109
0.009333924
0.0092401566
0.0091448814
0.0090476683
0.0089488266
0.0088483722
0.0087460685
0.0086423761
0.0085367545
0.0084294059
0.0083208497
0.0082104266
0.0080986156
0.0079855567
0.0078705682
0.0077533898
0.0076338629
0.0075115607
0.0073868838
0.007260196
0.0071317194
0.0070016178
0.0068696092
0.0067358625
0.0066001892
0.0064626563
0.0063232068
0.0061818357
0.0060385207
0.0058932339
0.0057459754
0.0055966939
0.0054453927
0.0052920148
0.0051365722
0.0049790027
0.0048193201
0.0046574689
0.00449348
0.00432731
0.0041590098
0.0039885587
0.0038160339
0.003641472
0.0034649566
0.0032866423
0.0031066454
0.0029252908
0.0027427678
0.0025597624
0.0023764157
0.0021945931
0.0020132109
0.0018392337
0.0016632966
0.0015160165
0.0013446877
0.001284304
0.0010774053
0.0018773084
-0.0017775112
0.030340353
0.029263212
0.027953224
0.026408357
0.02471686
0.023018816
0.021402509
0.019906224
0.01854738
0.017333046
0.016262116
0.015327301
0.014519013
0.013826693
0.013238868
0.012743343
0.012327864
0.011981883
0.011694686
0.011455557
0.011255229
0.011085738
0.010940334
0.010812968
0.010699003
0.010595218
0.010498534
0.010406559
0.010317992
0.010231401
0.010145592
0.010060232
0.0099749573
0.0098890724
0.0098023918
0.0097149081
0.009626039
0.0095356897
0.0094440876
0.0093507806
0.0092558259
0.0091594528
0.0090612856
0.0089615747
0.0088603393
0.0087573354
0.0086529592
0.0085467976
0.0084389254
0.008329686
0.0082185992
0.0081061679
0.0079920529
0.0078762612
0.0077594395
0.0076410042
0.0075203497
0.0073974736
0.0072719574
0.0071438863
0.0070137485
0.0068816182
0.0067478275
0.0066121517
0.0064746135
0.0063351208
0.0061936613
0.0060502135
0.0059047553
0.0057572942
0.0056077843
0.005456235
0.0053025927
0.0051468736
0.004989018
0.0048290434
0.0046668957
0.0045026088
0.0043361402
0.0041675431
0.0039967972
0.0038239817
0.0036491331
0.0034723361
0.0032937458
0.0031134786
0.0029318596
0.0027490785
0.0025658198
0.0023822274
0.0022001577
0.0020185428
0.0018443077
0.0016681577
0.0015205535
0.0013490095
0.0012882031
0.0010809787
0.0018801215
-0.0017707429
0.029618135
0.028631942
0.027445199
0.026045539
0.024499638
0.022926622
0.021408131
0.019984312
0.018676669
0.017496357
0.016445881
0.015521273
0.014715475
0.014019857
0.013424535
0.012918714
0.012491309
0.01213233
0.011831742
0.011579495
0.011366687
0.011185579
0.011029526
0.01089262
0.010770194
0.01065887
0.010555561
0.010457809
0.010364132
0.010273066
0.010183376
0.010094577
0.010006233
0.0099176552
0.0098285753
0.0097389148
0.0096481353
0.0095560854
0.0094629216
0.0093682429
0.0092720525
0.0091745361
0.0090753654
0.008974729
0.0088726467
0.0087688951
0.0086638209
0.0085570558
0.0084486186
0.008338852
0.0082273475
0.0081143833
0.0079996897
0.0078833842
0.0077658025
0.0076464545
0.0075257213
0.0074035893
0.0072793527
0.0071530171
0.0070242178
0.0068926727
0.0067589411
0.0066231843
0.0064856161
0.0063461404
0.0062047009
0.0060612431
0.0059157316
0.005768174
0.0056185286
0.0054668125
0.0053129767
0.0051570434
0.004998956
0.0048387366
0.0046763333
0.0045117834
0.0043450461
0.0041761772
0.0040051577
0.0038320688
0.0036569478
0.0034798806
0.003301023
0.003120492
0.0029386132
0.0027555766
0.0025720654
0.0023882266
0.0022059068
0.0020240557
0.0018495538
0.0016731856
0.0015252346
0.0013534654
0.0012921897
0.0010845999
0.0018826862
-0.0017631179
0.028939757
0.028034747
0.026956063
0.025684795
0.024271028
0.022815332
0.0213918
0.020040761
0.018786326
0.01764278
0.016615716
0.015704125
0.01490335
0.014206656
0.013605744
0.013091202
0.01265311
0.012282146
0.011968963
0.011704179
0.011479297
0.011286837
0.011120298
0.010973918
0.010843031
0.010724139
0.010614144
0.010510532
0.010411664
0.010316035
0.01022237
0.010130047
0.010038557
0.0099472087
0.0098556599
0.0097637633
0.0096710122
0.0095772062
0.0094824345
0.0093863357
0.0092888669
0.0091901707
0.0090899564
0.0089883559
0.0088853881
0.0087808482
0.0086750222
0.008567593
0.0084585623
0.0083482453
0.008236253
0.0081228022
0.0080077303
0.0078910479
0.0077729599
0.0076531227
0.0075318639
0.0074088884
0.007284318
0.0071583968
0.0070305632
0.0069006271
0.0067682883
0.0066332423
0.0064958308
0.006356315
0.0062148575
0.0060714305
0.0059259578
0.0057784146
0.0056287429
0.0054769591
0.0053230171
0.0051669461
0.005008694
0.0048482889
0.0046856817
0.0045209141
0.0043539471
0.0041848403
0.0040135759
0.0038402382
0.0036648652
0.0034875448
0.0033084339
0.0031276502
0.00294552
0.0027622342
0.0025784744
0.0023943914
0.0022118209
0.0020297324
0.0018549562
0.0016783663
0.0015300456
0.0013580423
0.0012962484
0.0010882489
0.0018849341
-0.0017545295
0.028301167
0.027468783
0.026485252
0.025327771
0.024033741
0.022687587
0.021355525
0.020076792
0.018876894
0.017772358
0.016771324
0.015875365
0.01508205
0.014386471
0.013781883
0.013260235
0.012812761
0.012430887
0.012105969
0.011829292
0.011592801
0.011389307
0.011212489
0.011056739
0.010917423
0.010790958
0.010674235
0.010564695
0.010460566
0.010360295
0.010262568
0.010166641
0.010071932
0.0099777387
0.0098836538
0.0097894635
0.0096946815
0.0095990651
0.0095026399
0.0094050741
0.0093062852
0.0092063732
0.0091050778
0.0090024821
0.0088985995
0.0087932392
0.0086866306
0.0085785038
0.0084688417
0.0083579175
0.0082453892
0.0081314452
0.0080159432
0.0078988497
0.0077803805
0.0076602309
0.0075385629
0.0074151539
0.0072902107
0.0071635563
0.007035155
0.0069054431
0.0067739372
0.006640264
0.0065042182
0.0063654933
0.0062242725
0.0060808447
0.0059353677
0.0057878657
0.0056382466
0.0054864953
0.0053325476
0.0051764312
0.005018096
0.004857577
0.0046948291
0.0045298995
0.0043627519
0.0041934501
0.004021978
0.0038484237
0.0036728263
0.0034952761
0.0033159315
0.0031349112
0.0029525429
0.0027690182
0.0025850175
0.0024006958
0.0022178768
0.002035552
0.0018604961
0.0016836824
0.00153497
0.0013627246
0.0013003614
0.0010919025
0.0018867998
-0.001744858
0.027698769
0.026931507
0.02603211
0.024975731
0.023790103
0.022545804
0.021301259
0.020093698
0.018949041
0.017885273
0.016912539
0.016034611
0.015251073
0.014558746
0.013952388
0.013425272
0.01296977
0.012578114
0.012242377
0.011954509
0.01170693
0.011492772
0.011305925
0.011140949
0.010993267
0.010859249
0.010735776
0.010620256
0.010510807
0.010405825
0.010303956
0.010204351
0.010106353
0.010009245
0.0099125595
0.0098160192
0.0097191494
0.0096216697
0.0095235462
0.0094244677
0.0093243175
0.0092231544
0.0091207416
0.0090171198
0.0089122938
0.0088060844
0.0086986707
0.0085898217
0.0084795011
0.0083679427
0.0082548493
0.0081403715
0.0080243843
0.0079068527
0.0077879814
0.0076674671
0.0075454384
0.0074217541
0.0072964746
0.0071694399
0.007040716
0.0069104299
0.0067783189
0.0066446705
0.0065093002
0.0063717556
0.0062318507
0.0060892576
0.0059440751
0.0057966049
0.0056469947
0.0054952934
0.0053414084
0.0051853374
0.0050270117
0.0048664643
0.0047036518
0.0045386273
0.0043713584
0.004201914
0.0040302803
0.0038565499
0.0036807633
0.0035030136
0.0033234613
0.0031422266
0.0029596385
0.00277589
0.0025916602
0.0024071089
0.0022240467
0.0020414898
0.0018661508
0.0016891138
0.0015399879
0.0013674937
0.001304508
0.0010955328
0.0018882286
-0.0017339684
0.027129359
0.026420641