/*--------------------------------*- C++ -*----------------------------------*\
| =========                 |                                                 |
| \\      /  F ield         | OpenFOAM: The Open Source CFD Toolbox           |
|  \\    /   O peration     | Version:  2206                                  |
|   \\  /    A nd           | Website:  www.openfoam.com                      |
|    \\/     M anipulation  |                                                 |
\*---------------------------------------------------------------------------*/
FoamFile
{
    version     2.0;
    format      ascii;
    arch        "LSB;label=32;scalar=64";
    class       surfaceScalarField;
    location    "1500";
    object      phi;
}
// * * * * * * * * * * * * * * * * * * * * * * * * * * * * * * * * * * * * * //

dimensions      [0 3 -1 0 0 0 0];

oriented        oriented;

internalField   nonuniform List<scalar> 
14782
(
0.00064615803
7.5252364e-05
-0.00072141039
0.00055262787
9.3530157e-05
0.00046311704
8.951083e-05
0.00039122989
7.1887146e-05
0.00034001409
5.1215805e-05
0.00030393872
3.6075373e-05
0.000277194
2.6744716e-05
0.00025606723
2.1126768e-05
0.00023857567
1.7491563e-05
0.00022383495
1.4740718e-05
0.00021136746
1.2467487e-05
0.00020079401
1.0573459e-05
0.0001918148
8.9792055e-06
0.00018417574
7.6390594e-06
0.00017765203
6.5237063e-06
0.00017206263
5.5894021e-06
0.00016725899
4.8036451e-06
0.00016311731
4.141676e-06
0.00015952714
3.5901695e-06
0.00015637928
3.1478602e-06
0.00015359889
2.7803868e-06
0.00015110843
2.4904693e-06
0.00014885091
2.2575172e-06
0.00014678732
2.0635873e-06
0.00014488547
1.9018534e-06
0.00014312
1.7654725e-06
0.00014147149
1.6485021e-06
0.00013992246
1.5490303e-06
0.00013845609
1.4663771e-06
0.00013706079
1.3952975e-06
0.00013572976
1.3310249e-06
0.0001344567
1.2730683e-06
0.0001332355
1.2211987e-06
0.00013206109
1.1744101e-06
0.00013092886
1.1322221e-06
0.00012983353
1.0953353e-06
0.00012877076
1.0627674e-06
0.00012773807
1.0326956e-06
0.00012673237
1.0057003e-06
0.00012575119
9.8117769e-07
0.00012479252
9.586633e-07
0.00012385428
9.3824497e-07
0.00012293531
9.1896878e-07
0.00012203445
9.0085994e-07
0.00012115042
8.8402904e-07
0.00012028239
8.6803001e-07
0.000119429
8.5338743e-07
0.00011858926
8.3974792e-07
0.00011776256
8.2670073e-07
0.00011694797
8.1458327e-07
0.00011614512
8.0285441e-07
0.00011535348
7.9163827e-07
0.00011457259
7.8088531e-07
0.0001138022
7.7039743e-07
0.00011304171
7.6049114e-07
0.0001122909
7.508094e-07
0.00011154935
7.4154513e-07
0.00011081665
7.3270524e-07
0.00011009243
7.2421603e-07
0.00010937647
7.1596044e-07
0.00010866873
7.0773874e-07
0.00010796896
6.9977446e-07
0.000107277
6.9195429e-07
0.00010659266
6.8434158e-07
0.0001059158
6.7685839e-07
0.00010524623
6.6957351e-07
0.00010458373
6.6250125e-07
0.00010392815
6.5558014e-07
0.00010327937
6.4877712e-07
0.00010263729
6.4208338e-07
0.00010200175
6.3553305e-07
0.00010137266
6.2909272e-07
0.0001007499
6.2275697e-07
0.0001001334
6.1650804e-07
9.9522995e-05
6.1040135e-07
9.8918587e-05
6.0440751e-07
9.8320046e-05
5.9854114e-07
9.7727277e-05
5.9276967e-07
9.7140154e-05
5.8712304e-07
9.6558579e-05
5.8157506e-07
9.5982419e-05
5.7615923e-07
9.5411565e-05
5.7085405e-07
9.4845882e-05
5.6568313e-07
9.4285221e-05
5.606609e-07
9.3729434e-05
5.5578754e-07
9.3178317e-05
5.5111652e-07
9.2631675e-05
5.466423e-07
9.2089211e-05
5.4246338e-07
9.1550634e-05
5.3857731e-07
9.1015441e-05
5.351934e-07
9.0483173e-05
5.3226817e-07
8.9952715e-05
5.3045795e-07
8.9423528e-05
5.2918693e-07
8.889214e-05
5.3138819e-07
8.8359682e-05
5.3245755e-07
8.7810367e-05
5.4931536e-07
8.7259581e-05
5.507853e-07
8.6611223e-05
6.4835856e-07
8.6351388e-05
2.5983526e-07
1.2019963e-06
0.00078825552
8.1436035e-05
-0.00079443919
0.00076959519
0.00011219049
0.00073471232
0.0001243937
0.00068743522
0.00011916425
0.00063534286
0.00010330817
0.0005857233
8.5694928e-05
0.00054204531
7.0422707e-05
0.00050491798
5.8254103e-05
0.00047362916
4.8780378e-05
0.00044722289
4.1146994e-05
0.00042480824
3.4882135e-05
0.00040564968
2.9732016e-05
0.00038919857
2.5430316e-05
0.00037502697
2.1810656e-05
0.00036278529
1.8765391e-05
0.00035218541
1.6189279e-05
0.00034297145
1.4017603e-05
0.00033492062
1.2192506e-05
0.00032784123
1.0669559e-05
0.0003215713
9.417791e-06
0.00031597602
8.3756691e-06
0.00031093648
7.5300126e-06
0.00030635913
6.8348676e-06
0.00030217093
6.251783e-06
0.00029831175
5.7610358e-06
0.00029473334
5.3438844e-06
0.0002913972
4.9846443e-06
0.00028826927
4.6769531e-06
0.00028532003
4.4156183e-06
0.00028252697
4.1883583e-06
0.00027987373
3.9842651e-06
0.00027734576
3.8010346e-06
0.00027493
3.636958e-06
0.00027261518
3.489234e-06
0.00027039167
3.3557352e-06
0.00026824893
3.2380691e-06
0.00026617817
3.133534e-06
0.00026417369
3.0371756e-06
0.00026222888
2.9505059e-06
0.00026033836
2.8716994e-06
0.0002584977
2.7993257e-06
0.00025670268
2.7332635e-06
0.00025495021
2.6714432e-06
0.00025323743
2.6136364e-06
0.00025156159
2.5598671e-06
0.00024992041
2.5092126e-06
0.0002483112
2.462594e-06
0.00024673177
2.4191741e-06
0.00024518047
2.3780044e-06
0.00024365546
2.3395932e-06
0.00024215551
2.3028091e-06
0.00024067935
2.2677921e-06
0.00023922588
2.2343569e-06
0.0002377942
2.2020739e-06
0.0002363832
2.1714996e-06
0.0002349921
2.1419065e-06
0.00023361999
2.1136543e-06
0.00023226594
2.0867533e-06
0.00023092916
2.060997e-06
0.00022960908
2.0360445e-06
0.00022830536
2.0114551e-06
0.00022701746
1.9876727e-06
0.00022574493
1.9644849e-06
0.0002244873
1.9419716e-06
0.0002232442
1.9199641e-06
0.00022201516
1.8986081e-06
0.00022079973
1.8779308e-06
0.00021959754
1.8577697e-06
0.00021840829
1.8380305e-06
0.00021723168
1.8186904e-06
0.0002160674
1.7998121e-06
0.00021491518
1.7813186e-06
0.00021377476
1.7631769e-06
0.00021264591
1.745355e-06
0.00021152834
1.7279706e-06
0.00021042179
1.7109616e-06
0.00020932598
1.6943451e-06
0.0002082407
1.6780528e-06
0.00020716568
1.6621396e-06
0.0002061007
1.6465541e-06
0.0002050455
1.6313637e-06
0.00020399983
1.6165262e-06
0.00020296342
1.602094e-06
0.00020193597
1.5881037e-06
0.00020091719
1.574571e-06
0.00019990669
1.5616136e-06
0.00019890407
1.5492638e-06
0.00019790882
1.537719e-06
0.00019692028
1.5271136e-06
0.00019593772
1.5177565e-06
0.00019495987
1.510119e-06
0.00019398557
1.5047489e-06
0.00019301187
1.5028939e-06
0.0001920367
1.5065567e-06
0.00019105302
1.5161404e-06
0.00019005084
1.5514908e-06
0.00018901889
1.5827376e-06
0.00018790961
1.7576346e-06
0.00018701794
1.151509e-06
2.7552922e-06
0.00082995865
7.8054973e-05
-0.00082657759
0.00083422319
0.00010792594
0.00083524039
0.0001233765
0.00082838767
0.00012601697
0.00081016895
0.00012152689
0.00078256239
0.0001133015
0.00074987887
0.00010310622
0.00071568658
9.2446399e-05
0.00068217943
8.2287523e-05
0.00065068647
7.2639961e-05
0.00062185887
6.3709728e-05
0.00059590202
5.5688866e-05
0.00057277006
4.8562283e-05
0.00055225736
4.2323348e-05
0.00053408976
3.6932999e-05
0.00051799022
3.2288817e-05
0.00050369219
2.8315632e-05
0.00049095717
2.4927528e-05
0.00047957447
2.2052254e-05
0.0004693621
1.9630168e-05
0.00046015643
1.7581337e-05
0.00045181554
1.5870902e-05
0.0004442185
1.4431907e-05
0.00043726294
1.3207342e-05
0.0004308608
1.2163173e-05
0.00042493576
1.1268924e-05
0.00041942561
1.0494798e-05
0.00041427998
9.8225793e-06
0.00040945526
9.2403403e-06
0.00040491478
8.7288432e-06
0.0004006275
8.271546e-06
0.00039656641
7.8621166e-06
0.00039270806
7.4953085e-06
0.00038903258
7.1647175e-06
0.0003855228
6.8655158e-06
0.00038216111
6.5997581e-06
0.00037893302
6.3616265e-06
0.00037582742
6.1427723e-06
0.00037283271
5.9452129e-06
0.00036993955
5.7648628e-06
0.00036713981
5.599064e-06
0.00036442591
5.4471683e-06
0.00036179152
5.3058275e-06
0.00035923096
5.1741983e-06
0.00035673891
5.0519165e-06
0.00035431076
4.9373626e-06
0.00035194188
4.83148e-06
0.00034962822
4.7328334e-06
0.0003473664
4.6398234e-06
0.00034515309
4.5529026e-06
0.00034298558
4.470322e-06
0.00034086128
4.3920892e-06
0.00033877787
4.3177615e-06
0.00033673337
4.2465765e-06
0.00033472571
4.1791634e-06
0.00033275318
4.114432e-06
0.00033081402
4.0528161e-06
0.00032890654
3.9942328e-06
0.00032702927
3.938268e-06
0.00032518099
3.8843242e-06
0.00032336073
3.8317199e-06
0.00032156736
3.7810415e-06
0.00031979989
3.7319516e-06
0.00031805738
3.6844857e-06
0.00031633897
3.6383695e-06
0.00031464379
3.5937895e-06
0.00031297097
3.5507497e-06
0.00031131978
3.5089624e-06
0.00030968955
3.4682559e-06
0.00030807967
3.4285719e-06
0.00030648951
3.3899702e-06
0.00030491851
3.3523164e-06
0.00030336616
3.3155359e-06
0.00030183193
3.2795777e-06
0.0003003153
3.2445989e-06
0.00029881577
3.2104964e-06
0.00029733284
3.1772756e-06
0.00029586606
3.1448294e-06
0.00029441498
3.113223e-06
0.00029297916
3.0823778e-06
0.00029155813
3.052386e-06
0.00029015148
3.0231838e-06
0.00028875872
2.9948492e-06
0.00028737938
2.9674417e-06
0.00028601295
2.9410029e-06
0.00028465885
2.9157137e-06
0.00028331643
2.891682e-06
0.00028198496
2.869188e-06
0.00028066345
2.8486299e-06
0.00027935092
2.8302812e-06
0.00027804539
2.8156533e-06
0.00027674576
2.8043727e-06
0.00027544683
2.8018308e-06
0.00027414831
2.8050781e-06
0.00027283536
2.8290898e-06
0.00027150566
2.8811881e-06
0.00027012084
2.9675608e-06
0.00026868873
3.18974e-06
0.00026726059
2.5796526e-06
4.4284366e-06
0.00086031328
7.4479098e-05
-0.0008567374
0.0008664653
0.00010177391
0.00087248825
0.00011735355
0.00087672882
0.0001217764
0.00087816025
0.00012009546
0.000875336
0.00011612574
0.00086701375
0.00011142847
0.00085289983
0.00010656031
0.00083386735
0.00010132001
0.00081160113
9.490618e-05
0.00078749
8.7820856e-05
0.0007626418
8.0537064e-05
0.00073797892
7.3225165e-05
0.00071419058
6.6111688e-05
0.00069173851
5.9385073e-05
0.00067088266
5.314466e-05
0.00065170828
4.7490013e-05
0.0006341834
4.2452407e-05
0.00061820489
3.8030772e-05
0.0006036419
3.4193149e-05
0.00059035604
3.0867202e-05
0.00057821494
2.8011997e-05
0.0005670948
2.5552049e-05
0.00055688115
2.3420996e-05
0.00054746894
2.1575385e-05
0.00053876217
1.9975686e-05
0.00053067818
1.8578796e-05
0.00052314848
1.7352273e-05
0.00051611248
1.6276344e-05
0.00050951675
1.5324571e-05
0.00050331455
1.4473748e-05
0.00049746488
1.3711786e-05
0.00049193144
1.3028748e-05
0.00048668338
1.2412782e-05
0.00048169408
1.1854808e-05
0.00047693957
1.1354275e-05
0.0004723986
1.0902595e-05
0.00046805229
1.0489078e-05
0.00046388371
1.0113794e-05
0.00045987795
9.77062e-06
0.00045602194
9.4550816e-06
0.0004523036
9.1655031e-06
0.00044871246
8.8969661e-06
0.00044523905
8.6476104e-06
0.00044187463
8.4163416e-06
0.00043861162
8.2003662e-06
0.00043544287
8.0002317e-06
0.00043236188
7.8138218e-06
0.00042936306
7.6386467e-06
0.00042644107
7.4748899e-06
0.00042359127
7.3201238e-06
0.0004208093
7.1740606e-06
0.00041809121
7.0358533e-06
0.00041543356
6.904225e-06
0.00041283303
6.7796947e-06
0.00041028666
6.6608006e-06
0.00040779156
6.5479169e-06
0.00040534509
6.4407014e-06
0.00040294491
6.3384464e-06
0.00040058892
6.2403116e-06
0.00039827527
6.1453769e-06
0.00039600204
6.0542642e-06
0.00039376755
5.9664464e-06
0.00039157018
5.8818522e-06
0.00038940848
5.8000721e-06
0.00038728099
5.7212766e-06
0.00038518636
5.6453862e-06
0.00038312335
5.5719657e-06
0.00038109085
5.5007541e-06
0.0003790878
5.4316251e-06
0.00037711318
5.3645927e-06
0.00037516605
5.2994454e-06
0.00037324553
5.236059e-06
0.00037135076
5.1743484e-06
0.00036948088
5.1144738e-06
0.0003676351
5.0562743e-06
0.00036581265
4.9997292e-06
0.00036401279
4.944685e-06
0.00036223482
4.8912002e-06
0.00036047803
4.8391616e-06
0.00035874175
4.788673e-06
0.00035702529
4.7396441e-06
0.00035532796
4.6921699e-06
0.00035364908
4.6463297e-06
0.00035198789
4.6021933e-06
0.0003503436
4.5600012e-06
0.00034871532
4.5199581e-06
0.00034710209
4.4824162e-06
0.00034550261
4.4481155e-06
0.00034391567
4.4172162e-06
0.00034233874
4.3925914e-06
0.00034077064
4.3724702e-06
0.00033920467
4.3677996e-06
0.00033764145
4.3682995e-06
0.00033606125
4.4092839e-06
0.00033446612
4.4763219e-06
0.00033280029
4.6333874e-06
0.00033110576
4.8842709e-06
0.00032925985
4.4255647e-06
6.210988e-06
0.00089031129
7.1440021e-05
-0.00088727221
0.00089614502
9.5940179e-05
0.00090247659
0.00011102198
0.00090781966
0.00011643333
0.00091158775
0.00011632737
0.00091412717
0.00011358632
0.00091523279
0.00011032286
0.000914508
0.0001072851
0.00091165366
0.00010417435
0.00090566986
0.00010088997
0.00089614197
9.7348748e-05
0.00088319825
9.3480782e-05
0.00086746552
8.89579e-05
0.0008496543
8.3922902e-05
0.00083040628
7.8633099e-05
0.0008103597
7.3191241e-05
0.00079012304
6.7726676e-05
0.00077022403
6.2351412e-05
0.00075106569
5.7189116e-05
0.00073291321
5.2345627e-05
0.00071589737
4.7883042e-05
0.00070004362
4.3865745e-05
0.00068531465
4.0281016e-05
0.00067164383
3.7091823e-05
0.00065895328
3.4265932e-05
0.00064716191
3.1767055e-05
0.00063618988
2.9550825e-05
0.00062596132
2.7580837e-05
0.00061640431
2.5833356e-05
0.00060745379
2.4275088e-05
0.0005990518
2.287574e-05
0.00059114572
2.1617861e-05
0.0005836878
2.0486673e-05
0.00057663623
1.9464351e-05
0.00056995379
1.8537244e-05
0.00056360837
1.7699699e-05
0.00055757122
1.6939741e-05
0.00055181524
1.6245064e-05
0.00054631683
1.5612206e-05
0.000541055
1.503245e-05
0.00053601086
1.4499215e-05
0.0005311669
1.4009469e-05
0.00052650767
1.3556196e-05
0.00052201917
1.3136105e-05
0.00051768846
1.2747057e-05
0.00051350433
1.2384491e-05
0.00050945663
1.2047939e-05
0.00050553611
1.1734335e-05
0.0005017346
1.144016e-05
0.00049804422
1.1165268e-05
0.00049445793
1.0906417e-05
0.00049096922
1.0662772e-05
0.00048757215
1.0432917e-05
0.00048426149
1.0214883e-05
0.00048103226
1.000893e-05
0.00047787992
9.8131403e-06
0.00047480023
9.6276048e-06
0.00047178942
9.4515153e-06
0.00046884405
9.2838114e-06
0.0004659609
9.1234629e-06
0.000463137
8.9692728e-06
0.00046036951
8.8217569e-06
0.00045765584
8.6801165e-06
0.00045499358
8.5441126e-06
0.0004523805
8.4131502e-06
0.00044981447
8.2873071e-06
0.00044729351
8.1663455e-06
0.00044481581
8.0496645e-06
0.00044237967
7.9368971e-06
0.00043998349
7.827802e-06
0.00043762579
7.722298e-06
0.00043530516
7.6200758e-06
0.00043302026
7.520956e-06
0.00043076982
7.4247903e-06
0.0004285526
7.3316952e-06
0.00042636744
7.2414303e-06
0.00042421324
7.1539341e-06
0.00042208893
7.068993e-06
0.00041999349
6.9866403e-06
0.00041792594
6.9067145e-06
0.00041588529
6.829316e-06
0.00041387062
6.7543183e-06
0.00041188097
6.6818225e-06
0.00040991538
6.6119197e-06
0.00040797287
6.5447053e-06
0.00040605239
6.4804735e-06
0.00040415282
6.4195356e-06
0.00040227292
6.3623099e-06
0.00040041111
6.3099225e-06
0.00039856595
6.2623834e-06
0.00039673443
6.2241116e-06
0.0003949152
6.1916979e-06
0.00039310056
6.1824394e-06
0.00039129137
6.1774886e-06
0.00038946497
6.2356814e-06
0.00038762534
6.3159557e-06
0.00038570599
6.5527397e-06
0.00038376889
6.8213636e-06
0.00038156712
6.6273388e-06
8.1288742e-06
0.00092111376
6.8779511e-05
-0.00091845325
0.00092632234
9.0731595e-05
0.00093214224
0.00010520209
0.00093726647
0.0001113091
0.000941368
0.00011222584
0.0009443686
0.00011058573
0.00094650215
0.0001081893
0.0009479845
0.00010580276
0.00094894773
0.00010321111
0.00094925789
0.00010057981
0.00094859615
9.8010488e-05
0.00094666692
9.5410008e-05
0.00094284878
9.2776049e-05
0.0009366824
9.0089276e-05
0.00092795877
8.7356732e-05
0.0009167879
8.436211e-05
0.00090350274
8.1011831e-05
0.00088843561
7.7418542e-05
0.00087197975
7.3644976e-05
0.00085461667
6.9708714e-05
0.00083686215
6.5637558e-05
0.00081918688
6.1541019e-05
0.00080196911
5.7498785e-05
0.00078546267
5.3598264e-05
0.00076980047
4.9928127e-05
0.00075502498
4.6542552e-05
0.0007411269
4.3448898e-05
0.00072807138
4.0636359e-05
0.00071581045
3.8094291e-05
0.00070429184
3.5793698e-05
0.00069346162
3.3705951e-05
0.00068326553
3.181395e-05
0.00067365162
3.0100587e-05
0.0006645722
2.8543771e-05
0.00065598239
2.7127051e-05
0.00064784147
2.5840619e-05
0.00064011335
2.4667863e-05
0.00063276405
2.3594362e-05
0.00062576268
2.2613582e-05
0.00061908194
2.1713192e-05
0.00061269695
2.0884205e-05
0.00060658452
2.0121896e-05
0.00060072395
1.9416763e-05
0.00059509635
1.8763704e-05
0.00058968428
1.8159127e-05
0.00058447231
1.7596458e-05
0.00057944642
1.7073834e-05
0.00057459401
1.6586745e-05
0.00056990376
1.6130409e-05
0.00056536489
1.5704136e-05
0.0005609677
1.5303612e-05
0.00055670323
1.4927246e-05
0.00055256321
1.4572933e-05
0.00054854024
1.4237854e-05
0.00054462722
1.3921945e-05
0.00054081777
1.3622597e-05
0.00053710611
1.3339262e-05
0.00053348707
1.3070559e-05
0.00052995582
1.2815054e-05
0.00052650779
1.2571498e-05
0.00052313876
1.2338305e-05
0.00051984476
1.2115758e-05
0.00051662218
1.1902691e-05
0.00051346763
1.1698661e-05
0.00051037794
1.1502843e-05
0.00050735015
1.1315097e-05
0.00050438156
1.1134938e-05
0.00050146963
1.0961597e-05
0.00049861196
1.0794561e-05
0.00049580635
1.0633412e-05
0.00049305073
1.0477921e-05
0.00049034314
1.0327663e-05
0.0004876817
1.01824e-05
0.00048506462
1.0041866e-05
0.00048249024
9.9060801e-06
0.00047995696
9.7747029e-06
0.00047746328
9.6476131e-06
0.00047500776
9.524517e-06
0.000472589
9.4054013e-06
0.00047020568
9.2900381e-06
0.00046785649
9.1785065e-06
0.00046554017
9.07063e-06
0.0004632555
8.9665014e-06
0.0004610012
8.866213e-06
0.00045877603
8.7698779e-06
0.00045657867
8.6778367e-06
0.00045440769
8.5905091e-06
0.00045226163
8.5083746e-06
0.00045013858
8.4329701e-06
0.00044803682
8.3641394e-06
0.00044595298
8.3079556e-06
0.00044388542
8.2592546e-06
0.00044182572
8.2421417e-06
0.00043977464
8.2285716e-06
0.00043770761
8.3027045e-06
0.00043562933
8.3942401e-06
0.00043346616
8.7159142e-06
0.0004312931
8.9944232e-06
0.00042876384
9.1565965e-06
1.0200385e-05
0.00095289828
6.6423439e-05
-0.00095054221
0.00095754772
8.6082161e-05
0.00096288561
9.986419e-05
0.00096766532
0.00010652939
0.00097153745
0.0001083537
0.00097451674
0.00010760644
0.00097683213
0.00010587391
0.00097871594
0.00010391894
0.00098017618
0.00010175088
0.00098125526
9.9500729e-05
0.00098200509
9.726066e-05
0.00098244218
9.4972922e-05
0.00098249933
9.2718892e-05
0.00098198625
9.0602359e-05
0.0009807538
8.8589185e-05
0.00097842321
8.6692696e-05
0.00097451327
8.492177e-05
0.00096873697
8.3194848e-05
0.00096089969
8.1482257e-05
0.00095100322
7.9605182e-05
0.00093919242
7.7448361e-05
0.00092567272
7.5060711e-05
0.00091077125
7.2400257e-05
0.00089493151
6.9438004e-05
0.00087864144
6.62182e-05
0.00086234682
6.2837165e-05
0.00084639553
5.9400193e-05
0.0008310112
5.6020684e-05
0.00081630577
5.2799721e-05
0.00080231924
4.9780236e-05
0.00078905264
4.6972545e-05
0.00077648691
4.4379685e-05
0.00076459203
4.1995465e-05
0.00075333205
3.9803751e-05
0.00074266681
3.7792286e-05
0.00073255543
3.5952004e-05
0.00072295952
3.4263773e-05
0.00071384196
3.2711919e-05
0.00070516718
3.1288363e-05
0.00069690273
2.9977638e-05
0.00068901866
2.8768284e-05
0.00068148683
2.7653723e-05
0.00067428168
2.6621912e-05
0.00066737959
2.5665794e-05
0.00066075872
2.4779998e-05
0.00065439928
2.3955894e-05
0.00064828292
2.3190196e-05
0.00064239308
2.2476588e-05
0.00063671483
2.1808652e-05
0.00063123418
2.1184795e-05
0.00062593843
2.0599357e-05
0.00062081586
2.0049811e-05
0.00061585564
1.9533152e-05
0.00061104794
1.9045558e-05
0.00060638339
1.8586492e-05
0.00060185351
1.8152476e-05
0.00059745061
1.7742169e-05
0.00059316768
1.7353482e-05
0.00058899826
1.6984482e-05
0.00058493623
1.6633526e-05
0.000580976
1.6298533e-05
0.00057711232
1.5979439e-05
0.00057334039
1.5674625e-05
0.00056965561
1.5383438e-05
0.0005660537
1.5104749e-05
0.00056253079
1.4838011e-05
0.0005590833
1.4582425e-05
0.00055570784
1.4337061e-05
0.0005524012
1.4101201e-05
0.00054916042
1.387419e-05
0.00054598274
1.3655602e-05
0.00054286556
1.3444848e-05
0.00053980637
1.3241588e-05
0.00053680283
1.3045408e-05
0.00053385272
1.2856182e-05
0.00053095398
1.2673443e-05
0.00052810461
1.2496983e-05
0.00052530273
1.2326403e-05
0.00052254651
1.2161616e-05
0.00051983424
1.2002307e-05
0.00051716424
1.1848511e-05
0.00051453488
1.1699985e-05
0.00051194459
1.1556796e-05
0.00050939178
1.1419022e-05
0.00050687487
1.1286784e-05
0.00050439225
1.1160458e-05
0.00050194219
1.1040568e-05
0.00049952292
1.092765e-05
0.00049713222
1.0823664e-05
0.00049476808
1.0728281e-05
0.00049242674
1.0649293e-05
0.00049010627
1.057973e-05
0.00048779763
1.0550777e-05
0.00048550132
1.0524885e-05
0.00048319143
1.0612591e-05
0.00048087274
1.0712935e-05
0.00047846641
1.1122245e-05
0.0004760572
1.1403626e-05
0.0004732116
1.2002204e-05
1.243908e-05
0.00098583188
6.4337964e-05
-0.00098374641
0.0009899839
8.1930141e-05
0.00099490052
9.4947571e-05
0.00099942957
0.00010200035
0.0010031528
0.00010463051
0.0010060639
0.00010469533
0.0010083508
0.00010358696
0.0010102171
0.00010205271
0.0010117383
0.00010022961
0.0010129833
9.8255741e-05
0.0010140033
9.6240626e-05
0.0010147901
9.4186172e-05
0.0010153426
9.21664e-05
0.0010157239
9.0221071e-05
0.0010158881
8.8424953e-05
0.0010157937
8.6787153e-05
0.0010154145
8.5300944e-05
0.0010145795
8.4029794e-05
0.0010131001
8.2961691e-05
0.0010106466
8.2058681e-05
0.0010068401
8.1254895e-05
0.0010013707
8.0530032e-05
0.00099403178
7.9739223e-05
0.00098476966
7.8700118e-05
0.00097364552
7.7342342e-05
0.00096084622
7.5636471e-05
0.00094671698
7.3529432e-05
0.00093172065
7.1017006e-05
0.00091633693
6.8183449e-05
0.00090097954
6.5137627e-05
0.00088594328
6.2008799e-05
0.00087140093
5.8922036e-05
0.00085743595
5.5960444e-05
0.00084408091
5.3158794e-05
0.00083134063
5.0532567e-05
0.00081920348
4.808915e-05
0.00080764849
4.5818766e-05
0.0007966481
4.3712313e-05
0.00078617129
4.1765166e-05
0.00077618711
3.9961825e-05
0.00076666485
3.8290539e-05
0.00075757437
3.6744201e-05
0.00074888735
3.5308938e-05
0.00074057685
3.3976285e-05
0.00073261752
3.2739332e-05
0.00072498594
3.1587479e-05
0.00071765997
3.0516167e-05
0.00071061931
2.9517246e-05
0.00070384543
2.8582526e-05
0.00069732093
2.7709301e-05
0.00069102991
2.6890371e-05
0.00068495764
2.6122083e-05
0.00067909053
2.5400262e-05
0.00067341617
2.4719919e-05
0.00066792284
2.4079827e-05
0.00066259978
2.3475535e-05
0.00065743703
2.290492e-05
0.00065242548
2.2365028e-05
0.00064755675
2.1853212e-05
0.00064282304
2.1367236e-05
0.00063821717
2.0904405e-05
0.00063373238
2.0464223e-05
0.00062936249
2.0044516e-05
0.00062510161
1.9644318e-05
0.00062094425
1.9262114e-05
0.00061688538
1.8896874e-05
0.0006129204
1.8547408e-05
0.00060904492
1.8212541e-05
0.00060525483
1.7891292e-05
0.00060154629
1.7582726e-05
0.00059791572
1.7286173e-05
0.00059435977
1.7000799e-05
0.00059087525
1.672611e-05
0.00058745915
1.6461508e-05
0.00058410865
1.6206681e-05
0.00058082109
1.5961003e-05
0.00057759393
1.5724143e-05
0.00057442477
1.5495562e-05
0.00057131131
1.5275073e-05
0.00056825138
1.5062246e-05
0.00056524284
1.4857048e-05
0.00056228368
1.4659146e-05
0.00055937191
1.4468561e-05
0.00055650559
1.4285342e-05
0.00055368278
1.4109598e-05
0.00055090151
1.394173e-05
0.00054815972
1.3782358e-05
0.0005454553
1.3632067e-05
0.00054278572
1.3493244e-05
0.00054014862
1.3365386e-05
0.00053753987
1.3258039e-05
0.00053495718
1.3162417e-05
0.00053239102
1.3116942e-05
0.00052984147
1.3074438e-05
0.00052728161
1.317245e-05
0.00052471598
1.3278567e-05
0.00052206163
1.3776592e-05
0.00051941165
1.4053607e-05
0.0005162511
1.5162751e-05
1.485689e-05
0.0010199751
6.2473018e-05
-0.0010181101
0.0010236775
7.8227703e-05
0.0010281944
9.0430697e-05
0.0010325031
9.7691645e-05
0.0010361425
0.00010099105
0.0010390467
0.00010179119
0.0010413491
0.00010128452
0.0010432189
0.00010018293
0.0010447448
9.8703669e-05
0.0010459981
9.7002492e-05
0.0010470345
9.5204238e-05
0.0010478771
9.334359e-05
0.00104855
9.1493496e-05
0.0010490721
8.9698918e-05
0.0010494607
8.8036351e-05
0.0010497155
8.6532398e-05
0.0010498502
8.5166187e-05
0.0010498718
8.4008207e-05
0.001049759
8.307453e-05
0.0010494702
8.2347456e-05
0.0010489014
8.1823649e-05
0.0010479305
8.1500946e-05
0.0010463414
8.1328395e-05
0.001043791
8.1250436e-05
0.0010399242
8.1209225e-05
0.0010344141
8.1146508e-05
0.0010270564
8.0887191e-05
0.0010178014
8.027196e-05
0.0010067145
7.9270323e-05
0.00099403999
7.7812173e-05
0.00098018991
7.5858878e-05
0.00096565145
7.3460502e-05
0.00095087873
7.0733162e-05
0.00093621991
6.7817609e-05
0.0009218959
6.4856579e-05
0.00090802574
6.1959314e-05
0.00089466788
5.9176628e-05
0.0008818469
5.6533292e-05
0.00086956678
5.4045281e-05
0.00085781887
5.1709741e-05
0.00084658575
4.9523655e-05
0.00083584501
4.7484943e-05
0.00082557259
4.558136e-05
0.00081574324
4.380563e-05
0.00080633154
4.2151036e-05
0.00079731298
4.0606042e-05
0.00078866353
3.9165612e-05
0.00078036049
3.7820284e-05
0.0007723826
3.6560415e-05
0.00076470956
3.5382344e-05
0.00075732262
3.4277309e-05
0.0007502042
3.3240508e-05
0.00074333798
3.2266475e-05
0.00073670897
3.1348936e-05
0.00073030295
3.0485848e-05
0.00072410683
2.9671653e-05
0.00071810835
2.8903398e-05
0.0007122962
2.8177179e-05
0.00070665991
2.7489497e-05
0.00070118979
2.6837363e-05
0.00069587687
2.6217325e-05
0.00069071272
2.5628371e-05
0.00068568958
2.5067656e-05
0.00068080016
2.4533733e-05
0.00067603767
2.402461e-05
0.00067139575
2.353879e-05
0.00066686855
2.3074605e-05
0.00066245061
2.263049e-05
0.00065813676
2.2205138e-05
0.0006539222
2.1797284e-05
0.00064980242
2.1405957e-05
0.0006457732
2.1030022e-05
0.00064183055
2.0668757e-05
0.00063797073
2.032133e-05
0.0006341902
1.9987206e-05
0.00063048564
1.9665561e-05
0.00062685389
1.9355894e-05
0.00062329196
1.9057495e-05
0.00061979699
1.877004e-05
0.00061636629
1.8492953e-05
0.00061299723
1.8226107e-05
0.00060968732
1.796905e-05
0.00060643415
1.7721737e-05
0.00060323533
1.748416e-05
0.00060008852
1.7256406e-05
0.00059699137
1.7038878e-05
0.00059394145
1.6832284e-05
0.00059093627
1.6637246e-05
0.00058797294
1.6456576e-05
0.00058504873
1.6289597e-05
0.00058215913
1.614763e-05
0.00057930147
1.602008e-05
0.00057646572
1.5952694e-05
0.0005736515
1.5888653e-05
0.00057083106
1.5992892e-05
0.00056800853
1.6101101e-05
0.00056509745
1.6687672e-05
0.00056219871
1.6952342e-05
0.00055871841
1.864305e-05
1.7465526e-05
0.0010553283
6.0772824e-05
-0.0010536281
0.0010586379
7.4918149e-05
0.0010627692
8.6299402e-05
0.0010668478
9.361296e-05
0.0010704062
9.7432669e-05
0.0010733213
9.8876057e-05
0.001075669
9.8936908e-05
0.0010775818
9.8270106e-05
0.0010791453
9.7140143e-05
0.001080427
9.5720776e-05
0.0010814819
9.4149326e-05
0.0010823415
9.248405e-05
0.001083036
9.0799021e-05
0.0010835868
8.914803e-05
0.0010840214
8.760182e-05
0.0010843577
8.6196118e-05
0.0010846002
8.4923672e-05
0.0010847645
8.3843858e-05
0.0010848652
8.2973819e-05
0.0010848992
8.2313527e-05
0.0010848667
8.1856131e-05
0.0010847671
8.1600532e-05
0.001084558
8.1537454e-05
0.0010841729
8.1635529e-05
0.0010835092
8.1872972e-05
0.0010824266
8.2229141e-05
0.0010806516
8.2662124e-05
0.0010778129
8.3110636e-05
0.0010735502
8.3533048e-05
0.0010675613
8.3801071e-05
0.0010596818
8.3738373e-05
0.0010498915
8.3250806e-05
0.0010383543
8.227041e-05
0.0010254326
8.0739325e-05
0.0010116074
7.8681723e-05
0.0009973554
7.6211332e-05
0.00098305855
7.3473473e-05
0.00096896931
7.0622533e-05
0.00095523171
6.778288e-05
0.00094192352
6.5017932e-05
0.00092908446
6.2362721e-05
0.00091673071
5.983869e-05
0.00090486355
5.7448522e-05
0.00089347374
5.5195435e-05
0.00088254599
5.3078788e-05
0.00087206204
5.1089989e-05
0.00086200127
4.9226388e-05
0.0008523424
4.7479153e-05
0.00084306424
4.5838578e-05
0.00083414557
4.4301013e-05
0.00082556621
4.2856669e-05
0.00081730673
4.1499982e-05
0.00080934881
4.0224405e-05
0.00080167526
3.9022479e-05
0.0007942697
3.7891409e-05
0.00078711686
3.6824494e-05
0.00078020232
3.5817935e-05
0.00077351265
3.4866857e-05
0.00076703529
3.3966858e-05
0.00076075855
3.3114102e-05
0.00075467161
3.2304263e-05
0.00074876425
3.1535724e-05
0.00074302704
3.0804875e-05
0.00073745111
3.0109659e-05
0.00073202823
2.9447493e-05
0.00072675065
2.8816371e-05
0.00072161116
2.8214088e-05
0.00071660307
2.7638587e-05
0.00071172006
2.7088148e-05
0.00070695623
2.6561111e-05
0.00070230604
2.6056148e-05
0.0006977643
2.5571762e-05
0.00069332613
2.5106928e-05
0.00068898693
2.4660521e-05
0.00068474239
2.4231751e-05
0.00068058842
2.3819535e-05
0.00067652114
2.3423165e-05
0.00067253692
2.3041714e-05
0.00066863228
2.2674686e-05
0.00066480391
2.2321324e-05
0.00066104864
2.1981371e-05
0.00065736346
2.1654233e-05
0.00065374543
2.1339764e-05
0.00065019171
2.1037881e-05
0.0006466995
2.0748621e-05
0.000643266
2.0472375e-05
0.00063988837
2.0209919e-05
0.00063656371
1.9961903e-05
0.00063328873
1.9731555e-05
0.0006300603
1.9518025e-05
0.00062687352
1.9334414e-05
0.00062372526
1.9168337e-05
0.00062060504
1.9072916e-05
0.00061751196
1.898173e-05
0.00061441751
1.9087339e-05
0.00061132535
1.9193263e-05
0.00060814582
1.9867202e-05
0.00060498762
2.0110541e-05
0.00060117829
2.2452383e-05
2.0277143e-05
0.0010918821
5.9192474e-05
-0.0010903018
0.0010948614
7.1938831e-05
0.001098634
8.2526799e-05
0.0011024701
8.9776913e-05
0.0011059257
9.3977027e-05
0.0011088396
9.5962179e-05
0.0011112341
9.6542397e-05
0.0011132038
9.6300412e-05
0.001114823
9.5520899e-05
0.0011161535
9.4390296e-05
0.0011172479
9.3054978e-05
0.0011181404
9.159148e-05
0.0011188625
9.0076961e-05
0.0011194384
8.8572165e-05
0.0011198954
8.7144824e-05
0.0011202555
8.5835992e-05
0.001120529
8.4650159e-05
0.0011207345
8.3638358e-05
0.0011208868
8.2821541e-05
0.001120995
8.2205316e-05
0.0011210633
8.1787799e-05
0.0011211019
8.1561914e-05
0.0011211127
8.1526727e-05
0.0011210883
8.1659905e-05
0.0011210168
8.1944482e-05
0.0011208715
8.2374436e-05
0.0011206059
8.2927744e-05
0.0011201363
8.3580221e-05
0.0011193466
8.4322718e-05
0.0011180224
8.5125269e-05
0.0011158252
8.5935588e-05
0.001112371
8.6704973e-05
0.0011072977
8.7343741e-05
0.0011003587
8.7678318e-05
0.0010914708
8.7569662e-05
0.0010807406
8.6941467e-05
0.0010684963
8.5717748e-05
0.001055213
8.3905837e-05
0.0010413793
8.1616651e-05
0.0010273938
7.9003411e-05
0.001013524
7.6232479e-05
0.00099992751
7.3435218e-05
0.0009866941
7.0681928e-05
0.00097387378
6.8015761e-05
0.00096149148
6.5461085e-05
0.00094955578
6.3025685e-05
0.00093806365
6.071852e-05
0.00092700543
5.8537371e-05
0.00091636732
5.6476689e-05
0.00090613249
5.4535843e-05
0.0008962832