/*--------------------------------*- C++ -*----------------------------------*\
| =========                 |                                                 |
| \\      /  F ield         | OpenFOAM: The Open Source CFD Toolbox           |
|  \\    /   O peration     | Version:  2206                                  |
|   \\  /    A nd           | Website:  www.openfoam.com                      |
|    \\/     M anipulation  |                                                 |
\*---------------------------------------------------------------------------*/
FoamFile
{
    version     2.0;
    format      ascii;
    arch        "LSB;label=32;scalar=64";
    class       volVectorField;
    location    "1500";
    object      U;
}
// * * * * * * * * * * * * * * * * * * * * * * * * * * * * * * * * * * * * * //

dimensions      [0 1 -1 0 0 0 0];

internalField   nonuniform List<vector> 
7480
(
(0.86077046 0.014765349 5.8351624e-16)
(0.74497876 0.025621642 0)
(0.62910042 0.027255437 0)
(0.52583006 0.019482098 0)
(0.45020913 0.0094027844 0)
(0.39801937 0.0037520283 0)
(0.36031732 0.0017198961 0)
(0.33121492 0.0012087307 0)
(0.30751931 0.0010854079 0)
(0.28763077 0.00096781991 0)
(0.27079961 0.00081777701 0)
(0.25654246 0.0006714169 0)
(0.24444489 0.00054357001 0)
(0.23416087 0.00043812825 0)
(0.22539671 0.00035445311 0)
(0.21789606 0.00028719624 0)
(0.21145894 0.00023274421 0)
(0.20592153 0.00018613156 0)
(0.2011251 0.0002047 -6.542925e-18)
(0.19696835 0.00028361629 -1.6562971e-17)
(0.19329282 0.00013515563 0)
(0.19002181 9.0607752e-05 0)
(0.18707671 7.7589722e-05 0)
(0.18439321 6.9015434e-05 0)
(0.18192922 6.1673961e-05 0)
(0.17964838 5.5429599e-05 0)
(0.17752552 5.013218e-05 0)
(0.17553665 4.581103e-05 0)
(0.17366025 4.2410961e-05 0)
(0.17187797 3.9503467e-05 0)
(0.17017941 3.6796442e-05 0)
(0.16855712 3.4350005e-05 0)
(0.16700295 3.2173914e-05 0)
(0.16551042 3.0210667e-05 0)
(0.1640726 2.8450178e-05 0)
(0.16268529 2.6928051e-05 0)
(0.16133955 2.5566735e-05 0)
(0.16003326 2.427987e-05 0)
(0.15876261 2.3124626e-05 0)
(0.15752379 2.2059572e-05 0)
(0.15631424 2.1068513e-05 0)
(0.15513133 2.0161507e-05 0)
(0.15397304 1.928841e-05 0)
(0.1528381 1.8460592e-05 0)
(0.15172485 1.7685865e-05 0)
(0.15063217 1.694119e-05 0)
(0.14955858 1.6253373e-05 0)
(0.14850249 1.5603108e-05 0)
(0.14746306 1.4975006e-05 0)
(0.14643926 1.4387491e-05 0)
(0.1454303 1.3816121e-05 0)
(0.14443566 1.3269649e-05 0)
(0.14345467 1.2746549e-05 0)
(0.14248698 1.2239135e-05 0)
(0.14153196 1.1760409e-05 0)
(0.14058916 1.1295614e-05 0)
(0.13965821 1.0852776e-05 0)
(0.13873855 1.0430428e-05 0)
(0.13782966 1.0025982e-05 0)
(0.13693114 9.637151e-06 0)
(0.13604293 9.2582866e-06 0)
(0.13516484 8.8963642e-06 0)
(0.13429658 8.5465668e-06 0)
(0.13343794 8.2112554e-06 0)
(0.13258872 7.887803e-06 0)
(0.13174874 7.5776902e-06 0)
(0.1309177 7.280542e-06 0)
(0.13009537 6.9947925e-06 0)
(0.1292816 6.7197568e-06 0)
(0.12847625 6.4549584e-06 0)
(0.12767917 6.2008746e-06 0)
(0.12689018 5.9563879e-06 0)
(0.12610916 5.7213618e-06 0)
(0.125336 5.4950251e-06 0)
(0.12457055 5.2781215e-06 0)
(0.12381265 5.0696245e-06 0)
(0.12306214 4.8696738e-06 0)
(0.1223189 4.677324e-06 0)
(0.12158278 4.4929164e-06 0)
(0.12085364 4.3156133e-06 0)
(0.12013135 4.1457194e-06 0)
(0.11941574 3.9825372e-06 0)
(0.11870668 3.8261199e-06 0)
(0.11800397 3.6763124e-06 0)
(0.11730745 3.5326514e-06 0)
(0.11661688 3.3955701e-06 0)
(0.11593204 3.2641746e-06 0)
(0.11525258 3.1396729e-06 0)
(0.11457827 3.0201049e-06 0)
(0.1139083 2.9094304e-06 0)
(0.11324282 2.8005054e-06 0)
(0.11257923 2.7100679e-06 0)
(0.11192023 2.6051145e-06 0)
(0.1112554 2.5612027e-06 0)
(0.11060019 2.4274265e-06 0)
(0.10991289 2.5345804e-06 0)
(0.10925442 2.2260121e-06 -3.6031373e-21)
(0.10848263 6.227673e-06 7.070403e-20)
(0.10788173 -1.7149646e-06 -3.2243719e-19)
(0.1067087 1.2369227e-05 -1.1193094e-18)
(0.95767398 0.024834887 0)
(0.94369403 0.03245556 0)
(0.91263452 0.032570943 0)
(0.86110967 0.028754166 0)
(0.79837561 0.022911395 0)
(0.73544895 0.017274337 0)
(0.67862437 0.012886213 0)
(0.62992081 0.0098221296 0)
(0.58894189 0.0077455668 0)
(0.55445436 0.0062557816 0)
(0.52525869 0.0051168917 0)
(0.50037508 0.0042188759 0)
(0.47904299 0.0034898218 0)
(0.46068847 0.0028914253 0)
(0.4448498 0.0024004981 0)
(0.43115362 0.001996092 0)
(0.41927406 0.0016648742 0)
(0.40892313 0.0013951536 0)
(0.39984761 0.0011767671 0)
(0.39183952 0.0009972933 0)
(0.38471864 0.00084978466 0)
(0.3783333 0.000744435 0)
(0.37255549 0.00065568432 0)
(0.36728567 0.00058117036 0)
(0.36244627 0.00051943742 0)
(0.35796982 0.00046765568 0)
(0.35380865 0.00042350761 0)
(0.34991692 0.00038601757 0)
(0.34625694 0.00035437175 0)
(0.34279674 0.00032698629 0)
(0.33951408 0.00030253916 0)
(0.33639105 0.00028069011 0)
(0.3334106 0.00026118032 0)
(0.33055868 0.00024366376 0)
(0.32782154 0.000227882 0)
(0.32519 0.00021388692 0)
(0.32264784 0.00020135082 0)
(0.32018986 0.000189817 0)
(0.31780773 0.00017937007 0)
(0.31549388 0.00016980835 0)
(0.31324273 0.0001609955 0)
(0.31104903 0.00015289152 0)
(0.30890831 0.00014531737 0)
(0.30681721 0.00013823877 0)
(0.30477222 0.00013163796 0)
(0.30277051 0.0001254354 0)
(0.30080896 0.00011967227 0)
(0.29888449 0.00011427669 0)
(0.29699495 0.0001091789 0)
(0.29513816 0.00010439741 0)
(0.29331228 9.9855647e-05 0)
(0.29151589 9.5552608e-05 0)
(0.28974746 9.1469819e-05 0)
(0.28800594 8.7577766e-05 0)
(0.28628997 8.3897132e-05 0)
(0.28459849 8.0383828e-05 0)
(0.28293053 7.7047568e-05 0)
(0.28128491 7.3881367e-05 0)
(0.27966055 7.0869776e-05 0)
(0.27805659 6.799311e-05 0)
(0.27647262 6.5228709e-05 0)
(0.2749081 6.2590032e-05 0)
(0.2733624 6.0063668e-05 0)
(0.27183494 5.7648743e-05 0)
(0.27032524 5.5334926e-05 0)
(0.26883284 5.3123131e-05 0)
(0.26735712 5.1010085e-05 0)
(0.26589757 4.8986825e-05 0)
(0.26445382 4.7047059e-05 0)
(0.26302552 4.5186923e-05 0)
(0.2616123 4.3405263e-05 0)
(0.26021378 4.1696816e-05 0)
(0.25882964 4.0057953e-05 0)
(0.25745965 3.8485045e-05 0)
(0.25610345 3.6978561e-05 0)
(0.2547607 3.5534244e-05 0)
(0.25343108 3.4150112e-05 0)
(0.25211431 3.2822115e-05 0)
(0.25081008 3.1549335e-05 0)
(0.24951811 3.0328358e-05 0)
(0.24823811 2.9158553e-05 0)
(0.24696976 2.803689e-05 0)
(0.24571277 2.6962422e-05 0)
(0.24446677 2.5933799e-05 0)
(0.24323145 2.4949204e-05 0)
(0.24200634 2.4008808e-05 0)
(0.24079105 2.3110785e-05 0)
(0.23958491 2.2256596e-05 0)
(0.23838748 2.1445166e-05 0)
(0.23719738 2.0680191e-05 0)
(0.23601473 1.9962194e-05 0)
(0.23483515 1.9302421e-05 0)
(0.23366286 1.8698082e-05 0)
(0.23248064 1.8201209e-05 0)
(0.2313133 1.7743146e-05 0)
(0.23009231 1.768347e-05 0)
(0.22891577 1.7377713e-05 6.4645918e-21)
(0.22754852 1.9288178e-05 0)
(0.2264597 9.7900866e-06 0)
(0.22437283 3.1096237e-05 0)
(0.96670885 0.026225257 0)
(0.97156549 0.035061018 0)
(0.97654728 0.038604197 0)
(0.97533407 0.037481163 0)
(0.96074334 0.034264693 0)
(0.93262003 0.02992848 0)
(0.89601513 0.025237584 0)
(0.85605906 0.020849115 0)
(0.81600901 0.017130815 0)
(0.77779061 0.014078412 0)
(0.74245557 0.011600066 0)
(0.7104563 0.0096038769 0)
(0.68184459 0.0079830578 0)
(0.65644185 0.0066597444 0)
(0.63394336 0.0055792416 0)
(0.61401959 0.0046931816 0)
(0.59634795 0.0039650631 0)
(0.58063198 0.0033653288 0)
(0.56660899 0.0028705567 0)
(0.55405041 0.0024636792 0)
(0.54275795 0.0021343611 0)
(0.532551 0.0018660107 0)
(0.52327713 0.0016436685 0)
(0.51480721 0.0014584564 0)
(0.50703108 0.0013033933 0)
(0.49985297 0.0011725546 0)
(0.49319127 0.0010607123 0)
(0.48698199 0.00096465744 0)
(0.4811706 0.00088228421 0)
(0.47571102 0.0008105796 0)
(0.47056368 0.00074704074 0)
(0.46569515 0.00069054243 0)
(0.46107598 0.00064021002 0)
(0.45668113 0.00059511299 0)
(0.45248881 0.00055454309 0)
(0.44848095 0.00051848014 0)
(0.4446345 0.00048614003 0)
(0.44093858 0.00045656899 0)
(0.43737824 0.00042978838 0)
(0.4339414 0.00040533187 0)
(0.43061819 0.00038286736 0)
(0.42739942 0.00036224338 0)
(0.42427689 0.00034310625 0)
(0.42124379 0.00032532565 0)
(0.41829363 0.00030881284 0)
(0.41542073 0.00029339507 0)
(0.41261967 0.00027909106 0)
(0.40988526 0.00026574997 0)
(0.40721328 0.00025322191 0)
(0.40459981 0.00024149949 0)
(0.4020413 0.00023043649 0)
(0.39953475 0.00022000522 0)
(0.39707719 0.00021015336 0)
(0.39466625 0.00020081411 0)
(0.39229946 0.0001920012 0)
(0.38997469 0.00018363225 0)
(0.38768993 0.00017571039 0)
(0.38544312 0.0001682127 0)
(0.38323239 0.00016110121 0)
(0.38105613 0.00015433122 0)
(0.37891319 0.00014785726 0)
(0.37680233 0.0001416937 0)
(0.37472228 0.00013581312 0)
(0.3726719 0.00013020602 0)
(0.37065018 0.00012484997 0)
(0.36865612 0.00011974172 0)
(0.36668866 0.00011487116 0)
(0.36474686 0.00011021803 0)
(0.36282992 0.00010576734 0)
(0.36093712 0.00010150894 0)
(0.35906771 9.7437277e-05 0)
(0.357221 9.3540376e-05 0)
(0.35539636 8.9808866e-05 0)
(0.35359322 8.6234407e-05 0)
(0.35181094 8.2815364e-05 0)
(0.35004892 7.9542379e-05 0)
(0.34830657 7.6409664e-05 0)
(0.34658336 7.3408519e-05 0)
(0.34487874 7.0535334e-05 0)
(0.34319221 6.7782787e-05 0)
(0.34152325 6.5148148e-05 0)
(0.33987131 6.2624915e-05 0)
(0.3382359 6.0210146e-05 0)
(0.33661645 5.7900422e-05 0)
(0.3350124 5.569185e-05 0)
(0.33342308 5.3583632e-05 0)
(0.33184787 5.1572751e-05 0)
(0.3302858 4.9660194e-05 0)
(0.32873623 4.7846836e-05 0)
(0.32719727 4.6134081e-05 0)
(0.32566896 4.4536433e-05 0)
(0.32414569 4.3049957e-05 0)
(0.32263252 4.1729797e-05 0)
(0.32110773 4.0560964e-05 0)
(0.31960194 3.9660895e-05 0)
(0.31802953 3.9277977e-05 0)
(0.31651138 3.9100283e-05 4.7581572e-21)
(0.31475366 4.1303941e-05 0)
(0.31333008 2.9578374e-05 0)
(0.31065809 5.727311e-05 -9.3902007e-21)
(0.96967454 0.024376644 0)
(0.97520222 0.032510558 0)
(0.98319297 0.036268033 0)
(0.98979187 0.036537991 0)
(0.99333179 0.034779826 0)
(0.99298969 0.032305933 0)
(0.98679929 0.029681858 0)
(0.97397927 0.027063592 0)
(0.95468907 0.02440534 0)
(0.93087763 0.021563972 0)
(0.90429231 0.018745916 0)
(0.87631487 0.016128651 0)
(0.84809651 0.013792681 0)
(0.82054587 0.011763948 0)
(0.79431191 0.010024859 0)
(0.76979304 0.008544588 0)
(0.74716966 0.0072964542 0)
(0.72645607 0.006250667 0)
(0.7075615 0.0053819032 0)
(0.69034307 0.0046638563 0)
(0.67464641 0.0040673058 0)
(0.66031523 0.0035709765 0)
(0.64720505 0.0031549756 0)
(0.6351815 0.0028030277 0)
(0.62411963 0.0025043573 0)
(0.61390689 0.0022499603 0)
(0.60443947 0.0020314341 0)
(0.59563397 0.0018427242 0)
(0.58741843 0.0016795028 0)
(0.57972891 0.0015369201 0)
(0.57250852 0.0014109435 0)
(0.56570804 0.0012993126 0)
(0.5592843 0.0012001687 0)
(0.55319863 0.0011115933 0)
(0.54741967 0.0010320734 0)
(0.54191877 0.00096106282 0)
(0.53667052 0.00089732427 0)
(0.53165215 0.00083939591 0)
(0.52684384 0.00078695484 0)
(0.52222728 0.00073921582 0)
(0.51778693 0.00069552617 0)
(0.51350868 0.00065552732 0)
(0.50937971 0.00061862476 0)
(0.5053889 0.00058451972 0)
(0.50152596 0.00055298824 0)
(0.49778164 0.00052369862 0)
(0.49414782 0.00049658892 0)
(0.49061659 0.00047139913 0)
(0.48718122 0.00044786215 0)
(0.4838356 0.00042590877 0)
(0.48057404 0.00040530304 0)
(0.47739154 0.00038596442 0)
(0.47428331 0.00036778265 0)
(0.47124528 0.00035063089 0)
(0.46827361 0.00033449265 0)
(0.46536479 0.00031923808 0)
(0.46251551 0.00030484822 0)
(0.4597226 0.00029126733 0)
(0.45698328 0.00027842261 0)
(0.45429501 0.00026623769 0)
(0.45165563 0.00025463876 0)
(0.44906302 0.0002436302 0)
(0.4465151 0.00023316282 0)
(0.44401002 0.00022321048 0)
(0.44154606 0.00021373317 0)
(0.43912161 0.00020471748 0)
(0.43673501 0.00019614053 0)
(0.43438483 0.00018796636 0)
(0.43206975 0.00018016773 0)
(0.42978855 0.00017272433 0)
(0.42754005 0.00016562199 0)
(0.42532314 0.00015883899 0)
(0.42313679 0.00015235756 0)
(0.42098004 0.00014616225 0)
(0.41885191 0.00014024627 0)
(0.41675147 0.0001345929 0)
(0.41467782 0.00012919042 0)
(0.41263012 0.00012402377 0)
(0.41060756 0.00011908467 0)
(0.40860934 0.00011436041 0)
(0.40663468 0.00010984451 0)
(0.40468282 0.00010552573 0)
(0.40275299 0.00010139782 0)
(0.40084439 9.7454164e-05 0)
(0.39895625 9.3687913e-05 0)
(0.39708766 9.0096213e-05 0)
(0.39523774 8.6674586e-05 0)
(0.39340532 8.3422225e-05 0)
(0.39158947 8.034325e-05 0)
(0.38978799 7.7433406e-05 0)
(0.38800072 7.4728872e-05 0)
(0.38622132 7.2196112e-05 0)
(0.38445508 6.9983344e-05 0)
(0.38267801 6.7944824e-05 0)
(0.38092299 6.6524858e-05 0)
(0.37909656 6.5626811e-05 0)
(0.37732862 6.5773691e-05 3.621545e-21)
(0.375298 6.7865471e-05 0)
(0.37362322 5.6641435e-05 0)
(0.3705434 8.4779671e-05 7.2751591e-21)
(0.97160826 0.023220089 0)
(0.97654392 0.03046904 0)
(0.98388732 0.034212574 0)
(0.99095797 0.034693902 0)
(0.99609132 0.033416152 0)
(0.99918716 0.031546315 0)
(1.0016361 0.02966084 0)
(1.0015076 0.027910889 0)
(0.99992678 0.026225905 0)
(0.99524438 0.024491034 0)
(0.98677003 0.022688953 0)
(0.97431696 0.020828746 0)
(0.95839271 0.018858319 0)
(0.93984291 0.016855637 0)
(0.91938166 0.014923563 0)
(0.89769862 0.013125446 0)
(0.87549811 0.011507256 0)
(0.85341141 0.010065802 0)
(0.8319559 0.008798608 0)
(0.81149654 0.007700038 0)
(0.79224509 0.0067549345 0)
(0.77427461 0.0059523677 0)
(0.7575666 0.0052728928 0)
(0.74205713 0.0046946891 0)
(0.72766348 0.004200133 0)
(0.71429817 0.003774787 0)
(0.70187169 0.00340605 0)
(0.69029822 0.0030848161 0)
(0.679497 0.0028048694 0)
(0.66939258 0.0025593161 0)
(0.65991789 0.0023423435 0)
(0.65101281 0.0021501684 0)
(0.64262267 0.0019795724 0)
(0.63469783 0.0018273527 0)
(0.62719624 0.0016909941 0)
(0.62007858 0.0015690988 0)
(0.61331428 0.0014595853 0)
(0.60687073 0.0013604199 0)
(0.60072128 0.0012707853 0)
(0.59484125 0.0011893132 0)
(0.58920918 0.0011149769 0)
(0.58380518 0.0010471174 0)
(0.57861109 0.00098479037 0)
(0.57361108 0.00092743699 0)
(0.56879038 0.00087462412 0)
(0.5641356 0.00082577355 0)
(0.55963543 0.00078065273 0)
(0.55527909 0.00073884186 0)
(0.55105721 0.00069992734 0)
(0.54696106 0.00066374865 0)
(0.54298238 0.00062994853 0)
(0.53911387 0.00059835508 0)
(0.53534865 0.00056877092 0)
(0.53168067 0.00054098205 0)
(0.5281044 0.00051491697 0)
(0.52461461 0.00049038065 0)
(0.52120651 0.00046730765 0)
(0.51787568 0.00044558763 0)
(0.51461825 0.00042510028 0)
(0.51143059 0.00040573205 0)
(0.50830931 0.00038737115 0)
(0.50525124 0.00036999753 0)
(0.50225339 0.00035352975 0)
(0.49931304 0.00033791571 0)
(0.49642769 0.00032309031 0)
(0.49359494 0.00030902217 0)
(0.49081252 0.00029566804 0)
(0.48807838 0.00028297126 0)
(0.4853906 0.00027088794 0)
(0.48274739 0.00025938237 0)
(0.48014705 0.00024842671 0)
(0.47758802 0.00023798581 0)
(0.47506879 0.0002280306 0)
(0.47258795 0.00021853507 0)
(0.47014411 0.0002094834 0)
(0.46773596 0.00020084872 0)
(0.46536226 0.00019261089 0)
(0.46302184 0.00018474629 0)
(0.46071355 0.00017723972 0)
(0.4584363 0.00017007111 0)
(0.45618902 0.00016322834 0)
(0.45397065 0.00015669381 0)
(0.45178019 0.00015045638 0)
(0.44961657 0.00014450483 0)
(0.44747875 0.00013882821 0)
(0.44536561 0.00013342038 0)
(0.44327603 0.0001282747 0)
(0.44120858 0.00012338735 0)
(0.4391621 0.00011876611 0)
(0.43713411 0.00011439873 0)
(0.4351242 0.00011034758 0)
(0.43312562 0.00010654075 0)
(0.43114346 0.00010324101 0)
(0.42915282 0.00010013423 0)
(0.42718678 9.8076293e-05 0)
(0.42514921 9.6490663e-05 0)
(0.42317161 9.704123e-05 2.9637137e-21)
(0.42092238 9.8599108e-05 5.6880697e-20)
(0.41903671 8.9943791e-05 0)
(0.41562636 0.00011416041 0)
(0.9730795 0.02236604 0)
(0.97751585 0.028800226 0)
(0.98385498 0.032363492 0)
(0.99005029 0.033104358 0)
(0.99504909 0.032269628 0)
(0.99878843 0.030753985 0)
(1.0014057 0.029109162 0)
(1.0032566 0.027567876 0)
(1.0044518 0.026061326 0)
(1.0053155 0.02460437 0)
(1.0050904 0.023221752 0)
(1.0038804 0.021891629 0)
(1.0009882 0.020578402 0)
(0.99575433 0.019264294 0)
(0.98789152 0.017958199 0)
(0.97723381 0.016607286 0)
(0.9641909 0.015201273 0)
(0.94907126 0.013807374 0)
(0.93225278 0.012461342 0)
(0.91420071 0.011196336 0)
(0.89546947 0.010030146 0)
(0.8765954 0.0089698418 0)
(0.85804022 0.0080163026 0)
(0.84014044 0.0071686834 0)
(0.82309446 0.0064246657 0)
(0.8069841 0.0057778254 0)
(0.7918168 0.0052157419 0)
(0.77756403 0.0047247161 0)
(0.76417972 0.0042942052 0)
(0.75160954 0.0039141085 0)
(0.73979665 0.0035765701 0)
(0.72868327 0.0032765652 0)
(0.71821254 0.0030096739 0)
(0.70833152 0.0027712954 0)
(0.69899189 0.0025577696 0)
(0.69014697 0.0023665627 0)
(0.68175762 0.0021946239 0)
(0.67378629 0.0020392825 0)
(0.66619862 0.0018989475 0)
(0.65896385 0.0017715973 0)
(0.65205475 0.0016556486 0)
(0.64544585 0.0015500115 0)
(0.63911381 0.001453295 0)
(0.63303792 0.0013645783 0)
(0.62719893 0.0012831249 0)
(0.62157935 0.0012080386 0)
(0.61616381 0.0011388462 0)
(0.61093813 0.0010748986 0)
(0.60588985 0.0010155729 0)
(0.60100733 0.00096056747 0)
(0.59627959 0.00090936249 0)
(0.59169692 0.00086166005 0)
(0.58725012 0.00081714576 0)
(0.58293095 0.00077548577 0)
(0.57873185 0.00073653041 0)
(0.5746455 0.00069998986 0)
(0.57066559 0.00066571846 0)
(0.56678629 0.00063353275 0)
(0.56300244 0.00060325267 0)
(0.559309 0.00057471554 0)
(0.55570133 0.00054775765 0)
(0.55217511 0.00052231951 0)
(0.54872632 0.00049827458 0)
(0.54535128 0.00047553604 0)
(0.54204652 0.0004540056 0)
(0.53880879 0.00043362226 0)
(0.53563508 0.00041431318 0)
(0.53252268 0.00039599612 0)
(0.52946893 0.00037860471 0)
(0.52647142 0.00036208129 0)
(0.52352788 0.0003463786 0)
(0.52063621 0.00033144413 0)
(0.51779437 0.00031723424 0)
(0.5150004 0.00030370759 0)
(0.51225248 0.00029083477 0)
(0.50954891 0.00027857565 0)
(0.50688803 0.00026689888 0)
(0.5042683 0.00025576963 0)
(0.5016882 0.00024516314 0)
(0.4991463 0.00023504972 0)
(0.49664123 0.00022540941 0)
(0.49417161 0.00021621633 0)
(0.49173614 0.00020745264 0)
(0.48933349 0.00019910091 0)
(0.48696236 0.00019114465 0)
(0.48462136 0.00018357304 0)
(0.48230912 0.0001763763 0)
(0.48002395 0.00016954637 0)
(0.47776448 0.0001630944 0)
(0.47552796 0.00015699856 0)
(0.4733137 0.00015134952 0)
(0.47111469 0.00014603222 0)
(0.46893567 0.00014143558 0)
(0.46675143 0.00013705744 0)
(0.46459434 0.00013421141 0)
(0.46236814 0.00013177021 0)
(0.46020245 0.00013271853 0)
(0.45776368 0.00013343705 0)
(0.45569108 0.00012891136 1.1251221e-19)
(0.45199185 0.00014592123 0)
(0.97440559 0.021582059 0)
(0.97832016 0.027337793 0)
(0.98387515 0.030721354 0)
(0.98934296 0.0316649 0)
(0.99385536 0.031133813 0)
(0.99733776 0.029901626 0)
(0.99997162 0.028476495 0)
(1.0020584 0.027076381 0)
(1.0037735 0.025681993 0)
(1.0050559 0.02433153 0)
(1.0059805 0.023051747 0)
(1.0065724 0.021820804 0)
(1.0068791 0.020649585 0)
(1.0066783 0.019559224 0)
(1.0058208 0.018536068 0)
(1.0041363 0.017563373 0)
(1.0010159 0.016632711 0)
(0.99610376 0.015720038 0)
(0.98914418 0.014813756 0)
(0.98000662 0.01387237 0)
(0.9688304 0.012887011 0)
(0.95577215 0.011895557 0)
(0.94109798 0.0109165 0)
(0.92521406 0.0099710934 0)
(0.90862435 0.0090746298 0)
(0.89182508 0.0082379762 0)
(0.8752334 0.0074707141 0)
(0.85914203 0.0067777452 0)
(0.8437139 0.0061610869 0)
(0.82901571 0.0056153995 0)
(0.81506109 0.0051309581 0)
(0.8018378 0.0046991783 0)
(0.78931924 0.0043129723 0)
(0.77747054 0.0039662089 0)
(0.76625236 0.0036545376 0)
(0.75562177 0.0033746332 0)
(0.7455383 0.0031224351 0)
(0.73596343 0.0028945437 0)
(0.72685964 0.0026886106 0)
(0.71819188 0.0025018115 0)
(0.70992846 0.0023319226 0)
(0.70203968 0.002177327 0)
(0.69449793 0.0020360733 0)
(0.68727818 0.001906786 0)
(0.68035714 0.0017883354 0)
(0.67371352 0.0016794206 0)
(0.66732785 0.0015792486 0)
(0.66118217 0.0014868665 0)
(0.65526053 0.0014013852 0)
(0.64954817 0.0013223137 0)
(0.64403136 0.0012489218 0)
(0.63869774 0.0011807372 0)
(0.63353567 0.0011172872 0)
(0.62853464 0.0010580867 0)
(0.62368492 0.0010028755 0)
(0.61897721 0.00095124455 0)
(0.61440332 0.00090294168 0)
(0.60995572 0.00085768189 0)
(0.60562762 0.00081520423 0)
(0.60141252 0.00077528057 0)
(0.59730446 0.00073767978 0)
(0.59329788 0.0007022854 0)
(0.58938764 0.00066891308 0)
(0.58556898 0.00063743233 0)
(0.58183731 0.0006076995 0)
(0.57818842 0.00057960899 0)
(0.57461858 0.00055304993 0)
(0.57112422 0.00052790938 0)
(0.56770193 0.00050409114 0)
(0.56434857 0.00048150858 0)
(0.56106122 0.0004600886 0)
(0.55783713 0.00043975543 0)
(0.55467372 0.00042044597 0)
(0.55156846 0.00040209935 0)
(0.54851904 0.0003846678 0)
(0.54552328 0.00036809415 0)
(0.54257909 0.00035233239 0)
(0.53968448 0.00033733339 0)
(0.53683757 0.00032305985 0)
(0.53403654 0.00030946978 0)
(0.53127966 0.00029653294 0)
(0.52856523 0.00028421293 0)
(0.52589163 0.00027248312 0)
(0.52325722 0.00026131804 0)
(0.52066042 0.00025069394 0)
(0.51809957 0.00024059379 0)
(0.51557302 0.00023100338 0)
(0.51307885 0.00022190909 0)
(0.51061539 0.00021332471 0)
(0.50817969 0.00020521752 0)
(0.50577076 0.00019770717 0)
(0.50338141 0.00019063277 0)
(0.5010159 0.00018451531 0)
(0.49864909 0.00017865479 0)
(0.49631216 0.000174847 0)
(0.49391005 0.00017137726 0)
(0.49156891 0.00017266131 0)
(0.4889573 0.00017229319 0)
(0.4867134 0.00017317014 1.0063953e-19)
(0.48275006 0.00018028258 0)
(0.97578721 0.020863943 0)
(0.97916156 0.025994092 0)
(0.98404112 0.029229889 0)
(0.98896923 0.030352317 0)
(0.99313249 0.030080825 0)
(0.99639429 0.029097378 0)
(0.99891159 0.027860088 0)
(1.000917 0.026584085 0)
(1.0025761 0.025295062 0)
(1.0039332 0.024032605 0)
(1.0050445 0.022818889 0)
(1.005943 0.021647078 0)
(1.0066059 0.02053297 0)
(1.0070312 0.019487984 0)
(1.0073661 0.018515185 0)
(1.0073473 0.017616951 0)
(1.007169 0.016793996 0)
(1.0065989 0.016040594 0)
(1.0055012 0.015347845 0)
(1.0036512 0.014700906 0)
(1.0006168 0.014077502 0)
(0.99607968 0.013465974 0)
(0.98974268 0.012832616 0)
(0.98149445 0.012143345 0)
(0.97134508 0.01140488 0)
(0.95940573 0.010636177 0)
(0.94593839 0.0098566824 0)
(0.93136837 0.0090906458 0)
(0.91618744 0.0083514494 0)
(0.90085726 0.0076533921 0)
(0.88573415 0.0070074319 0)
(0.87104382 0.0064204935 0)
(0.85690215 0.0058930637 0)
(0.84335782 0.0054194342 0)
(0.83042567 0.0049927514 0)
(0.81810033 0.0046076228 0)
(0.80636438 0.0042588032 0)
(0.79519303 0.0039424471 0)
(0.78455639 0.0036558288 0)
(0.77442321 0.0033954656 0)
(0.76476294 0.0031585411 0)
(0.75554529 0.0029429006 0)
(0.74674108 0.0027459981 0)
(0.73832304 0.0025659565 0)
(0.73026514 0.0024011811 0)
(0.72254327 0.0022499154 0)
(0.71513489 0.0021110026 0)
(0.70801885 0.0019831153 0)
(0.70117606 0.0018650307 0)
(0.69458873 0.0017560022 0)
(0.68824033 0.0016550314 0)
(0.68211578 0.0015614295 0)
(0.67620098 0.0014745253 0)
(0.67048315 0.0013936445 0)
(0.66495036 0.0013183862 0)
(0.65959145 0.0012481864 0)
(0.65439615 0.001182655 0)
(0.64935502 0.0011213844 0)
(0.64445947 0.0010640103 0)
(0.63970144 0.0010102149 0)
(0.63507357 0.00095967868 0)
(0.63056893 0.00091221266 0)
(0.62618114 0.00086755832 0)
(0.62190425 0.00082552719 0)
(0.61773257 0.00078591998 0)
(0.61366088 0.00074857541 0)
(0.60968448 0.00071333214 0)
(0.60579891 0.00068003686 0)
(0.60199995 0.00064855576 0)
(0.59828367 0.00061876544 0)
(0.59464638 0.00059055996 0)
(0.59108467 0.00056383378 0)
(0.58759532 0.00053849905 0)
(0.58417523 0.0005144694 0)
(0.58082152 0.00049167348 0)
(0.57753149 0.00047003312 0)
(0.57430256 0.00044948369 0)
(0.57113229 0.00042995798 0)
(0.56801835 0.00041140285 0)
(0.56495851 0.00039376093 0)
(0.56195067 0.00037698883 0)
(0.55899275 0.00036103713 0)
(0.55608279 0.00034586804 0)
(0.55321883 0.00033144585 0)
(0.55039898 0.00031773768 0)
(0.54762127 0.00030471849 0)
(0.54488378 0.00029236807 0)
(0.54218432 0.0002806658 0)
(0.53952095 0.00026962703 0)
(0.53689047 0.00025920688 0)
(0.5342916 0.00024955385 0)
(0.531717 0.00024045955 0)
(0.52917043 0.00023257989 0)
(0.52662697 0.00022501211 0)
(0.52411643 0.00022004771 0)
(0.52154554 0.00021536432 0)
(0.5190364 0.00021688461 0)
(0.51626168 0.00021518635 -2.0130502e-20)
(0.51385694 0.00022259981 0)
(0.50964483 0.00021741785 -2.4775795e-21)
(0.97721174 0.02022951 0)
(0.98010619 0.024772464 0)
(0.98436203 0.027820986 0)
(0.98881641 0.029083746 0)
(0.99270878 0.029060713 0)
(0.99583344 0.028317099 0)
(0.99828411 0.027260678 0)
(1.0002423 0.026108426 0)
(1.0018479 0.024917045 0)
(1.0031668 0.023728959 0)
(1.0042523 0.022572757 0)
(1.0051465 0.021452912 0)
(1.0058689 0.020385814 0)
(1.0064337 0.019377334 0)
(1.0068726 0.018440252 0)
(1.0071749 0.017576589 0)
(1.0073542 0.016774837 0)
(1.0074392 0.016044807 0)
(1.0073905 0.01538748 0)
(1.0072192 0.014795395 0)
(1.0068327 0.014258779 0)
(1.0061225 0.013770929 0)
(1.0049627 0.013318118 0)
(1.0030593 0.012884609 0)
(1.0000516 0.012452903 0)
(0.99561777 0.012008193 0)
(0.98945024 0.01151479 0)
(0.98146953 0.010949841 0)
(0.97166124 0.010335096 0)
(0.9601668 0.0096845338 0)
(0.94731709 0.0090205167 0)
(0.93357297 0.0083609016 0)
(0.91940959 0.0077230336 0)
(0.90522241 0.0071217852 0)
(0.89128139 0.0065668381 0)
(0.87773886 0.0060620549 0)
(0.86467037 0.0056042289 0)
(0.85211123 0.005187908 0)
(0.84007313 0.0048088608 0)
(0.82855226 0.0044628308 0)
(0.81753513 0.0041467786 0)
(0.80700181 0.0038583668 0)
(0.79692949 0.0035946335 0)
(0.78729443 0.003353314 0)
(0.77807203 0.0031324006 0)
(0.76923825 0.0029296832 0)
(0.76076982 0.0027436309 0)
(0.75264416 0.0025725137 0)
(0.74484024 0.0024147338 0)
(0.73733816 0.0022692414 0)
(0.73011912 0.0021347236 0)
(0.72316577 0.0020102318 0)
(0.7164618 0.0018948479 0)
(0.70999229 0.0017876711 0)
(0.70374324 0.0016881208 0)
(0.69770156 0.0015954486 0)
(0.69185511 0.0015091085 0)
(0.68619257 0.0014285423 0)
(0.68070354 0.001353253 0)
(0.67537835 0.0012828051 0)
(0.67020809 0.0012167701 0)
(0.66518444 0.0011548682 0)
(0.66029961 0.0010967501 0)
(0.65554643 0.0010421543 0)
(0.65091815 0.00099081059 0)
(0.64640844 0.00094248851 0)
(0.64201148 0.00089696554 0)
(0.63772185 0.00085403739 0)
(0.63353447 0.00081352249 0)
(0.62944456 0.00077525262 0)
(0.62544765 0.00073908131 0)
(0.62153956 0.00070486525 0)
(0.61771638 0.00067248401 0)
(0.61397439 0.00064182042 0)
(0.61031011 0.00061277455 0)
(0.60672025 0.00058524194 0)
(0.60320171 0.00055913467 0)
(0.59975153 0.00053436334 0)
(0.59636693 0.00051085509 0)
(0.59304524 0.0004885337 0)
(0.58978392 0.00046733941 0)
(0.5865805 0.00044720686 0)
(0.58343267 0.00042808442 0)
(0.58033809 0.00040992372 0)
(0.57729454 0.0003926805 0)
(0.57429973 0.00037631967 0)
(0.57135146 0.00036081325 0)
(0.56844722 0.00034613196 0)
(0.56558482 0.00033229134 0)
(0.56276079 0.00031923304 0)
(0.55997354 0.00030713371 0)
(0.5572156 0.00029573623 0)
(0.5544902 0.00028583259 0)
(0.55177276 0.00027631487 0)
(0.54909162 0.00026997785 0)
(0.54635558 0.00026387951 0)
(0.54368258 0.00026550755 9.9055423e-22)
(0.54075011 0.0002622209 0)
(0.53819147 0.00027723275 8.7085023e-20)
(0.5337401 0.00025750683 0)
(0.97861847 0.019661886 0)
(0.9811234 0.023684991 0)
(0.98481933 0.026518113 0)
(0.98882129 0.027860733 0)
(0.99245353 0.028046972 0)
(0.99546011 0.027525345 0)
(0.99786884 0.026648537 0)
(0.9998114 0.025626345 0)
(1.0014034 0.02453543 0)
(1.0027097 0.023424628 0)
(1.0037819 0.022328745 0)
(1.0046616 0.021259805 0)
(1.0053765 0.020234111 0)
(1.0059483 0.019260336 0)
(1.0063996 0.018351774 0)
(1.0067527 0.017510484 0)
(1.0070188 0.016729887 0)
(1.0072064 0.016019092 0)
(1.0073211 0.015376604 0)
(1.007392 0.01479469 0)
(1.0073823 0.014269019 0)
(1.0073304 0.013798591 0)
(1.0071968 0.013376021 0)
(1.0069382 0.012991213 0)
(1.0064785 0.012636293 0)
(1.0057018 0.012304306 0)
(1.0044599 0.011985043 0)
(1.0023923 0.01166621 0)
(0.99917184 0.011333203 0)
(0.99445308 0.010960549 0)
(0.98802354 0.010519429 0)
(0.97979279 0.010014579 0)
(0.9698154 0.0094604184 0)
(0.95834449 0.0088763379 0)
(0.94580215 0.0082835865 0)
(0.93266027 0.0076997214 0)
(0.91933215 0.00714116 0)
(0.90611119 0.0066191205 0)
(0.89317104 0.0061391848 0)
(0.88060496 0.0056998634 0)
(0.86846271 0.0052971818 0)
(0.85676807 0.0049277937 0)
(0.84552752 0.0045883342 0)
(0.83473626 0.0042765458 0)
(0.82438201 0.0039903634 0)
(0.81444875 0.0037273332 0)
(0.80491822 0.0034856893 0)
(0.79577064 0.0032633758 0)
(0.78698623 0.0030584559 0)
(0.77854523 0.002869583 0)
(0.77042829 0.002695111 0)
(0.76261706 0.0025338075 0)
(0.75509392 0.0023844765 0)
(0.74784249 0.0022459589 0)
(0.74084717 0.0021174641 0)
(0.73409327 0.0019980296 0)
(0.72756703 0.001886929 0)
(0.7212555 0.0017834288 0)
(0.71514666 0.0016868744 0)
(0.70922924 0.0015966878 0)
(0.70349285 0.0015123086 0)
(0.69792773 0.0014333472 0)
(0.69252473 0.0013593449 0)
(0.68727542 0.0012899464 0)
(0.68217186 0.0012247951 0)
(0.67720665 0.0011635821 0)
(0.67237283 0.0011060114 0)
(0.66766397 0.0010518126 0)
(0.66307406 0.0010007458 0)
(0.65859742 0.00095258874 0)
(0.65422876 0.00090714583 0)
(0.64996309 0.00086422765 0)
(0.64579575 0.00082367329 0)
(0.64172236 0.00078532792 0)
(0.63773877 0.00074905693 0)
(0.6338411 0.00071472411 0)
(0.63002565 0.000682213 0)
(0.62628894 0.00065140722 0)
(0.62262767 0.00062220989 0)
(0.6190387 0.000594522 0)
(0.61551903 0.00056826381 0)
(0.61206578 0.0005433507 0)
(0.60867622 0.00051971418 0)
(0.60534764 0.00049729046 0)
(0.60207747 0.00047602136 0)
(0.59886307 0.00045585948 0)
(0.59570191 0.00043676695 0)
(0.5925912 0.00041870401 0)
(0.58952841 0.00040168474 0)
(0.58650985 0.00038563588 0)
(0.58353359 0.00037076112 0)
(0.58059201 0.0003567536 0)
(0.57768785 0.00034454139 0)
(0.57479684 0.00033281042 0)
(0.57194589 0.00032486287 0)
(0.56904595 0.00031712942 0)
(0.5662109 0.00031871147 0)
(0.56312317 0.00031355673 0)
(0.56041494 0.00033718994 0)
(0.55572995 0.00030073799 0)
(0.97996224 0.019140294 0)
(0.98215997 0.022714214 0)
(0.98537581 0.025330483 0)
(0.98895119 0.026704339 0)
(0.99231491 0.027052694 0)
(0.99519157 0.026724991 0)
(0.99755462 0.026018407 0)
(0.99948779 0.025127213 0)
(1.0010809 0.024139362 0)
(1.002392 0.023109785 0)
(1.0034693 0.022077877 0)
(1.0043527 0.021061641 0)
(1.005071 0.020078592 0)
(1.0056476 0.019140234 0)
(1.006105 0.018259098 0)
(1.0064669 0.017439634 0)
(1.0067482 0.016678242 0)
(1.00696 0.015981995 0)
(1.0071158 0.015349657 0)
(1.0072323 0.014777802 0)
(1.0073092 0.014262246 0)
(1.0073541 0.01379709 0)
(1.0073789 0.01337785 0)
(1.0073713 0.012998498 0)
(1.0073344 0.012654181 0)
(1.0072428 0.0123407 0)
(1.0070711 0.012052578 0)
(1.006763 0.011782957 0)