# Region        : all region0
# Cells         : 13056
# Volume        : 2.33333000e+00
# Time          	none(U)
0.000120005     
0.000264017     
0.000436833     
0.000644211     
0.000893055     
0.00119165      
0.0015499       
0.00197972      
0.00249549      
0.00311429      
0.00385657      
0.00474757      
0.00581659      
0.00709941      
0.00863879      
0.0104849       
0.0126986       
0.0153526       
0.0185392       
0.0223581       
0.026948        
0.0324454       
0.0390274       
0.0467152       
0.0554609       
0.0652999       
0.0753504       
0.085401        
0.0954515       
0.105502        
0.115553        
0.125603        
0.135654        
0.145704        
0.155755        
0.165805        
0.175736        
0.185667        
0.195598        
0.205408        
0.215218        
0.225027        
0.234837        
0.244523        
0.254208        
0.263894        
0.273579        
0.283265        
0.292822        
0.302378        
0.311935        
0.321491        
0.331047        
0.340604        
0.35016         
0.359717        
0.369133        
0.378549        
0.387965        
0.397381        
0.406796        
0.416212        
0.425628        
0.435044        
0.44446         
0.453876        
0.463292        
0.472708        
0.482124        
0.491372        
0.500619        
0.509867        
0.519115        
0.528363        
0.537611        
0.546858        
0.556106        
0.565354        
0.574602        
0.58385         
0.593097        
0.602345        
0.611593        
0.620841        
0.630089        
0.639336        
0.648584        
0.657832        
0.66708         
0.676327        
0.685575        
0.694823        
0.704071        
0.713319        
0.722566        
0.731814        
0.741062        
0.75031         
0.759558        
0.768805        
0.778053        
0.787301        
0.796549        
0.805796        
0.815044        
0.824292        
0.83354         
0.842788        
0.852035        
0.861283        
0.870531        
0.879779        
0.889027        
0.898274        
0.907522        
0.91677         
0.926018        
0.935265        
0.944513        
0.953761        
0.963009        
0.972257        
0.981504        
0.990752        
1               
1.00917         
1.01835         
1.02752         
1.0367          
1.04587         
1.05505         
1.06422         
1.07339         
1.08257         
1.09174         
1.10092         
1.11009         
1.11927         
1.12844         
1.13761         
1.14679         
1.15596         
1.16514         
1.17431         
1.18349         
1.19266         
1.20183         
1.21101         
1.22018         
1.22936         
1.23853         
1.24771         
1.25688         
1.26606         
1.27523         
1.2844          
1.29358         
1.30275         
1.31193         
1.3211          
1.33028         
1.33945         
1.34862         
1.3578          
1.36697         
1.37615         
1.38532         
1.3945          
1.40367         
1.41284         
1.42202         
1.43119         
1.44037         
1.44954         
1.45872         
1.46789         
1.47706         
1.48624         
1.49541         
1.50459         
1.51376         
1.52294         
1.53211         
1.54128         
1.55046         
1.55963         
1.56881         
1.57798         
1.58716         
1.59633         
1.6055          
1.61468         
1.62385         
1.63303         
1.6422          
1.65138         
1.66055         
1.66972         
1.6789          
1.68807         
1.69725         
1.70642         
1.7156          
1.72477         
1.73394         
1.74312         
1.75229         
1.76147         
1.77064         
1.77982         
1.78899         
1.79817         
1.80734         
1.81651         
1.82569         
1.83486         
1.84404         
1.85321         
1.86239         
1.87156         
1.88073         
1.88991         
1.89908         
1.90826         
1.91743         
1.92661         
1.93578         
1.94495         
1.95413         
1.9633          
1.97248         
1.98165         
1.99083         
2               
2.00917         
2.01835         
2.02752         
2.0367          
2.04587         
2.05505         
2.06422         
2.07339         
2.08257         
2.09174         
2.10092         
2.11009         
2.11927         
2.12844         
2.13761         
2.14679         
2.15596         
2.16514         
2.17431         
2.18349         
2.19266         
2.20183         
2.21101         
2.22018         
2.22936         
2.23853         
2.24771         
2.25688         
2.26606         
2.27523         
2.2844          
2.29358         
2.30275         
2.31193         
2.3211          
2.33028         
2.33945         
2.34862         
2.3578          
2.36697         
2.37615         
2.38532         
2.3945          
2.40367         
2.41284         
2.42202         
2.43119         
2.44037         
2.44954         
2.45872         
2.46789         
2.47706         
2.48624         
2.49541         
2.50459         
2.51376         
2.52294         
2.53211         
2.54128         
2.55046         
2.55963         
2.56881         
2.57798         
2.58716         
2.59633         
2.6055          
2.61468         
2.62385         
2.63303         
2.6422          
2.65138         
2.66055         
2.66972         
2.6789          
2.68807         
2.69725         
2.70642         
2.7156          
2.72477         
2.73394         
2.74312         
2.75229         
2.76147         
2.77064         
2.77982         
2.78899         
2.79817         
2.80734         
2.81651         
2.82569         
2.83486         
2.84404         
2.85321         
2.86239         
2.87156         
2.88073         
2.88991         
2.89908         
2.90826         
2.91743         
2.92661         
2.93578         
2.94495         
2.95413         
2.9633          
2.97248         
2.98165         
2.99083         
3               
3.00917         
3.01835         
3.02752         
3.0367          
3.04587         
3.05505         
3.06422         
3.07339         
3.08257         
3.09174         
3.10092         
3.11009         
3.11927         
3.12844         
3.13761         
3.14679         
3.15596         
3.16514         
3.17431         
3.18349         
3.19266         
3.20183         
3.21101         
3.22018         
3.22936         
3.23853         
3.24771         
3.25688         
3.26606         
3.27523         
3.2844          
3.29358         
3.30275         
3.31193         
3.3211          
3.33028         
3.33945         
3.34862         
3.3578          
3.36697         
3.37615         
3.38532         
3.3945          
3.40367         
3.41284         
3.42202         
3.43119         
3.44037         
3.44954         
3.45872         
3.46789         
3.47706         
3.48624         
3.49541         
3.50459         
3.51376         
3.52294         
3.53211         
3.54128         
3.55046         
3.55963         
3.56881         
3.57798         
3.58716         
3.59633         
3.6055          
3.61468         
3.62385         
3.63303         
3.6422          
3.65138         
3.66055         
3.66972         
3.6789          
3.68807         
3.69725         
3.70642         
3.7156          
3.72477         
3.73394         
3.74312         
3.75229         
3.76147         
3.77064         
3.77982         
3.78899         
3.79817         
3.80734         
3.81651         
3.82569         
3.83486         
3.84404         
3.85321         
3.86239         
3.87156         
3.88073         
3.88991         
3.89908         
3.90826         
3.91743         
3.92661         
3.93578         
3.94495         
3.95413         
3.9633          
3.97248         
3.98165         
3.99083         
4               
4.00926         
4.01852         
4.02778         
4.03704         
4.0463          
4.05556         
4.06481         
4.07407         
4.08333         
4.09259         
4.10185         
4.11111         
4.12037         
4.12963         
4.13889         
4.14815         
4.15741         
4.16667         
4.17593         
4.18519         
4.19444         
4.2037          
4.21296         
4.22222         
4.23148         
4.24074         
4.25            
4.25926         
4.26852         
4.27778         
4.28704         
4.2963          
4.30556         
4.31481         
4.32407         
4.33333         
4.34259         
4.35185         
4.36111         
4.37037         
4.37963         
4.38889         
4.39815         
4.40741         
4.41667         
4.42593         
4.43519         
4.44444         
4.4537          
4.46296         
4.47222         
4.48148         
4.49074         
4.5             
4.50926         
4.51852         
4.52778         
4.53704         
4.5463          
4.55556         
4.56481         
4.57407         
4.58333         
4.59259         
4.60185         
4.61111         
4.62037         
4.62963         
4.63889         
4.64815         
4.65741         
4.66667         
4.67593         
4.68519         
4.69444         
4.7037          
4.71296         
4.72222         
4.73148         
4.74074         
4.75            
4.75926         
4.76852         
4.77778         
4.78704         
4.7963          
4.80556         
4.81481         
4.82407         
4.83333         
4.84259         
4.85185         
4.86111         
4.87037         
4.87963         
4.88889         
4.89815         
4.90741         
4.91667         
4.92593         
4.93519         
4.94444         
4.9537          
4.96296         
4.97222         
4.98148         
4.99074         
5               
5.00926         
5.01852         
5.02778         
5.03704         
5.0463          
5.05556         
5.06481         
5.07407         
5.08333         
5.09259         
5.10185         
5.11111         
5.12037         
5.12963         
5.13889         
5.14815         
5.15741         
5.16667         
5.17593         
5.18519         
5.19444         
5.2037          
5.21296         
5.22222         
5.23148         
5.24074         
5.25            
5.25926         
5.26852         
5.27778         
5.28704         
5.2963          
5.30556         
5.31481         
5.32407         
5.33333         
5.34259         
5.35185         
5.36111         
5.37037         
5.37963         
5.38889         
5.39815         
5.40741         
5.41667         
5.42593         
5.43519         
5.44444         
5.4537          
5.46296         
5.47222         
5.48148         
5.49074         
5.5             
5.50926         
5.51852         
5.52778         
5.53704         
5.5463          
5.55556         
5.56481         
5.57407         
5.58333         
5.59259         
5.60185         
5.61111         
5.62037         
5.62963         
5.63889         
5.64815         
5.65741         
5.66667         
5.67593         
5.68519         
5.69444         
5.7037          
5.71296         
5.72222         
5.73148         
5.74074         
5.75            
5.75926         
5.76852         
5.77778         
5.78704         
5.7963          
5.80556         
5.81481         
5.82407         
5.83333         
5.84259         
5.85185         
5.86111         
5.87037         
5.87963         
5.88889         
5.89815         
5.90741         
5.91667         
5.92593         
5.93519         
5.94444         
5.9537          
5.96296         
5.97222         
5.98148         
5.99074         
6               
6.00926         
6.01852         
6.02778         
6.03704         
6.0463          
6.05556         
6.06481         
6.07407         
6.08333         
6.09259         
6.10185         
6.11111         
6.12037         
6.12963         
6.13889         
6.14815         
6.15741         
6.16667         
6.17593         
6.18519         
6.19444         
6.2037          
6.21296         
6.22222         
6.23148         
6.24074         
6.25            
6.25926         
6.26852         
6.27778         
6.28704         
6.2963          
6.30556         
6.31481         
6.32407         
6.33333         
6.34259         
6.35185         
6.36111         
6.37037         
6.37963         
6.38889         
6.39815         
6.40741         
6.41667         
6.42593         
6.43519         
6.44444         
6.4537          
6.46296         
6.47222         
6.48148         
6.49074         
6.5             
6.50926         
6.51852         
6.52778         
6.53704         
6.5463          
6.55556         
6.56481         
6.57407         
6.58333         
6.59259         
6.60185         
6.61111         
6.62037         
6.62963         
6.63889         
6.64815         
6.65741         
6.66667         
6.67593         
6.68519         
6.69444         
6.7037          
6.71296         
6.72222         
6.73148         
6.74074         
6.75            
6.75926         
6.76852         
6.77778         
6.78704         
6.7963          
6.80556         
6.81481         
6.82407         
6.83333         
6.84259         
6.85185         
6.86111         
6.87037         
6.87963         
6.88889         
6.89815         
6.90741         
6.91667         
6.92593         
6.93519         
6.94444         
6.9537          
6.96296         
6.97222         
6.98148         
6.99074         
7               
7.00926         
7.01852         
7.02778         
7.03704         
7.0463          
7.05556         
7.06481         
7.07407         
7.08333         
7.09259         
7.10185         
7.11111         
7.12037         
7.12963         
7.13889         
7.14815         
7.15741         
7.16667         
7.17593         
7.18519         
7.19444         
7.2037          
7.21296         
7.22222         
7.23148         
7.24074         
7.25            
7.25926         
7.26852         
7.27778         
7.28704         
7.2963          
7.30556         
7.31481         
7.32407         
7.33333         
7.34259         
7.35185         
7.36111         
7.37037         
7.37963         
7.38889         
7.39815         
7.40741         
7.41667         
7.42593         
7.43519         
7.44444         
7.4537          
7.46296         
7.47222         
7.48148         
7.49074         
7.5             
7.50926         
7.51852         
7.52778         
7.53704         
7.5463          
7.55556         
7.56481         
7.57407         
7.58333         
7.59259         
7.60185         
7.61111         
7.62037         
7.62963         
7.63889         
7.64815         
7.65741         
7.66667         
7.67593         
7.68519         
7.69444         
7.7037          
7.71296         
7.72222         
7.73148         
7.74074         
7.75            
7.75926         
7.76852         
7.77778         
7.78704         
7.7963          
7.80556         
7.81481         
7.82407         
7.83333         
7.84259         
7.85185         
7.86111         
7.87037         
7.87963         
7.88889         
7.89815         
7.90741         
7.91667         
7.92593         
7.93519         
7.94444         
7.9537          
7.96296         
7.97222         
7.98148         
7.99074         
8               
8.00935         
8.01869         
8.02804         
8.03738         
8.04673         
8.05607         
8.06542         
8.07477         
8.08411         
8.09346         
8.1028          
8.11215         
8.1215          
8.13084         
8.14019         
8.14953         
8.15888         
8.16822         
8.17757         
8.18692         
8.19626         
8.20561         
8.21495         
8.2243          
8.23364         
8.24299         
8.25234         
8.26168         
8.27103         
8.28037         
8.28972         
8.29907         
8.30841         
8.31776         
8.3271          
8.33645         
8.34579         
8.35514         
8.36449         
8.37383         
8.38318         
8.39252         
8.40187         
8.41121         
8.42056         
8.42991         
8.43925         
8.4486          
8.45794         
8.46729         
8.47664         
8.48598         
8.49533         
8.50467         
8.51402         
8.52336         
8.53271         
8.54206         
8.5514          
8.56075         
8.57009         
8.57944         
8.58879         
8.59813         
8.60748         
8.61682         
8.62617         
8.63551         
8.64486         
8.65421         
8.66355         
8.6729          
8.68224         
8.69159         
8.70093         
8.71028         
8.71963         
8.72897         
8.73832         
8.74766         
8.75701         
8.76636         
8.7757          
8.78505         
8.79439         
8.80374         
8.81308         
8.82243         
8.83178         
8.84112         
8.85047         
8.85981         
8.86916         
8.8785          
8.88785         
8.8972          
8.90654         
8.91589         
8.92523         
8.93458         
8.94393         
8.95327         
8.96262         
8.97196         
8.98131         
8.99065         
9               
9.00935         
9.01869         
9.02804         
9.03738         
9.04673         
9.05607         
9.06542         
9.07477         
9.08411         
9.09346         
9.1028          
9.11215         
9.1215          
9.13084         
9.14019         
9.14953         
9.15888         
9.16822         
9.17757         
9.18692         
9.19626         
9.20561         
9.21495         
9.2243          
9.23364         
9.24299         
9.25234         
9.26168         
9.27103         
9.28037         
9.28972         
9.29907         
9.30841         
9.31776         
9.3271          
9.33645         
9.34579         
9.35514         
9.36449         
9.37383         
9.38318         
9.39252         
9.40187         
9.41121         
9.42056         
9.42991         
9.43925         
9.4486          
9.45794         
9.46729         
9.47664         
9.48598         
9.49533         
9.50467         
9.51402         
9.52336         
9.53271         
9.54206         
9.5514          
9.56075         
9.57009         
9.57944         
9.58879         
9.59813         
9.60748         
9.61682         
9.62617         
9.63551         
9.64486         
9.65421         
9.66355         
9.6729          
9.68224         
9.69159         
9.70093         
9.71028         
9.71963         
9.72897         
9.73832         
9.74766         
9.75701         
9.76636         
9.7757          
9.78505         
9.79439         
9.80374         
9.81308         
9.82243         
9.83178         
9.84112         
9.85047         
9.85981         
9.86916         
9.8785          
9.88785         
9.8972          
9.90654         
9.91589         
9.92523         
9.93458         
9.94393         
9.95327         
9.96262         
9.97196         
9.98131         
9.99065         
10              
