0 	1.3365949 	0.012131593 	0 	0.00079778536 	0 	0 	0
0.0001001001 	1.2807481 	0.011918778 	1.5928109e-06 	0.00079781581 	0.020777972 	1.6107545e-06 	-4.500072e-20
0.0002002002 	1.2249013 	0.011705963 	3.1856218e-06 	0.00079784626 	0.041555944 	3.2215091e-06 	-9.000144e-20
0.0003003003 	1.1690546 	0.011493148 	4.7784328e-06 	0.00079787671 	0.062333916 	4.8322636e-06 	-1.3500216e-19
0.0004004004 	1.112868 	0.011279605 	6.3749159e-06 	0.00079790651 	0.083184996 	6.1749732e-06 	-1.6238182e-19
0.0005005005 	1.0563036 	0.011065254 	7.9754835e-06 	0.00079793561 	0.10411739 	7.2195441e-06 	-1.7016208e-19
0.0006006006 	0.99973912 	0.010850902 	9.5760511e-06 	0.0007979647 	0.12504979 	8.2641151e-06 	-1.7794234e-19
0.0007007007 	0.94317466 	0.010636551 	1.1176619e-05 	0.00079799379 	0.14598219 	9.308686e-06 	-1.857226e-19
0.0008008008 	0.8866102 	0.0104222 	1.2777186e-05 	0.00079802289 	0.16691458 	1.0353257e-05 	-1.9350286e-19
0.0009009009 	0.8217954 	0.01027306 	1.4160066e-05 	0.00079810678 	0.17933066 	1.2648699e-05 	-1.5044858e-19
0.001001001 	0.75693679 	0.010124267 	1.554179e-05 	0.00079819096 	0.19170151 	1.4950784e-05 	-1.0712434e-19
0.0011011011 	0.69207819 	0.0099754741 	1.6923514e-05 	0.00079827513 	0.20407236 	1.7252868e-05 	-6.3800094e-20
0.0012012012 	0.62692828 	0.0098262403 	1.8307066e-05 	0.00079836117 	0.21646776 	1.9449029e-05 	-3.3018031e-20
0.0013013013 	0.56123832 	0.0096761897 	1.9694007e-05 	0.00079845064 	0.22890866 	2.1448806e-05 	-2.5489166e-20
0.0014014014 	0.49554836 	0.0095261391 	2.1080948e-05 	0.00079854011 	0.24134956 	2.3448582e-05 	-1.7960301e-20
0.0015015015 	0.4298584 	0.0093760885 	2.2467889e-05 	0.00079862959 	0.25379046 	2.5448359e-05 	-1.0431437e-20
0.0016016016 	0.36416845 	0.0092260378 	2.3854829e-05 	0.00079871906 	0.26623136 	2.7448136e-05 	-2.9025721e-21
0.0017017017 	0.33531176 	0.0092583797 	2.5850425e-05 	0.00079883799 	0.27588228 	3.0125879e-05 	-6.8928619e-22
0.0018018018 	0.32062822 	0.0093609047 	2.8080227e-05 	0.00079896825 	0.28445964 	3.3064499e-05 	-5.2139412e-22
0.0019019019 	0.30594469 	0.0094634297 	3.0310029e-05 	0.00079909851 	0.29303701 	3.6003119e-05 	-3.5350205e-22
0.002002002 	0.29126116 	0.0095659547 	3.253983e-05 	0.00079922878 	0.30161437 	3.8941739e-05 	-1.8560998e-22
0.0021021021 	0.27639778 	0.0096686997 	3.4772765e-05 	0.00079937599 	0.31023578 	4.1732267e-05 	-1.782412e-22
0.0022022022 	0.26152614 	0.0097714548 	3.7005844e-05 	0.00079952399 	0.31885921 	4.4515997e-05 	-1.782412e-22
0.0023023023 	0.2466545 	0.0098742099 	3.9238923e-05 	0.00079967198 	0.32748265 	4.7299727e-05 	-1.782412e-22
0.0024024024 	0.23178286 	0.009976965 	4.1472001e-05 	0.00079981997 	0.33610608 	5.0083458e-05 	-1.782412e-22
0.0025025025 	0.21839002 	0.010074823 	4.373981e-05 	0.00079997141 	0.34426812 	5.2959356e-05 	-1.4214606e-22
0.0026026026 	0.21205095 	0.010149325 	4.6173277e-05 	0.00080013925 	0.35022936 	5.6274892e-05 	6.6120579e-23
0.0027027027 	0.20571188 	0.010223826 	4.8606744e-05 	0.00080030709 	0.3561906 	5.9590429e-05 	2.7438721e-22
0.0028028028 	0.19937281 	0.010298327 	5.1040211e-05 	0.00080047494 	0.36215183 	6.2905965e-05 	4.8265385e-22
0.0029029029 	0.1930101 	0.010372802 	5.3473386e-05 	0.00080064965 	0.36812261 	6.6223328e-05 	1.1021534e-21
0.003003003 	0.18658708 	0.010447209 	5.5905816e-05 	0.00080084192 	0.37411775 	6.9545353e-05 	2.7710705e-21
0.0031031031 	0.18016406 	0.010521616 	5.8338245e-05 	0.00080103419 	0.38011288 	7.2867378e-05 	4.4399876e-21
0.0032032032 	0.17374104 	0.010596022 	6.0770674e-05 	0.00080122646 	0.38610801 	7.6189403e-05 	6.1089048e-21
0.0033033033 	0.16731802 	0.010670429 	6.3203104e-05 	0.00080141872 	0.39210314 	7.9511428e-05 	7.7778219e-21
0.0034034034 	0.16185667 	0.01073506 	6.5631695e-05 	0.00080161119 	0.39758367 	8.2944623e-05 	9.8722475e-21
0.0035035035 	0.15827009 	0.010780635 	6.8052802e-05 	0.00080180406 	0.40206097 	8.6594542e-05 	1.2796202e-20
0.0036036036 	0.15468351 	0.010826209 	7.047391e-05 	0.00080199693 	0.40653826 	9.0244461e-05 	1.5720157e-20
0.0037037037 	0.15109693 	0.010871784 	7.2895018e-05 	0.00080218979 	0.41101556 	9.389438e-05 	1.8644111e-20
0.0038038038 	0.14749521 	0.010917276 	7.5314544e-05 	0.00080239123 	0.41550168 	9.7581363e-05 	2.1617845e-20
0.0039039039 	0.14386091 	0.01096259 	7.7730669e-05 	0.00080261112 	0.42000678 	0.00010134809 	2.4698673e-20
0.004004004 	0.14022661 	0.011007904 	8.0146794e-05 	0.00080283101 	0.42451189 	0.00010511481 	2.7779502e-20
0.0041041041 	0.13659231 	0.011053218 	8.2562919e-05 	0.0008030509 	0.42901699 	0.00010888153 	3.0860331e-20
0.0042042042 	0.13295801 	0.011098532 	8.4979044e-05 	0.00080327079 	0.43352209 	0.00011264825 	3.3941159e-20
0.0043043043 	0.12960301 	0.011140238 	8.7380706e-05 	0.00080348856 	0.43783139 	0.00011645417 	3.6935165e-20
0.0044044044 	0.12730008 	0.011168353 	8.9727887e-05 	0.00080369839 	0.44140311 	0.0001204077 	3.9602124e-20
0.0045045045 	0.12499716 	0.011196467 	9.2075068e-05 	0.00080390822 	0.44497484 	0.00012436123 	4.2269083e-20
0.0046046046 	0.12269423 	0.011224581 	9.442225e-05 	0.00080411804 	0.44854656 	0.00012831477 	4.4936042e-20
0.0047047047 	0.12038965 	0.011252676 	9.676896e-05 	0.00080432933 	0.45211959 	0.00013227888 	4.751895e-20
0.0048048048 	0.11805609 	0.011280437 	9.9107384e-05 	0.00080456626 	0.45571543 	0.00013642911 	4.8622805e-20
0.0049049049 	0.11572253 	0.011308198 	0.00010144581 	0.0008048032 	0.45931127 	0.00014057935 	4.972666e-20
0.005005005 	0.11338898 	0.011335959 	0.00010378423 	0.00080504013 	0.46290711 	0.00014472958 	5.0830514e-20
0.0051051051 	0.11105542 	0.01136372 	0.00010612266 	0.00080527707 	0.46650295 	0.00014887981 	5.1934369e-20
0.0052052052 	0.10872186 	0.011391481 	0.00010846108 	0.000805514 	0.47009879 	0.00015303004 	5.3038224e-20
0.0053053053 	0.10696084 	0.011411108 	0.00011073134 	0.00080574054 	0.47320887 	0.00015724317 	5.1007235e-20
0.0054054054 	0.10536538 	0.011428382 	0.00011298188 	0.00080596407 	0.47617848 	0.00016147447 	4.8069731e-20
0.0055055055 	0.10376992 	0.011445656 	0.00011523242 	0.0008061876 	0.47914808 	0.00016570578 	4.5132226e-20
0.0056056056 	0.10217447 	0.01146293 	0.00011748296 	0.00080641113 	0.48211769 	0.00016993709 	4.2194722e-20
0.0057057057 	0.1005688 	0.011480004 	0.00011972751 	0.00080664685 	0.48509771 	0.00017429319 	3.9025104e-20
0.0058058058 	0.098952096 	0.011496862 	0.00012196558 	0.00080689573 	0.48808897 	0.00017878399 	3.5604941e-20
0.0059059059 	0.097335396 	0.011513721 	0.00012420365 	0.00080714461 	0.49108024 	0.0001832748 	3.2184778e-20
0.006006006 	0.095718697 	0.011530579 	0.00012644172 	0.00080739349 	0.4940715 	0.00018776561 	2.8764614e-20
0.0061061061 	0.094101997 	0.011547437 	0.00012867979 	0.00080764236 	0.49706276 	0.00019225641 	2.5344451e-20
0.0062062062 	0.092497332 	0.011564116 	0.00013091534 	0.00080789089 	0.50004209 	0.0001967473 	2.2006266e-20
0.0063063063 	0.091333331 	0.011574221 	0.00013305875 	0.00080812655 	0.50258448 	0.00020124102 	2.1669884e-20
0.0064064064 	0.090169329 	0.011584326 	0.00013520215 	0.00080836221 	0.50512687 	0.00020573475 	2.1333502e-20
0.0065065065 	0.089005327 	0.011594431 	0.00013734556 	0.00080859787 	0.50766926 	0.00021022848 	2.099712e-20
0.0066066066 	0.087841325 	0.011604536 	0.00013948896 	0.00080883354 	0.51021166 	0.0002147222 	2.0660738e-20
0.0067067067 	0.08666817 	0.011614368 	0.00014162286 	0.0008090821 	0.51276577 	0.00021939969 	2.0324378e-20
0.0068068068 	0.085488611 	0.011624008 	0.0001437501 	0.00080933969 	0.51532808 	0.00022420574 	1.9988033e-20
0.0069069069 	0.084309052 	0.011633649 	0.00014587735 	0.00080959728 	0.51789038 	0.00022901178 	1.9651689e-20
0.007007007 	0.083129493 	0.01164329 	0.00014800459 	0.00080985487 	0.52045269 	0.00023381782 	1.9315344e-20
0.0071071071 	0.081949934 	0.011652931 	0.00015013184 	0.00081011246 	0.523015 	0.00023862386 	1.8979e-20
0.0072072072 	0.080770375 	0.011662572 	0.00015225908 	0.00081037006 	0.52557731 	0.00024342991 	1.8642655e-20
0.0073073073 	0.079874081 	0.011667871 	0.00015429422 	0.00081061728 	0.52781789 	0.00024818014 	1.8673054e-20
0.0074074074 	0.078992087 	0.01167295 	0.00015632472 	0.00081086398 	0.53004223 	0.00025292756 	1.8721967e-20
0.0075075075 	0.078110092 	0.011678029 	0.00015835521 	0.00081111068 	0.53226658 	0.00025767498 	1.8770879e-20
0.0076076076 	0.077228098 	0.011683109 	0.0001603857 	0.00081135738 	0.53449092 	0.0002624224 	1.8819792e-20
0.0077077077 	0.076341762 	0.011688003 	0.00016240894 	0.00081161027 	0.53672208 	0.00026730102 	1.9034035e-20
0.0078078078 	0.075447891 	0.011692578 	0.00016441959 	0.00081187393 	0.53896507 	0.00027240737 	1.9535221e-20
0.0079079079 	0.074554021 	0.011697152 	0.00016643025 	0.00081213759 	0.54120806 	0.00027751371 	2.0036406e-20
0.008008008 	0.07366015 	0.011701726 	0.00016844091 	0.00081240124 	0.54345104 	0.00028262006 	2.0537592e-20
0.0081081081 	0.07276628 	0.0117063 	0.00017045156 	0.0008126649 	0.54569403 	0.0002877264 	2.1038777e-20
0.0082082082 	0.071872409 	0.011710875 	0.00017246222 	0.00081292856 	0.54793702 	0.00029283275 	2.1539962e-20
0.0083083083 	0.071089858 	0.011713719 	0.00017442056 	0.00081318859 	0.5500371 	0.00029787953 	1.8593342e-20
0.0084084084 	0.070401791 	0.011715094 	0.00017633449 	0.00081344554 	0.55201589 	0.00030287576 	1.2720341e-20
0.0085085085 	0.069713725 	0.01171647 	0.00017824842 	0.00081370249 	0.55399467 	0.00030787199 	6.8473387e-21
0.0086086086 	0.069025658 	0.011717845 	0.00018016235 	0.00081395944 	0.55597345 	0.00031286822 	9.7433679e-22
0.0087087087 	0.068337591 	0.011719221 	0.00018207628 	0.00081421639 	0.55795224 	0.00031786445 	-4.8986651e-21
0.0088088088 	0.06764201 	0.011720161 	0.00018397138 	0.00081448174 	0.55994521 	0.0003231825 	-1.0692183e-20
0.0089089089 	0.066944566 	0.011720994 	0.00018586182 	0.00081474918 	0.56194169 	0.00032858032 	-1.6465999e-20
0.009009009 	0.066247122 	0.011721827 	0.00018775225 	0.00081501661 	0.56393817 	0.00033397814 	-2.2239815e-20
0.0091091091 	0.065549677 	0.01172266 	0.00018964269 	0.00081528405 	0.56593466 	0.00033937596 	-2.8013631e-20
0.0092092092 	0.064852233 	0.011723493 	0.00019153313 	0.00081555149 	0.56793114 	0.00034477377 	-3.3787447e-20
0.0093093093 	0.064154789 	0.011724326 	0.00019342356 	0.00081581892 	0.56992762 	0.00035017159 	-3.9561264e-20
0.0094094094 	0.063573131 	0.011723353 	0.00019523921 	0.00081608576 	0.5717577 	0.00035544819 	-4.3601644e-20
0.0095095095 	0.063023708 	0.011721879 	0.00019703403 	0.00081635244 	0.57354145 	0.00036069104 	-4.7159422e-20
0.0096096096 	0.062474286 	0.011720404 	0.00019882885 	0.00081661911 	0.5753252 	0.00036593389 	-5.07172e-20
0.0097097097 	0.061924863 	0.011718929 	0.00020062368 	0.00081688579 	0.57710895 	0.00037117674 	-5.4274978e-20
0.0098098098 	0.06137544 	0.011717454 	0.0002024185 	0.00081715246 	0.5788927 	0.00037641959 	-5.7832757e-20
0.0099099099 	0.060819276 	0.011715468 	0.00020418933 	0.00081742137 	0.58069147 	0.00038205316 	-6.1744994e-20
0.01001001 	0.060262232 	0.011713414 	0.00020595702 	0.00081769057 	0.5824922 	0.00038773779 	-6.5703548e-20
0.01011011 	0.059705187 	0.011711361 	0.00020772471 	0.00081795977 	0.58429294 	0.00039342242 	-6.9662102e-20
0.01021021 	0.059148142 	0.011709307 	0.0002094924 	0.00081822897 	0.58609367 	0.00039910704 	-7.3620656e-20
0.01031031 	0.058591097 	0.011707253 	0.00021126009 	0.00081849818 	0.5878944 	0.00040479167 	-7.757921e-20
0.01041041 	0.058034052 	0.0117052 	0.00021302778 	0.00081876738 	0.58969513 	0.0004104763 	-8.1537764e-20
0.010510511 	0.057549968 	0.011702018 	0.0002147331 	0.00081904114 	0.59137933 	0.00041603123 	-8.053894e-20
0.010610611 	0.057102754 	0.011698265 	0.00021640691 	0.0008193172 	0.59300464 	0.00042152062 	-7.7034949e-20
0.010710711 	0.056655539 	0.011694512 	0.00021808072 	0.00081959327 	0.59462995 	0.00042701002 	-7.3530958e-20
0.010810811 	0.056208325 	0.01169076 	0.00021975453 	0.00081986933 	0.59625526 	0.00043249941 	-7.0026968e-20
0.010910911 	0.055761111 	0.011687007 	0.00022142834 	0.0008201454 	0.59788057 	0.0004379888 	-6.6522977e-20
0.011011011 	0.055310062 	0.011682883 	0.00022308362 	0.00082041728 	0.59951579 	0.00044376793 	-6.3477541e-20
0.011111111 	0.054856489 	0.011678515 	0.00022472669 	0.00082068639 	0.60115754 	0.00044973785 	-6.0734045e-20
0.011211211 	0.054402916 	0.011674147 	0.00022636976 	0.00082095551 	0.60279929 	0.00045570776 	-5.7990549e-20
0.011311311 	0.053949343 	0.01166978 	0.00022801283 	0.00082122463 	0.60444104 	0.00046167767 	-5.5247053e-20
0.011411411 	0.053495771 	0.011665412 	0.0002296559 	0.00082149375 	0.60608278 	0.00046764758 	-5.2503557e-20
0.011511512 	0.053042198 	0.011661044 	0.00023129897 	0.00082176287 	0.60772453 	0.0004736175 	-4.9760061e-20
0.011611612 	0.052603266 	0.011656454 	0.00023292596 	0.00082203481 	0.60934044 	0.00047954672 	-4.6337411e-20
0.011711712 	0.052233287 	0.011650818 	0.00023447727 	0.00082232007 	0.61083465 	0.0004852843 	-3.9716149e-20
0.011811812 	0.051863309 	0.011645183 	0.00023602858 	0.00082260533 	0.61232887 	0.00049102189 	-3.3094888e-20
0.011911912 	0.051493331 	0.011639547 	0.0002375799 	0.00082289059 	0.61382309 	0.00049675947 	-2.6473626e-20
0.012012012 	0.051123353 	0.011633911 	0.00023913121 	0.00082317585 	0.6153173 	0.00050249705 	-1.9852364e-20
0.012112112 	0.050753375 	0.011628276 	0.00024068252 	0.0008234611 	0.61681152 	0.00050823464 	-1.3231103e-20
0.012212212 	0.050378264 	0.011622024 	0.00024220141 	0.00082372937 	0.61832087 	0.00051446214 	-6.6061852e-21
0.012312312 	0.050002852 	0.011615736 	0.00024371842 	0.00082399664 	0.61983111 	0.00052071826 	1.8945921e-23
0.012412412 	0.049627441 	0.011609448 	0.00024523542 	0.00082426391 	0.62134135 	0.00052697438 	6.6440771e-21
0.012512513 	0.049252029 	0.011603159 	0.00024675243 	0.00082453119 	0.62285158 	0.0005332305 	1.3269208e-20
0.012612613 	0.048876617 	0.011596871 	0.00024826943 	0.00082479846 	0.62436182 	0.00053948662 	1.9894339e-20
0.012712713 	0.048501206 	0.011590583 	0.00024978644 	0.00082506573 	0.62587206 	0.00054574274 	2.6519471e-20
0.012812813 	0.048145445 	0.011584007 	0.00025127642 	0.00082534119 	0.62734415 	0.00055191806 	3.1170025e-20
0.012912913 	0.04783503 	0.011576768 	0.00025270405 	0.00082563555 	0.62872824 	0.00055790692 	3.1264278e-20
0.013013013 	0.047524614 	0.011569528 	0.00025413168 	0.00082592991 	0.63011233 	0.00056389579 	3.1358531e-20
0.013113113 	0.047214198 	0.011562288 	0.00025555931 	0.00082622428 	0.63149642 	0.00056988465 	3.1452784e-20
0.013213213 	0.046903783 	0.011555049 	0.00025698694 	0.00082651864 	0.63288051 	0.00057587351 	3.1547037e-20
0.013313313 	0.046593367 	0.011547809 	0.00025841457 	0.000826813 	0.6342646 	0.00058186238 	3.164129e-20
0.013413413 	0.046278689 	0.011539949 	0.00025980827 	0.00082707984 	0.63566278 	0.00058835049 	3.2296723e-20
0.013513514 	0.045963523 	0.011532018 	0.00026119809 	0.00082734353 	0.63706257 	0.00059489571 	3.3016342e-20
0.013613614 	0.045648358 	0.011524087 	0.00026258791 	0.00082760722 	0.63846237 	0.00060144092 	3.3735961e-20
0.013713714 	0.045333192 	0.011516156 	0.00026397772 	0.00082787091 	0.63986216 	0.00060798614 	3.445558e-20
0.013813814 	0.045018027 	0.011508225 	0.00026536754 	0.0008281346 	0.64126195 	0.00061453136 	3.5175199e-20
0.013913914 	0.044702861 	0.011500294 	0.00026675736 	0.00082839829 	0.64266175 	0.00062107657 	3.5894818e-20
0.014014014 	0.044389399 	0.011492339 	0.0002681443 	0.0008286633 	0.64405792 	0.00062761183 	3.649227e-20
0.014114114 	0.044125696 	0.011483696 	0.00026944732 	0.00082896676 	0.6453483 	0.00063385629 	3.352146e-20
0.014214214 	0.043861992 	0.011475052 	0.00027075034 	0.00082927021 	0.64663869 	0.00064010075 	3.0550649e-20
0.014314314 	0.043598289 	0.011466408 	0.00027205336 	0.00082957367 	0.64792907 	0.00064634521 	2.7579839e-20
0.014414414 	0.043334585 	0.011457764 	0.00027335638 	0.00082987713 	0.64921946 	0.00065258967 	2.4609029e-20
0.014514515 	0.043070882 	0.011449121 	0.0002746594 	0.00083018058 	0.65050985 	0.00065883412 	2.1638219e-20
0.014614615 	0.042805279 	0.011440149 	0.00027594395 	0.00083046386 	0.65180715 	0.00066534464 	1.8615817e-20
0.014714715 	0.042537332 	0.011430773 	0.00027720572 	0.00083072223 	0.65311301 	0.00067218344 	1.5529757e-20
0.014814815 	0.042269385 	0.011421397 	0.00027846749 	0.0008309806 	0.65441886 	0.00067902224 	1.2443696e-20
0.014914915 	0.042001438 	0.011412021 	0.00027972926 	0.00083123897 	0.65572471 	0.00068586105 	9.3576349e-21
0.015015015 	0.041733491 	0.011402645 	0.00028099103 	0.00083149734 	0.65703056 	0.00069269985 	6.2715741e-21
0.015115115 	0.041465544 	0.011393269 	0.0002822528 	0.00083175571 	0.65833641 	0.00069953866 	3.1855133e-21
0.015215215 	0.041197597 	0.011383893 	0.00028351457 	0.00083201409 	0.65964227 	0.00070637746 	9.9452447e-23
0.015315315 	0.040944312 	0.011374331 	0.00028474656 	0.00083229167 	0.66091409 	0.00071309819 	-1.8935864e-21
0.015415415 	0.040717761 	0.011364427 	0.00028592425 	0.00083260428 	0.66212388 	0.00071960362 	-1.8935864e-21
0.015515516 	0.04049121 	0.011354524 	0.00028710194 	0.0008329169 	0.66333366 	0.00072610905 	-1.8935864e-21
0.015615616 	0.040264659 	0.011344621 	0.00028827964 	0.00083322952 	0.66454344 	0.00073261447 	-1.8935863e-21
0.015715716 	0.040038109 	0.011334718 	0.00028945733 	0.00083354213 	0.66575323 	0.0007391199 	-1.8935863e-21
0.015815816 	0.039811558 	0.011324815 	0.00029063502 	0.00083385475 	0.66696301 	0.00074562533 	-1.8935863e-21
0.015915916 	0.039582753 	0.01131446 	0.00029178674 	0.00083413165 	0.66818169 	0.00075249918 	-1.8935863e-21
0.016016016 	0.039352332 	0.011303782 	0.00029291983 	0.00083438292 	0.66940676 	0.0007596374 	-1.8935864e-21
0.016116116 	0.039121911 	0.011293103 	0.00029405293 	0.00083463419 	0.67063183 	0.00076677562 	-1.8935864e-21
0.016216216 	0.03889149 	0.011282425 	0.00029518602 	0.00083488547 	0.67185691 	0.00077391384 	-1.8935864e-21
0.016316316 	0.038661068 	0.011271746 	0.00029631911 	0.00083513674 	0.67308198 	0.00078105206 	-1.8935864e-21
0.016416416 	0.038430647 	0.011261068 	0.0002974522 	0.00083538801 	0.67430705 	0.00078819028 	-1.8935864e-21
0.016516517 	0.038200226 	0.011250389 	0.00029858529 	0.00083563929 	0.67553212 	0.0007953285 	-1.8935865e-21
0.016616617 	0.037978311 	0.011239615 	0.00029969792 	0.00083590835 	0.67673571 	0.00080237464 	-1.9194668e-21
0.016716717 	0.037781659 	0.011228558 	0.00030074976 	0.00083623025 	0.6778755 	0.00080914734 	-2.0222095e-21
0.016816817 	0.037585007 	0.011217501 	0.0003018016 	0.00083655216 	0.6790153 	0.00081592004 	-2.1249523e-21
0.016916917 	0.037388354 	0.011206443 	0.00030285344 	0.00083687406 	0.68015509 	0.00082269273 	-2.2276951e-21
0.017017017 	0.037191702 	0.011195386 	0.00030390528 	0.00083719596 	0.68129488 	0.00082946543 	-2.3304378e-21
0.017117117 	0.03699505 	0.011184328 	0.00030495712 	0.00083751787 	0.68243468 	0.00083623812 	-2.4331806e-21
0.017217217 	0.036797364 	0.011173035 	0.00030599522 	0.00083781692 	0.68357882 	0.00084320378 	-2.4113889e-21
0.017317317 	0.036597112 	0.011161157 	0.00030699921 	0.00083805926 	0.68473377 	0.00085064836 	-2.0805128e-21
0.017417417 	0.03639686 	0.011149278 	0.00030800321 	0.0008383016 	0.68588872 	0.00085809294 	-1.7496367e-21
0.017517518 	0.036196608 	0.0111374 	0.0003090072 	0.00083854394 	0.68704367 	0.00086553752 	-1.4187607e-21
0.017617618 	0.035996356 	0.011125522 	0.0003100112 	0.00083878627 	0.68819862 	0.0008729821 	-1.0878846e-21
0.017717718 	0.035796104 	0.011113644 	0.00031101519 	0.00083902861 	0.68935357 	0.00088042668 	-7.5700846e-22
0.017817818 	0.035595852 	0.011101766 	0.00031201919 	0.00083927095 	0.69050851 	0.00088787126 	-4.2613236e-22
0.017917918 	0.0353956 	0.011089887 	0.00031302318 	0.00083951329 	0.69166346 	0.00089531583 	-9.5256264e-23
0.018018018 	0.035215214 	0.011077826 	0.00031397139 	0.00083981903 	0.69276398 	0.00090247734 	0
0.018118118 	0.03504286 	0.01106569 	0.00031489704 	0.0008401504 	0.6938425 	0.0009095244 	0
0.018218218 	0.034870506 	0.011053554 	0.00031582269 	0.00084048177 	0.69492101 	0.00091657146 	0
0.018318318 	0.034698152 	0.011041418 	0.00031674834 	0.00084081314 	0.69599953 	0.00092361852 	0
0.018418418 	0.034525798 	0.011029282 	0.000317674 	0.00084114451 	0.69707804 	0.00093066558 	0
0.018518519 	0.034353444 	0.011017146 	0.00031859965 	0.00084147588 	0.69815656 	0.00093771264 	0
0.018618619 	0.034179221 	0.011004534 	0.00031949735 	0.00084175248 	0.69924333 	0.00094514991 	0
0.018718719 	0.034003457 	0.01099153 	0.00032037203 	0.00084198396 	0.7003369 	0.00095290871 	0
0.018818819 	0.033827694 	0.010978525 	0.00032124671 	0.00084221543 	0.70143047 	0.00096066752 	0
0.018918919 	0.03365193 	0.01096552 	0.00032212138 	0.00084244691 	0.70252404 	0.00096842632 	0
0.019019019 	0.033476167 	0.010952516 	0.00032299606 	0.00084267838 	0.70361761 	0.00097618512 	0
0.019119119 	0.033300403 	0.010939511 	0.00032387074 	0.00084290986 	0.70471117 	0.00098394393 	0
0.019219219 	0.03312464 	0.010926506 	0.00032474542 	0.00084314133 	0.70580474 	0.00099170273 	0
0.019319319 	0.032948876 	0.010913501 	0.00032562009 	0.00084337281 	0.70689831 	0.00099946153 	0
0.019419419 	0.032789906 	0.010900385 	0.00032644049 	0.0008436832 	0.70794211 	0.0010069109 	-9.4948435e-23
0.01951952 	0.03263746 	0.010887225 	0.00032723979 	0.00084402424 	0.70896658 	0.0010142401 	-2.2678168e-22
0.01961962 	0.032485013 	0.010874064 	0.0003280391 	0.00084436529 	0.70999104 	0.0010215692 	-3.5861493e-22
0.01971972 	0.032332567 	0.010860904 	0.0003288384 	0.00084470634 	0.71101551 	0.0010288984 	-4.9044818e-22
0.01981982 	0.032180121 	0.010847744 	0.00032963771 	0.00084504738 	0.71203997 	0.0010362275 	-6.2228143e-22
0.01991992 	0.032027674 	0.010834584 	0.00033043702 	0.00084538843 	0.71306444 	0.0010435567 	-7.5411467e-22
0.02002002 	0.031874077 	0.010821101 	0.0003312174 	0.00084568654 	0.71409415 	0.0010511496 	-8.3973579e-22
0.02012012 	0.031718347 	0.010807022 	0.00033196273 	0.0008459051 	0.71513359 	0.0010592312 	-8.3973579e-22
0.02022022 	0.031562618 	0.010792942 	0.00033270806 	0.00084612367 	0.71617303 	0.0010673128 	-8.3973579e-22
0.02032032 	0.031406888 	0.010778862 	0.0003334534 	0.00084634223 	0.71721248 	0.0010753944 	-8.3973579e-22
0.02042042 	0.031251159 	0.010764782 	0.00033419873 	0.00084656079 	0.71825192 	0.001083476 	-8.3973579e-22
0.020520521 	0.031095429 	0.010750703 	0.00033494406 	0.00084677936 	0.71929136 	0.0010915576 	-8.3973579e-22
0.020620621 	0.0309397 	0.010736623 	0.00033568939 	0.00084699792 	0.7203308 	0.0010996392 	-8.3973579e-22
0.020720721 	0.03078397 	0.010722543 	0.00033643472 	0.00084721648 	0.72137024 	0.0011077208 	-8.3973579e-22
0.020820821 	0.030633385 	0.010708446 	0.00033716116 	0.00084746962 	0.72239324 	0.0011156817 	-8.397358e-22
0.020920921 	0.030497358 	0.010694299 	0.00033783413 	0.00084782058 	0.72336971 	0.0011233012 	-8.3973581e-22
0.021021021 	0.03036133 	0.010680152 	0.00033850711 	0.00084817155 	0.72434617 	0.0011309206 	-8.3973582e-22
0.021121121 	0.030225303 	0.010666005 	0.00033918009 	0.00084852251 	0.72532264 	0.0011385401 	-8.3973583e-22
0.021221221 	0.030089275 	0.010651857 	0.00033985306 	0.00084887348 	0.72629911 	0.0011461595 	-8.3973583e-22
0.021321321 	0.029953247 	0.01063771 	0.00034052604 	0.00084922444 	0.72727558 	0.001153779 	-8.3973584e-22
0.021421421 	0.02981722 	0.010623563 	0.00034119902 	0.00084957541 	0.72825205 	0.0011613984 	-8.3973585e-22
0.021521522 	0.029679015 	0.010608756 	0.00034183342 	0.00084982627 	0.72923863 	0.0011695568 	-8.3973586e-22
0.021621622 	0.029539779 	0.010593636 	0.00034244956 	0.00085002975 	0.73023001 	0.0011779702 	-8.3973586e-22
0.021721722 	0.029400543 	0.010578516 	0.00034306571 	0.00085023324 	0.73122139 	0.0011863836 	-8.3973586e-22
0.021821822 	0.029261308 	0.010563396 	0.00034368185 	0.00085043672 	0.73221277 	0.0011947971 	-8.3973586e-22
0.021921922 	0.029122072 	0.010548276 	0.000344298 	0.00085064021 	0.73320415 	0.0012032105 	-8.3973586e-22
0.022022022 	0.028982836 	0.010533156 	0.00034491414 	0.00085084369 	0.73419553 	0.0012116239 	-8.3973586e-22
0.022122122 	0.028843601 	0.010518036 	0.00034553028 	0.00085104717 	0.73518691 	0.0012200373 	-8.3973586e-22
0.022222222 	0.028704365 	0.010502916 	0.00034614643 	0.00085125066 	0.73617829 	0.0012284508 	-8.3973586e-22
0.022322322 	0.028570499 	0.010487799 	0.00034674045 	0.00085150454 	0.73715122 	0.0012367062 	-7.5314568e-22
0.022422422 	0.028448084 	0.01047269 	0.00034728728 	0.00085186589 	0.7380848 	0.0012446247 	-4.818889e-22
0.022522523 	0.028325669 	0.01045758 	0.00034783412 	0.00085222725 	0.73901838 	0.0012525432 	-2.1063213e-22
0.022622623 	0.028203255 	0.010442471 	0.00034838096 	0.00085258861 	0.73995195 	0.0012604617 	6.0624651e-23
0.022722723 	0.02808084 	0.010427362 	0.00034892779 	0.00085294996 	0.74088553 	0.0012683801 	3.3188143e-22
0.022822823 	0.027958426 	0.010412252 	0.00034947463 	0.00085331132 	0.74181911 	0.0012762986 	6.031382e-22
0.022922923 	0.027836011 	0.010397143 	0.00035002146 	0.00085367268 	0.74275268 	0.0012842171 	8.7439498e-22
0.023023023 	0.027711955 	0.010381502 	0.00035053752 	0.00085394351 	0.74369394 	0.001292568 	6.4667448e-22
0.023123123 	0.027586365 	0.010365363 	0.00035102482 	0.00085412978 	0.74464237 	0.0013013228 	-4.7106992e-23
0.023223223 	0.027460776 	0.010349225 	0.00035151212 	0.00085431606 	0.7455908 	0.0013100776 	-7.4088847e-22
0.023323323 	0.027335186 	0.010333087 	0.00035199942 	0.00085450233 	0.74653923 	0.0013188324 	-1.4346699e-21
0.023423423 	0.027209596 	0.010316949 	0.00035248672 	0.00085468861 	0.74748766 	0.0013275872 	-2.1284514e-21
0.023523524 	0.027084007 	0.010300811 	0.00035297402 	0.00085487488 	0.74843608 	0.001336342 	-2.8222329e-21
0.023623624 	0.026958417 	0.010284672 	0.00035346132 	0.00085506116 	0.74938451 	0.0013450968 	-3.5160144e-21
0.023723724 	0.026832828 	0.010268534 	0.00035394862 	0.00085524743 	0.75033294 	0.0013538516 	-4.2097959e-21
0.023823824 	0.026707238 	0.010252396 	0.00035443592 	0.00085543371 	0.75128137 	0.0013626064 	-4.9035773e-21
0.023923924 	0.026594391 	0.010236329 	0.00035486503 	0.00085578379 	0.75218288 	0.0013708983 	-2.2405142e-21
0.024024024 	0.026483309 	0.010220272 	0.00035528609 	0.00085615655 	0.7530779 	0.0013791262 	8.8728453e-22
0.024124124 	0.026372226 	0.010204216 	0.00035570715 	0.00085652931 	0.75397292 	0.0013873541 	4.0150833e-21
0.024224224 	0.026261143 	0.010188159 	0.0003561282 	0.00085690206 	0.75486793 	0.001395582 	7.142882e-21
0.024324324 	0.02615006 	0.010172102 	0.00035654926 	0.00085727482 	0.75576295 	0.0014038099 	1.0270681e-20
0.024424424 	0.026038977 	0.010156045 	0.00035697032 	0.00085764758 	0.75665797 	0.0014120377 	1.3398479e-20
0.024524525 	0.025927895 	0.010139988 	0.00035739137 	0.00085802034 	0.75755298 	0.0014202656 	1.6526278e-20
0.024624625 	0.025814116 	0.010123008 	0.00035775972 	0.0008582186 	0.75846056 	0.00142924 	1.9057198e-20
0.024724725 	0.025699858 	0.010105864 	0.00035811871 	0.00085838584 	0.75937036 	0.0014383471 	2.148204e-20
0.024824825 	0.025585599 	0.01008872 	0.00035847769 	0.00085855309 	0.76028017 	0.0014474542 	2.3906881e-20
0.024924925 	0.025471341 	0.010071576 	0.00035883667 	0.00085872033 	0.76118997 	0.0014565613 	2.6331722e-20
0.025025025 	0.025357083 	0.010054433 	0.00035919566 	0.00085888758 	0.76209978 	0.0014656683 	2.8756564e-20
0.025125125 	0.025242825 	0.010037289 	0.00035955464 	0.00085905482 	0.76300958 	0.0014747754 	3.1181405e-20
0.025225225 	0.025128567 	0.010020145 	0.00035991362 	0.00085922206 	0.76391939 	0.0014838825 	3.3606246e-20
0.025325325 	0.025014309 	0.010003001 	0.0003602726 	0.00085938931 	0.7648292 	0.0014929896 	3.6031088e-20
0.025425425 	0.024900051 	0.0099858568 	0.00036063159 	0.00085955655 	0.765739 	0.0015020967 	3.8455929e-20
0.025525526 	0.024797442 	0.0099688483 	0.00036093233 	0.0008599238 	0.76660302 	0.0015106897 	3.8517507e-20
0.025625626 	0.02469582 	0.0099518514 	0.00036122814 	0.00086030796 	0.76746316 	0.0015192392 	3.8379099e-20
0.025725726 	0.024594197 	0.0099348544 	0.00036152395 	0.00086069213 	0.76832331 	0.0015277886 	3.8240691e-20
0.025825826 	0.024492574 	0.0099178574 	0.00036181976 	0.0008610763 	0.76918345 	0.0015363381 	3.8102284e-20
0.025925926 	0.024390951 	0.0099008604 	0.00036211557 	0.00086146046 	0.7700436 	0.0015448876 	3.7963876e-20
0.026026026 	0.024289329 	0.0098838635 	0.00036241138 	0.00086184463 	0.77090374 	0.0015534371 	3.7825468e-20
0.026126126 	0.024187706 	0.0098668665 	0.00036270719 	0.0008622288 	0.77176389 	0.0015619866 	3.768706e-20
0.026226226 	0.024083976 	0.0098491146 	0.0003629606 	0.0008624557 	0.77263371 	0.0015711429 	3.8067184e-20
0.026326326 	0.023979151 	0.0098309702 	0.00036319198 	0.00086260086 	0.77350856 	0.0015806147 	3.8716855e-20
0.026426426 	0.023874326 	0.0098128258 	0.00036342335 	0.00086274602 	0.77438342 	0.0015900864 	3.9366526e-20
0.026526527 	0.023769501 	0.0097946814 	0.00036365473 	0.00086289118 	0.77525827 	0.0015995582 	4.0016197e-20
0.026626627 	0.023664675 	0.0097765371 	0.0003638861 	0.00086303634 	0.77613313 	0.00160903 	4.0665868e-20
0.026726727 	0.02355985 	0.0097583927 	0.00036411747 	0.0008631815 	0.77700798 	0.0016185017 	4.1315539e-20
0.026826827 	0.023455025 	0.0097402483 	0.00036434885 	0.00086332666 	0.77788283 	0.0016279735 	4.196521e-20
0.026926927 	0.0233502 	0.0097221039 	0.00036458022 	0.00086347182 	0.77875769 	0.0016374453 	4.2614881e-20
0.027027027 	0.023245375 	0.0097039596 	0.0003648116 	0.00086361698 	0.77963254 	0.001646917 	4.3264552e-20
0.027127127 	0.023145359 	0.0096859057 	0.00036501696 	0.00086387015 	0.7804873 	0.0016561257 	4.2443413e-20
0.027227227 	0.023051649 	0.0096679704 	0.00036518823 	0.0008642649 	0.78131572 	0.0016649897 	3.9694461e-20
0.027327327 	0.022957939 	0.0096500351 	0.0003653595 	0.00086465964 	0.78214413 	0.0016738536 	3.6945509e-20
0.027427427 	0.022864229 	0.0096320998 	0.00036553078 	0.00086505439 	0.78297255 	0.0016827175 	3.4196557e-20