6.93889390391e-17 	0.00067357191878 	1.14614003527 	0 	-2.19922144917e-21 	0 	0 	0
1 	0.000689546215836 	0.0376244248236 	4.70809594755e-08 	0 	-0.00156550767138 	-5.18367019647e-09 	0
