6.93889390391e-17 	0.000592628400838 	1.18388436235 	0 	-2.5701391948e-21 	0 	0 	0
1 	0.000621731218588 	0.0350310995389 	8.57392655377e-08 	0 	-0.00145744097801 	-1.12307830821e-08 	0
