0 	0.000592628400838 	1.18388436235 	0 	-2.5701391948e-21 	0 	0 	0
0.0001001001001 	0.000586058162537 	1.18387061531 	1.57677873408e-06 	-1.95829477485e-21 	0 	0 	0
0.0002002002002 	0.000579487924236 	1.18385686827 	3.15355746816e-06 	-1.34645035489e-21 	0 	0 	0
0.0003003003003 	0.000572917685935 	1.18384312124 	4.73033620224e-06 	-7.34605934937e-22 	0 	0 	0
0.0004004004004 	0.000566347447634 	1.1838293742 	6.30711493632e-06 	-1.22761514982e-22 	0 	0 	0
0.000500500500501 	0.000560261504559 	1.183780688 	7.79351610269e-06 	0 	0 	0 	0
0.000600600600601 	0.000554297121275 	1.18372323196 	9.25723218434e-06 	0 	0 	0 	0
0.000700700700701 	0.000548332737991 	1.18366577591 	1.0720948266e-05 	0 	0 	0 	0
0.000800800800801 	0.000542368354707 	1.18360831986 	1.21846643476e-05 	0 	0 	0 	0
0.000900900900901 	0.000536403971423 	1.18355086382 	1.36483804293e-05 	0 	0 	0 	0
0.001001001001 	0.000530439588138 	1.18349340777 	1.5112096511e-05 	0 	0 	0 	0
0.0011011011011 	0.000524475204854 	1.18343595173 	1.65758125926e-05 	0 	0 	0 	0
0.0012012012012 	0.00051851082157 	1.18337849568 	1.80395286743e-05 	0 	0 	0 	0
0.0013013013013 	0.000512546438286 	1.18332103964 	1.95032447559e-05 	0 	0 	0 	0
0.0014014014014 	0.000506582055002 	1.18326358359 	2.09669608376e-05 	0 	0 	0 	0
0.0015015015015 	0.000500617671717 	1.18320612754 	2.24306769192e-05 	0 	0 	0 	0
0.0016016016016 	0.000494653288433 	1.1831486715 	2.38943930009e-05 	0 	0 	0 	0
0.0017017017017 	0.000488688905149 	1.18309121545 	2.53581090825e-05 	0 	0 	0 	0
0.0018018018018 	0.000482724521865 	1.18303375941 	2.68218251642e-05 	0 	0 	0 	0
0.0019019019019 	0.000476760138581 	1.18297630336 	2.82855412458e-05 	0 	0 	0 	0
0.002002002002 	0.000470795755297 	1.18291884732 	2.97492573275e-05 	0 	0 	0 	0
0.0021021021021 	0.000464831372012 	1.18286139127 	3.12129734091e-05 	0 	0 	0 	0
0.0022022022022 	0.000458866988728 	1.18280393522 	3.26766894908e-05 	0 	0 	0 	0
0.0023023023023 	0.000452902605444 	1.18274647918 	3.41404055724e-05 	0 	0 	0 	0
0.0024024024024 	0.00044693822216 	1.18268902313 	3.56041216541e-05 	0 	0 	0 	0
0.0025025025025 	0.000440973838876 	1.18263156709 	3.70678377357e-05 	0 	0 	0 	0
0.0026026026026 	0.000435009455591 	1.18257411104 	3.85315538174e-05 	0 	0 	0 	0
0.0027027027027 	0.000429045072307 	1.182516655 	3.9995269899e-05 	0 	0 	0 	0
0.0028028028028 	0.000423080689023 	1.18245919895 	4.14589859807e-05 	0 	0 	0 	0
0.0029029029029 	0.000417116305739 	1.1824017429 	4.29227020623e-05 	0 	0 	0 	0
0.003003003003 	0.000411151922455 	1.18234428686 	4.4386418144e-05 	0 	0 	0 	0
0.0031031031031 	0.000405187539171 	1.18228683081 	4.58501342257e-05 	0 	0 	0 	0
0.0032032032032 	0.000399223155887 	1.18222937477 	4.73138503073e-05 	0 	0 	0 	0
0.0033033033033 	0.000393258772602 	1.18217191872 	4.8777566389e-05 	0 	0 	0 	0
0.0034034034034 	0.000387294389318 	1.18211446267 	5.02412824706e-05 	0 	0 	0 	0
0.0035035035035 	0.000381330006034 	1.18205700663 	5.17049985523e-05 	0 	0 	0 	0
0.0036036036036 	0.00037536562275 	1.18199955058 	5.31687146339e-05 	0 	0 	0 	0
0.0037037037037 	0.000369401239466 	1.18194209454 	5.46324307156e-05 	0 	0 	0 	0
0.0038038038038 	0.000363436856181 	1.18188463849 	5.60961467972e-05 	0 	0 	0 	0
0.0039039039039 	0.000357472472897 	1.18182718245 	5.75598628789e-05 	0 	0 	0 	0
0.004004004004 	0.000351508089613 	1.1817697264 	5.90235789605e-05 	0 	0 	0 	0
0.0041041041041 	0.000345543706329 	1.18171227035 	6.04872950422e-05 	0 	0 	0 	0
0.0042042042042 	0.000339579323045 	1.18165481431 	6.19510111238e-05 	0 	0 	0 	0
0.0043043043043 	0.000333614939761 	1.18159735826 	6.34147272055e-05 	0 	0 	0 	0
0.0044044044044 	0.000327650556476 	1.18153990222 	6.48784432871e-05 	0 	0 	0 	0
0.0045045045045 	0.000321686173192 	1.18148244617 	6.63421593688e-05 	0 	0 	0 	0
0.0046046046046 	0.000315721789908 	1.18142499013 	6.78058754504e-05 	0 	0 	0 	0
0.0047047047047 	0.000309757406624 	1.18136753408 	6.92695915321e-05 	0 	0 	0 	0
0.0048048048048 	0.00030379302334 	1.18131007803 	7.07333076137e-05 	0 	0 	0 	0
0.0049049049049 	0.000297828640055 	1.18125262199 	7.21970236954e-05 	0 	0 	0 	0
0.00500500500501 	0.000291864256771 	1.18119516594 	7.3660739777e-05 	0 	0 	0 	0
0.00510510510511 	0.000285899873487 	1.1811377099 	7.51244558587e-05 	0 	0 	0 	0
0.00520520520521 	0.000279935490203 	1.18108025385 	7.65881719404e-05 	0 	0 	0 	0
0.00530530530531 	0.000273971106919 	1.18102279781 	7.8051888022e-05 	0 	0 	0 	0
0.00540540540541 	0.000268006723635 	1.18096534176 	7.95156041037e-05 	0 	0 	0 	0
0.00550550550551 	0.00026204234035 	1.18090788571 	8.09793201853e-05 	0 	0 	0 	0
0.00560560560561 	0.000256077957066 	1.18085042967 	8.2443036267e-05 	0 	0 	0 	0
0.00570570570571 	0.000250113573782 	1.18079297362 	8.39067523486e-05 	0 	0 	0 	0
0.00580580580581 	0.000244149190498 	1.18073551758 	8.53704684303e-05 	0 	0 	0 	0
0.00590590590591 	0.000238184807214 	1.18067806153 	8.68341845119e-05 	0 	0 	0 	0
0.00600600600601 	0.000232220423929 	1.18062060549 	8.82979005936e-05 	0 	0 	0 	0
0.00610610610611 	0.000226256040645 	1.18056314944 	8.97616166752e-05 	0 	0 	0 	0
0.00620620620621 	0.000220291657361 	1.18050569339 	9.12253327569e-05 	0 	0 	0 	0
0.00630630630631 	0.000214327274077 	1.18044823735 	9.26890488385e-05 	0 	0 	0 	0
0.00640640640641 	0.000208362890793 	1.1803907813 	9.41527649202e-05 	0 	0 	0 	0
0.00650650650651 	0.000202398507509 	1.18033332526 	9.56164810018e-05 	0 	0 	0 	0
0.00660660660661 	0.000196434124224 	1.18027586921 	9.70801970835e-05 	0 	0 	0 	0
0.00670670670671 	0.00019046974094 	1.18021841317 	9.85439131651e-05 	0 	0 	0 	0
0.00680680680681 	0.000184505357656 	1.18016095712 	0.000100007629247 	0 	0 	0 	0
0.00690690690691 	0.000178540974372 	1.18010350107 	0.000101471345328 	0 	0 	0 	0
0.00700700700701 	0.000172576591088 	1.18004604503 	0.00010293506141 	0 	0 	0 	0
0.00710710710711 	0.000166612207804 	1.17998858898 	0.000104398777492 	0 	0 	0 	0
0.00720720720721 	0.000160647824519 	1.17993113294 	0.000105862493573 	0 	0 	0 	0
0.00730730730731 	0.000154683441235 	1.17987367689 	0.000107326209655 	0 	0 	0 	0
0.00740740740741 	0.000148719057951 	1.17981622084 	0.000108789925737 	0 	0 	0 	0
0.00750750750751 	0.000142754674667 	1.1797587648 	0.000110253641818 	0 	0 	0 	0
0.00760760760761 	0.000136790291383 	1.17970130875 	0.0001117173579 	0 	0 	0 	0
0.00770770770771 	0.000130825908098 	1.17964385271 	0.000113181073982 	0 	0 	0 	0
0.00780780780781 	0.000124861524814 	1.17958639666 	0.000114644790063 	0 	0 	0 	0
0.00790790790791 	0.00011889714153 	1.17952894062 	0.000116108506145 	0 	0 	0 	0
0.00800800800801 	0.000114166104872 	1.17946301265 	0.000117607899813 	1.64996813926e-23 	0 	0 	0
0.00810810810811 	0.000114768804578 	1.17936044697 	0.000119261584934 	1.04353959141e-22 	0 	0 	0
0.00820820820821 	0.000115371504284 	1.17925788129 	0.000120915270055 	1.92208236889e-22 	0 	0 	0
0.00830830830831 	0.00011597420399 	1.17915531561 	0.000122568955176 	2.80062514638e-22 	0 	0 	0
0.00840840840841 	0.000116576903696 	1.17905274993 	0.000124222640297 	3.67916792387e-22 	0 	0 	0
0.00850850850851 	0.000116049530189 	1.17891549042 	0.000125362756979 	2.7515080475e-22 	0 	0 	0
0.00860860860861 	0.000115507464371 	1.17877777985 	0.000126496196655 	1.80036536432e-22 	0 	0 	0
0.00870870870871 	0.000114965398554 	1.17864006927 	0.00012762963633 	8.49222681133e-23 	0 	0 	0
0.00880880880881 	0.000114481417974 	1.17850012362 	0.000128773424192 	-1.13569239672e-22 	0 	0 	0
0.00890890890891 	0.000114481417974 	1.17834155466 	0.000130003435705 	-1.17342549142e-21 	0 	0 	0
0.00900900900901 	0.000114481417974 	1.17818298571 	0.000131233447218 	-2.23328174315e-21 	0 	0 	0
0.00910910910911 	0.000114481417974 	1.17802441676 	0.000132463458731 	-3.29313799489e-21 	0 	0 	0
0.00920920920921 	0.000114481417974 	1.17786584781 	0.000133693470243 	-4.35299424664e-21 	0 	0 	0
0.00930930930931 	0.000114481417974 	1.17770727885 	0.000134923481756 	-5.41285049838e-21 	0 	0 	0
0.00940940940941 	0.000114481417974 	1.1775487099 	0.000136153493269 	-6.47270675011e-21 	0 	0 	0
0.00950950950951 	0.000114481417974 	1.17739014095 	0.000137383504782 	-7.53256300186e-21 	0 	0 	0
0.00960960960961 	0.000114481417974 	1.177231572 	0.000138613516294 	-8.5924192536e-21 	0 	0 	0
0.00970970970971 	0.000114481417974 	1.17707300304 	0.000139843527807 	-9.65227550534e-21 	0 	0 	0
0.00980980980981 	0.000114481417974 	1.17691443409 	0.00014107353932 	-1.07121317571e-20 	0 	0 	0
0.00990990990991 	0.000114481417974 	1.17675586514 	0.000142303550833 	-1.17719880088e-20 	0 	0 	0
0.01001001001 	0.000114481417974 	1.17659729619 	0.000143533562346 	-1.28318442606e-20 	0 	0 	0
0.0101101101101 	0.000114481417974 	1.17643872723 	0.000144763573858 	-1.38917005123e-20 	0 	0 	0
0.0102102102102 	0.000114481417974 	1.17628015828 	0.000145993585371 	-1.4951556764e-20 	0 	0 	0
0.0103103103103 	0.000114481417974 	1.17612158933 	0.000147223596884 	-1.60114130158e-20 	0 	0 	0
0.0104104104104 	0.000114481417974 	1.17596302038 	0.000148453608397 	-1.70712692675e-20 	0 	0 	0
0.0105105105105 	0.000114481417974 	1.17580445142 	0.00014968361991 	-1.81311255193e-20 	0 	0 	0
0.0106106106106 	0.000114481417974 	1.17564588247 	0.000150913631422 	-1.9190981771e-20 	0 	0 	0
0.0107107107107 	0.000114481417974 	1.17548731352 	0.000152143642935 	-2.02508380227e-20 	0 	0 	0
0.0108108108108 	0.000114481417974 	1.17532874457 	0.000153373654448 	-2.13106942745e-20 	0 	0 	0
0.0109109109109 	0.000114481417974 	1.17517017561 	0.000154603665961 	-2.23705505262e-20 	0 	0 	0
0.011011011011 	0.000114481417974 	1.17501160666 	0.000155833677473 	-2.3430406778e-20 	0 	0 	0
0.0111111111111 	0.000114481417974 	1.17485303771 	0.000157063688986 	-2.44902630297e-20 	0 	0 	0
0.0112112112112 	0.000114481417974 	1.17469446876 	0.000158293700499 	-2.55501192814e-20 	0 	0 	0
0.0113113113113 	0.000114481417974 	1.1745358998 	0.000159523712012 	-2.66099755332e-20 	0 	0 	0
0.0114114114114 	0.000114481417974 	1.17437733085 	0.000160753723525 	-2.76698317849e-20 	0 	0 	0
0.0115115115115 	0.000114481417974 	1.1742187619 	0.000161983735037 	-2.87296880367e-20 	0 	0 	0
0.0116116116116 	0.000114481417974 	1.17406019295 	0.00016321374655 	-2.97895442884e-20 	0 	0 	0
0.0117117117117 	0.000114481417974 	1.17390162399 	0.000164443758063 	-3.08494005401e-20 	0 	0 	0
0.0118118118118 	0.000114481417974 	1.17374305504 	0.000165673769576 	-3.19092567919e-20 	0 	0 	0
0.0119119119119 	0.000114481417974 	1.17358448609 	0.000166903781089 	-3.29691130436e-20 	0 	0 	0
0.012012012012 	0.000114481417974 	1.17342591714 	0.000168133792601 	-3.40289692954e-20 	0 	0 	0
0.0121121121121 	0.000114481417974 	1.17326734818 	0.000169363804114 	-3.50888255471e-20 	0 	0 	0
0.0122122122122 	0.000114481417974 	1.17310877923 	0.000170593815627 	-3.61486817988e-20 	0 	0 	0
0.0123123123123 	0.000114481417974 	1.17295021028 	0.00017182382714 	-3.72085380506e-20 	0 	0 	0
0.0124124124124 	0.000114481417974 	1.17279164133 	0.000173053838652 	-3.82683943023e-20 	0 	0 	0
0.0125125125125 	0.000114481417974 	1.17263307237 	0.000174283850165 	-3.93282505541e-20 	0 	0 	0
0.0126126126126 	0.000114481417974 	1.17247450342 	0.000175513861678 	-4.03881068058e-20 	0 	0 	0
0.0127127127127 	0.000114481417974 	1.17231593447 	0.000176743873191 	-4.14479630575e-20 	0 	0 	0
0.0128128128128 	0.000114481417974 	1.17215736552 	0.000177973884704 	-4.25078193093e-20 	0 	0 	0
0.0129129129129 	0.000114481417974 	1.17199879657 	0.000179203896216 	-4.3567675561e-20 	0 	0 	0
0.013013013013 	0.000114481417974 	1.17184022761 	0.000180433907729 	-4.46275318128e-20 	0 	0 	0
0.0131131131131 	0.000114481417974 	1.17168165866 	0.000181663919242 	-4.56873880645e-20 	0 	0 	0
0.0132132132132 	0.000114481417974 	1.17152308971 	0.000182893930755 	-4.67472443162e-20 	0 	0 	0
0.0133133133133 	0.000114481417974 	1.17136452076 	0.000184123942268 	-4.7807100568e-20 	0 	0 	0
0.0134134134134 	0.000114481417974 	1.1712059518 	0.00018535395378 	-4.88669568197e-20 	0 	0 	0
0.0135135135135 	0.000114481417974 	1.17104738285 	0.000186583965293 	-4.99268130715e-20 	0 	0 	0
0.0136136136136 	0.000114481417974 	1.1708888139 	0.000187813976806 	-5.09866693232e-20 	0 	0 	0
0.0137137137137 	0.000114481417974 	1.17073024495 	0.000189043988319 	-5.20465255749e-20 	0 	0 	0
0.0138138138138 	0.000114481417974 	1.17057167599 	0.000190273999831 	-5.31063818267e-20 	0 	0 	0
0.0139139139139 	0.000114481417974 	1.17041310704 	0.000191504011344 	-5.41662380784e-20 	0 	0 	0
0.014014014014 	0.000114481417974 	1.17025453809 	0.000192734022857 	-5.52260943302e-20 	0 	0 	0
0.0141141141141 	0.000114481417974 	1.17009596914 	0.00019396403437 	-5.62859505819e-20 	0 	0 	0
0.0142142142142 	0.000114481417974 	1.16993740018 	0.000195194045883 	-5.73458068336e-20 	0 	0 	0
0.0143143143143 	0.000114481417974 	1.16977883123 	0.000196424057395 	-5.84056630854e-20 	0 	0 	0
0.0144144144144 	0.000114481417974 	1.16962026228 	0.000197654068908 	-5.94655193371e-20 	0 	0 	0
0.0145145145145 	0.000114481417974 	1.16946169333 	0.000198884080421 	-6.05253755889e-20 	0 	0 	0
0.0146146146146 	0.000114481417974 	1.16930312437 	0.000200114091934 	-6.15852318406e-20 	0 	0 	0
0.0147147147147 	0.000114481417974 	1.16914455542 	0.000201344103446 	-6.26450880924e-20 	0 	0 	0
0.0148148148148 	0.000114481417974 	1.16898598647 	0.000202574114959 	-6.37049443441e-20 	0 	0 	0
0.0149149149149 	0.000114481417974 	1.16882741752 	0.000203804126472 	-6.47648005958e-20 	0 	0 	0
0.015015015015 	0.000114481417974 	1.16866884856 	0.000205034137985 	-6.58246568476e-20 	0 	0 	0
0.0151151151151 	0.000114481417974 	1.16851027961 	0.000206264149498 	-6.68845130993e-20 	0 	0 	0
0.0152152152152 	0.000114481417974 	1.16835171066 	0.00020749416101 	-6.79443693511e-20 	0 	0 	0
0.0153153153153 	0.000114481417974 	1.16819314171 	0.000208724172523 	-6.90042256028e-20 	0 	0 	0
0.0154154154154 	0.000114481417974 	1.16803457275 	0.000209954184036 	-7.00640818545e-20 	0 	0 	0
0.0155155155155 	0.000114481417974 	1.1678760038 	0.000211184195549 	-7.11239381063e-20 	0 	0 	0
0.0156156156156 	0.000114481417974 	1.16771743485 	0.000212414207062 	-7.2183794358e-20 	0 	0 	0
0.0157157157157 	0.000114481417974 	1.1675588659 	0.000213644218574 	-7.32436506098e-20 	0 	0 	0
0.0158158158158 	0.000114624776628 	1.16739387243 	0.000214964321509 	-7.47685512242e-20 	0 	0 	0
0.0159159159159 	0.000115161762201 	1.16721123884 	0.0002165317929 	-7.75703470546e-20 	0 	0 	0
0.016016016016 	0.000115698747773 	1.16702860525 	0.00021809926429 	-8.0372142885e-20 	0 	0 	0
0.0161161161161 	0.000116235733346 	1.16684597166 	0.00021966673568 	-8.31739387154e-20 	0 	0 	0
0.0162162162162 	0.000116414141464 	1.16664902044 	0.000220807429212 	-8.54934380484e-20 	0 	0 	0
0.0163163163163 	0.000116024472011 	1.16642938644 	0.000221271998445 	-8.70488574896e-20 	0 	0 	0
0.0164164164164 	0.000115634802558 	1.16620975244 	0.000221736567679 	-8.86042769309e-20 	0 	0 	0
0.0165165165165 	0.000115245133106 	1.16599011844 	0.000222201136913 	-9.01596963721e-20 	0 	0 	0
0.0166166166166 	0.000115168409714 	1.16576465069 	0.00022296271127 	-8.95752048453e-20 	0 	0 	0
0.0167167167167 	0.000115168409714 	1.16553775271 	0.00022379710086 	-8.84660822473e-20 	0 	0 	0
0.0168168168168 	0.000115168409714 	1.16531085474 	0.00022463149045 	-8.73569596494e-20 	0 	0 	0
0.0169169169169 	0.000115168409714 	1.16508395676 	0.000225465880041 	-8.62478370515e-20 	0 	0 	0
0.017017017017 	0.000115168409714 	1.16485705879 	0.000226300269631 	-8.51387144536e-20 	0 	0 	0
0.0171171171171 	0.000115168409714 	1.16463016081 	0.000227134659221 	-8.40295918556e-20 	0 	0 	0
0.0172172172172 	0.000115168409714 	1.16440326283 	0.000227969048811 	-8.29204692577e-20 	0 	0 	0
0.0173173173173 	0.000115168409714 	1.16417636486 	0.000228803438401 	-8.18113466598e-20 	0 	0 	0
0.0174174174174 	0.000115168409714 	1.16394946688 	0.000229637827991 	-8.07022240619e-20 	0 	0 	0
0.0175175175175 	0.000115168409714 	1.16372256891 	0.000230472217582 	-7.95931014639e-20 	0 	0 	0
0.0176176176176 	0.000115168409714 	1.16349567093 	0.000231306607172 	-7.8483978866e-20 	0 	0 	0
0.0177177177177 	0.000115168409714 	1.16326877296 	0.000232140996762 	-7.73748562681e-20 	0 	0 	0
0.0178178178178 	0.000115168409714 	1.16304187498 	0.000232975386352 	-7.62657336702e-20 	0 	0 	0
0.0179179179179 	0.000115168409714 	1.162814977 	0.000233809775942 	-7.51566110722e-20 	0 	0 	0
0.018018018018 	0.000115168409714 	1.16258807903 	0.000234644165533 	-7.40474884743e-20 	0 	0 	0
0.0181181181181 	0.000115168409714 	1.16236118105 	0.000235478555123 	-7.29383658764e-20 	0 	0 	0
0.0182182182182 	0.000115168409714 	1.16213428308 	0.000236312944713 	-7.18292432784e-20 	0 	0 	0
0.0183183183183 	0.000115168409714 	1.1619073851 	0.000237147334303 	-7.07201206805e-20 	0 	0 	0
0.0184184184184 	0.000115168409714 	1.16168048713 	0.000237981723893 	-6.96109980826e-20 	0 	0 	0
0.0185185185185 	0.000115168409714 	1.16145358915 	0.000238816113483 	-6.85018754847e-20 	0 	0 	0
0.0186186186186 	0.000115168409714 	1.16122669117 	0.000239650503074 	-6.73927528867e-20 	0 	0 	0
0.0187187187187 	0.000115168409714 	1.1609997932 	0.000240484892664 	-6.62836302888e-20 	0 	0 	0
0.0188188188188 	0.000115168409714 	1.16077289522 	0.000241319282254 	-6.51745076909e-20 	0 	0 	0
0.0189189189189 	0.000115168409714 	1.16054599725 	0.000242153671844 	-6.40653850929e-20 	0 	0 	0
0.019019019019 	0.000115168409714 	1.16031909927 	0.000242988061434 	-6.2956262495e-20 	0 	0 	0
0.0191191191191 	0.000115168409714 	1.16009220129 	0.000243822451025 	-6.18471398971e-20 	0 	0 	0
0.0192192192192 	0.000115168409714 	1.15986530332 	0.000244656840615 	-6.07380172992e-20 	0 	0 	0
0.0193193193193 	0.000115168409714 	1.15963840534 	0.000245491230205 	-5.96288947012e-20 	0 	0 	0
0.0194194194194 	0.000115168409714 	1.15941150737 	0.000246325619795 	-5.85197721033e-20 	0 	0 	0
0.0195195195195 	0.000115168409714 	1.15918460939 	0.000247160009385 	-5.74106495054e-20 	0 	0 	0
0.0196196196196 	0.000115168409714 	1.15895771142 	0.000247994398975 	-5.63015269075e-20 	0 	0 	0
0.0197197197197 	0.000115168409714 	1.15873081344 	0.000248828788566 	-5.51924043095e-20 	0 	0 	0
0.0198198198198 	0.000115168409714 	1.15850391546 	0.000249663178156 	-5.40832817116e-20 	0 	0 	0
0.0199199199199 	0.000115168409714 	1.15827701749 	0.000250497567746 	-5.29741591137e-20 	0 	0 	0
0.02002002002 	0.000115168409714 	1.15805011951 	0.000251331957336 	-5.18650365158e-20 	0 	0 	0
0.0201201201201 	0.000115168409714 	1.15782322154 	0.000252166346926 	-5.07559139178e-20 	0 	0 	0
0.0202202202202 	0.000115168409714 	1.15759632356 	0.000253000736517 	-4.96467913199e-20 	0 	0 	0
0.0203203203203 	0.000115168409714 	1.15736942558 	0.000253835126107 	-4.8537668722e-20 	0 	0 	0
0.0204204204204 	0.000115168409714 	1.15714252761 	0.000254669515697 	-4.7428546124e-20 	0 	0 	0
0.0205205205205 	0.000115168409714 	1.15691562963 	0.000255503905287 	-4.63194235261e-20 	0 	0 	0
0.0206206206206 	0.000115168409714 	1.15668873166 	0.000256338294877 	-4.52103009282e-20 	0 	0 	0
0.0207207207207 	0.000115168409714 	1.15646183368 	0.000257172684467 	-4.41011783303e-20 	0 	0 	0
0.0208208208208 	0.000115168409714 	1.15623493571 	0.000258007074058 	-4.29920557323e-20 	0 	0 	0
0.0209209209209 	0.000115168409714 	1.15600803773 	0.000258841463648 	-4.18829331344e-20 	0 	0 	0
0.021021021021 	0.000115168409714 	1.15578113975 	0.000259675853238 	-4.07738105365e-20 	0 	0 	0
0.0211211211211 	0.000115168409714 	1.15555424178 	0.000260510242828 	-3.96646879386e-20 	0 	0 	0
0.0212212212212 	0.000115168409714 	1.1553273438 	0.000261344632418 	-3.85555653406e-20 	0 	0 	0
0.0213213213213 	0.000115168409714 	1.15510044583 	0.000262179022008 	-3.74464427427e-20 	0 	0 	0
0.0214214214214 	0.000115168409714 	1.15487354785 	0.000263013411599 	-3.63373201448e-20 	0 	0 	0
0.0215215215215 	0.000115168409714 	1.15464664987 	0.000263847801189 	-3.52281975468e-20 	0 	0 	0
0.0216216216216 	0.000115168409714 	1.1544197519 	0.000264682190779 	-3.41190749489e-20 	0 	0 	0
0.0217217217217 	0.000115168409714 	1.15419285392 	0.000265516580369 	-3.3009952351e-20 	0 	0 	0
0.0218218218218 	0.000115168409714 	1.15396595595 	0.000266350969959 	-3.19008297531e-20 	0 	0 	0
0.0219219219219 	0.000115168409714 	1.15373905797 	0.00026718535955 	-3.07917071551e-20 	0 	0 	0
0.022022022022 	0.000115168409714 	1.15351216 	0.00026801974914 	-2.96825845572e-20 	0 	0 	0
0.0221221221221 	0.000115168409714 	1.15328526202 	0.00026885413873 	-2.85734619593e-20 	0 	0 	0
0.0222222222222 	0.000115168409714 	1.15305836404 	0.00026968852832 	-2.74643393614e-20 	0 	0 	0
0.0223223223223 	0.000115168409714 	1.15283146607 	0.00027052291791 	-2.63552167634e-20 	0 	0 	0
0.0224224224224 	0.000115168409714 	1.15260456809 	0.0002713573075 	-2.52460941655e-20 	0 	0 	0
0.0225225225225 	0.000115168409714 	1.15237767012 	0.000272191697091 	-2.41369715676e-20 	0 	0 	0
0.0226226226226 	0.000115168409714 	1.15215077214 	0.000273026086681 	-2.30278489696e-20 	0 	0 	0
0.0227227227227 	0.000115168409714 	1.15192387416 	0.000273860476271 	-2.19187263717e-20 	0 	0 	0
0.0228228228228 	0.000115168409714 	1.15169697619 	0.000274694865861 	-2.08096037738e-20 	0 	0 	0
0.0229229229229 	0.000115168409714 	1.15147007821 	0.000275529255451 	-1.97004811759e-20 	0 	0 	0
0.023023023023 	0.000115279407273 	1.15123992464 	0.000276520014116 	-1.81054845601e-20 	0 	0 	0
0.0231231231231 	0.000115657255907 	1.15100194423 	0.000277886702267 	-1.53423901573e-20 	0 	0 	0
0.0232232232232 	0.00011603510454 	1.15076396382 	0.000279253390418 	-1.25792957545e-20 	0 	0 	0
0.0233233233233 	0.000116412953174 	1.15052598341 	0.00028062007857 	-9.81620135164e-21 	0 	0 	0
0.0234234234234 	0.000116382663567 	1.15026307367 	0.000280870169771 	-4.20381434582e-21 	0 	0 	0
0.0235235235235 	0.000116185596325 	1.14998997705 	0.000280663985673 	2.57287982987e-21 	0 	0 	0
0.0236236236236 	0.000115988529083 	1.14971688042 	0.000280457801576 	9.34957400556e-21 	0 	0 	0
0.0237237237237 	0.000115870211766 	1.14944222013 	0.000280517843392 	1.34427543169e-20 	0 	0 	0
0.0238238238238 	0.000115870211766 	1.1491652105 	0.000280977874617 	1.35041065263e-20 	0 	0 	0
0.0239239239239 	0.000115870211766 	1.14888820088 	0.000281437905842 	1.35654587357e-20 	0 	0 	0
0.024024024024 	0.000115870211767 	1.14861119126 	0.000281897937067 	1.36268109451e-20 	0 	0 	0
0.0241241241241 	0.000115870211766 	1.14833418163 	0.000282357968291 	1.36881631545e-20 	0 	0 	0
0.0242242242242 	0.000115870211767 	1.14805717201 	0.000282817999516 	1.37495153639e-20 	0 	0 	0
0.0243243243243 	0.000115870211766 	1.14778016238 	0.000283278030741 	1.38108675733e-20 	0 	0 	0
0.0244244244244 	0.000115870211766 	1.14750315276 	0.000283738061965 	1.38722197827e-20 	0 	0 	0
0.0245245245245 	0.000115870211766 	1.14722614314 	0.00028419809319 	1.39335719921e-20 	0 	0 	0
0.0246246246246 	0.000115870211766 	1.14694913351 	0.000284658124415 	1.39949242015e-20 	0 	0 	0
0.0247247247247 	0.000115870211766 	1.14667212389 	0.000285118155639 	1.40562764109e-20 	0 	0 	0
0.0248248248248 	0.000115870211766 	1.14639511427 	0.000285578186864 	1.41176286203e-20 	0 	0 	0
0.0249249249249 	0.000115870211766 	1.14611810464 	0.000286038218089 	1.41789808297e-20 	0 	0 	0
0.025025025025 	0.000115870211766 	1.14584109502 	0.000286498249314 	1.42403330391e-20 	0 	0 	0
0.0251251251251 	0.000115870211766 	1.1455640854 	0.000286958280538 	1.43016852485e-20 	0 	0 	0
0.0252252252252 	0.000115870211766 	1.14528707577 	0.000287418311763 	1.43630374579e-20 	0 	0 	0
0.0253253253253 	0.000115870211766 	1.14501006615 	0.000287878342988 	1.44243896673e-20 	0 	0 	0
0.0254254254254 	0.000115870211766 	1.14473305652 	0.000288338374212 	1.44857418767e-20 	0 	0 	0
0.0255255255255 	0.000115870211766 	1.1444560469 	0.000288798405437 	1.45470940861e-20 	0 	0 	0
0.0256256256256 	0.000115870211766 	1.14417903728 	0.000289258436662 	1.46084462954e-20 	0 	0 	0
0.0257257257257 	0.000115870211766 	1.14390202765 	0.000289718467887 	1.46697985048e-20 	0 	0 	0
0.0258258258258 	0.000115870211766 	1.14362501803 	0.000290178499111 	1.47311507142e-20 	0 	0 	0
0.0259259259259 	0.000115870211766 	1.14334800841 	0.000290638530336 	1.47925029236e-20 	0 	0 	0
0.026026026026 	0.000115870211767 	1.14307099878 	0.000291098561561 	1.4853855133e-20 	0 	0 	0
0.0261261261261 	0.000115870211766 	1.14279398916 	0.000291558592785 	1.49152073424e-20 	0 	0 	0
0.0262262262262 	0.000115870211766 	1.14251697954 	0.00029201862401 	1.49765595518e-20 	0 	0 	0
0.0263263263263 	0.000115870211766 	1.14223996991 	0.000292478655235 	1.50379117612e-20 	0 	0 	0
0.0264264264264 	0.000115870211767 	1.14196296029 	0.00029293868646 	1.50992639706e-20 	0 	0 	0
0.0265265265265 	0.000115870211766 	1.14168595066 	0.000293398717684 	1.516061618e-20 	0 	0 	0
0.0266266266266 	0.000115870211766 	1.14140894104 	0.000293858748909 	1.52219683894e-20 	0 	0 	0
0.0267267267267 	0.000115870211766 	1.14113193142 	0.000294318780134 	1.52833205988e-20 	0 	0 	0
0.0268268268268 	0.000115870211766 	1.14085492179 	0.000294778811358 	1.53446728082e-20 	0 	0 	0
0.0269269269269 	0.000115870211766 	1.14057791217 	0.000295238842583 	1.54060250176e-20 	0 	0 	0
0.027027027027 	0.000115870211766 	1.14030090255 	0.000295698873808 	1.5467377227e-20 	0 	0 	0
0.0271271271271 	0.000115870211766 	1.14002389292 	0.000296158905032 	1.55287294364e-20 	0 	0 	0
0.0272272272272 	0.000115870211766 	1.1397468833 	0.000296618936257 	1.55900816458e-20 	0 	0 	0
0.0273273273273 	0.000115870211766 	1.13946987368 	0.000297078967482 	1.56514338552e-20 	0 	0 	0
0.0274274274274 	0.000115870211766 	1.13919286405 	0.000297538998707 	1.57127860646e-20 	0 	0 	0
0.0275275275275 	0.000115870211766 	1.13891585443 	0.000297999029931 	1.57741382739e-20 	0 	0 	0
0.0276276276276 	0.000115870211766 	1.1386388448 	0.000298459061156 	1.58354904833e-20 	0 	0 	0
0.0277277277277 	0.000115870211766 	1.13836183518 	0.000298919092381 	1.58968426927e-20 	0 	0 	0
0.0278278278278 	0.000115870211766 	1.13808482556 	0.000299379123605 	1.59581949021e-20 	0 	0 	0
0.0279279279279 	0.000115870211766 	1.13780781593 	0.00029983915483 	1.60195471115e-20 	0 	0 	0
0.028028028028 	0.000115870211766 	1.13753080631 	0.000300299186055 	1.60808993209e-20 	0 	0 	0
0.0281281281281 	0.000115870211766 	1.13725379669 	0.00030075921728 	1.61422515303e-20 	0 	0 	0
0.0282282282282 	0.000115870211766 	1.13697678706 	0.000301219248504 	1.62036037397e-20 	0 	0 	0
0.0283283283283 	0.000115870211766 	1.13669977744 	0.000301679279729 	1.62649559491e-20 	0 	0 	0
0.0284284284284 	0.000115870211766 	1.13642276782 	0.000302139310954 	1.63263081585e-20 	0 	0 	0
0.0285285285285 	0.000115870211766 	1.13614575819 	0.000302599342178 	1.63876603679e-20 	0 	0 	0
0.0286286286286 	0.000115870211766 	1.13586874857 	0.000303059373403 	1.64490125773e-20 	0 	0 	0
0.0287287287287 	0.000115870211766 	1.13559173894 	0.000303519404628 	1.65103647867e-20 	0 	0 	0
0.0288288288288 	0.000115870211766 	1.13531472932 	0.000303979435852 	1.65717169961e-20 	0 	0 	0
0.0289289289289 	0.000115870211766 	1.1350377197 	0.000304439467077 	1.66330692055e-20 	0 	0 	0
0.029029029029 	0.000115870211766 	1.13476071007 	0.000304899498302 	1.66944214149e-20 	0 	0 	0
0.0291291291291 	0.000115870211766 	1.13448370045 	0.000305359529527 	1.67557736243e-20 	0 	0 	0
0.0292292292292 	0.000115870211766 	1.13420669083 	0.000305819560751 	1.68171258337e-20 	0 	0 	0
0.0293293293293 	0.000115870211766 	1.1339296812 	0.000306279591976 	1.68784780431e-20 	0 	0 	0
0.0294294294294 	0.000115870211766 	1.13365267158 	0.000306739623201 	1.69398302525e-20 	0 	0 	0
0.0295295295295 	0.000115870211766 	1.13337566196 	0.000307199654425 	1.70011824618e-20 	0 	0 	0
0.0296296296296 	0.000115870211766 	1.13309865233 	0.00030765968565 	1.70625346712e-20 	0 	0 	0
0.0297297297297 	0.000116009191781 	1.13281496432 	0.000308739230811 	1.31983951896e-20 	0 	0 	0
0.0298298298298 	0.000116179885307 	1.13252975238 	0.000309960141356 	8.43850727385e-21 	0 	0 	0
0.0299299299299 	0.000116350578834 	1.13224454045 	0.000311181051901 	3.6786193581e-21 	0 	0 	0
0.03003003003 	0.000116449773918 	1.1319436992 	0.000311429903437 	-1.27924262135e-21 	0 	0 	0
0.0301301301301 	0.000116478579497 	1.13162747105 	0.000310721772553 	-6.4320080965e-21 	0 	0 	0
0.0302302302302 	0.000116507385076 	1.13131124291 	0.000310013641668 	-1.15847735716e-20 	0 	0 	0
0.0303303303303 	0.000116523335299 	1.13099429583 	0.000309683850828 	-1.50207558382e-20 	0 	0 	0
0.0304304304304 	0.000116523335299 	1.13067645674 	0.000309823483634 	-1.63266473347e-20 	0 	0 	0
0.0305305305305 	0.000116523335299 	1.13035861765 	0.000309963116441 	-1.76325388312e-20 	0 	0 	0
0.0306306306306 	0.000116523335299 	1.13004077856 	0.000310102749248 	-1.89384303278e-20 	0 	0 	0
0.0307307307307 	0.000116523335299 	1.12972293946 	0.000310242382055 	-2.02443218243e-20 	0 	0 	0
0.0308308308308 	0.000116523335299 	1.12940510037 	0.000310382014862 	-2.15502133208e-20 	0 	0 	0
0.0309309309309 	0.000116523335299 	1.12908726128 	0.000310521647669 	-2.28561048173e-20 	0 	0 	0
0.031031031031 	0.000116523335299 	1.12876942219 	0.000310661280476 	-2.41619963138e-20 	0 	0 	0
0.0311311311311 	0.000116523335299 	1.1284515831 	0.000310800913282 	-2.54678878103e-20 	0 	0 	0
0.0312312312312 	0.000116523335299 	1.12813374401 	0.000310940546089 	-2.67737793068e-20 	0 	0 	0
0.0313313313313 	0.000116523335299 	1.12781590492 	0.000311080178896 	-2.80796708033e-20 	0 	0 	0
0.0314314314314 	0.000116523335299 	1.12749806582 	0.000311219811703 	-2.93855622998e-20 	0 	0 	0
0.0315315315315 	0.000116523335299 	1.12718022673 	0.00031135944451 	-3.06914537963e-20 	0 	0 	0
0.0316316316316 	0.000116523335299 	1.12686238764 	0.000311499077317 	-3.19973452929e-20 	0 	0 	0
0.0317317317317 	0.000116523335299 	1.12654454855 	0.000311638710124 	-3.33032367894e-20 	0 	0 	0
0.0318318318318 	0.000116523335299 	1.12622670946 	0.00031177834293 	-3.46091282859e-20 	0 	0 	0
0.0319319319319 	0.000116523335299 	1.12590887037 	0.000311917975737 	-3.59150197824e-20 	0 	0 	0
0.032032032032 	0.000116523335299 	1.12559103128 	0.000312057608544 	-3.72209112789e-20 	0 	0 	0