0 	0.00067357191878 	1.14614003527 	0 	-2.19922144917e-21 	0 	0 	0
0.0001001001001 	0.000666520235287 	1.14613534053 	5.25940239632e-07 	-1.6756772868e-21 	0 	0 	0
0.0002002002002 	0.000659468551794 	1.14613064579 	1.05188047926e-06 	-1.15213312443e-21 	0 	0 	0
0.0003003003003 	0.000652416868301 	1.14612595106 	1.57782071889e-06 	-6.28588962056e-22 	0 	0 	0
0.0004004004004 	0.000645365184808 	1.14612125632 	2.10376095853e-06 	-1.05044799685e-22 	0 	0 	0
0.000500500500501 	0.000638516712349 	1.14609652456 	2.60787088173e-06 	0 	0 	0 	0
0.000600600600601 	0.000631719246567 	1.14606676343 	3.10650131937e-06 	0 	0 	0 	0
0.000700700700701 	0.000624921780786 	1.1460370023 	3.605131757e-06 	0 	0 	0 	0
0.000800800800801 	0.000618124315005 	1.14600724118 	4.10376219464e-06 	0 	0 	0 	0
0.000900900900901 	0.000611326849224 	1.14597748005 	4.60239263228e-06 	0 	0 	0 	0
0.001001001001 	0.000604529383442 	1.14594771892 	5.10102306991e-06 	0 	0 	0 	0
0.0011011011011 	0.000597731917661 	1.1459179578 	5.59965350755e-06 	0 	0 	0 	0
0.0012012012012 	0.00059093445188 	1.14588819667 	6.09828394519e-06 	0 	0 	0 	0
0.0013013013013 	0.000584136986099 	1.14585843555 	6.59691438283e-06 	0 	0 	0 	0
0.0014014014014 	0.000577339520317 	1.14582867442 	7.09554482046e-06 	0 	0 	0 	0
0.0015015015015 	0.000570542054536 	1.14579891329 	7.5941752581e-06 	0 	0 	0 	0
0.0016016016016 	0.000563744588755 	1.14576915217 	8.09280569574e-06 	0 	0 	0 	0
0.0017017017017 	0.000556947122973 	1.14573939104 	8.59143613338e-06 	0 	0 	0 	0
0.0018018018018 	0.000550149657192 	1.14570962991 	9.09006657101e-06 	0 	0 	0 	0
0.0019019019019 	0.000543352191411 	1.14567986879 	9.58869700865e-06 	0 	0 	0 	0
0.002002002002 	0.00053655472563 	1.14565010766 	1.00873274463e-05 	0 	0 	0 	0
0.0021021021021 	0.000529757259848 	1.14562034653 	1.05859578839e-05 	0 	0 	0 	0
0.0022022022022 	0.000522959794067 	1.14559058541 	1.10845883216e-05 	0 	0 	0 	0
0.0023023023023 	0.000516162328286 	1.14556082428 	1.15832187592e-05 	0 	0 	0 	0
0.0024024024024 	0.000509364862505 	1.14553106316 	1.20818491968e-05 	0 	0 	0 	0
0.0025025025025 	0.000502567396723 	1.14550130203 	1.25804796345e-05 	0 	0 	0 	0
0.0026026026026 	0.000495769930942 	1.1454715409 	1.30791100721e-05 	0 	0 	0 	0
0.0027027027027 	0.000488972465161 	1.14544177978 	1.35777405098e-05 	0 	0 	0 	0
0.0028028028028 	0.00048217499938 	1.14541201865 	1.40763709474e-05 	0 	0 	0 	0
0.0029029029029 	0.000475377533598 	1.14538225752 	1.4575001385e-05 	0 	0 	0 	0
0.003003003003 	0.000468580067817 	1.1453524964 	1.50736318227e-05 	0 	0 	0 	0
0.0031031031031 	0.000461782602036 	1.14532273527 	1.55722622603e-05 	0 	0 	0 	0
0.0032032032032 	0.000454985136255 	1.14529297414 	1.60708926979e-05 	0 	0 	0 	0
0.0033033033033 	0.000448187670473 	1.14526321302 	1.65695231356e-05 	0 	0 	0 	0
0.0034034034034 	0.000441390204692 	1.14523345189 	1.70681535732e-05 	0 	0 	0 	0
0.0035035035035 	0.000434592738911 	1.14520369077 	1.75667840108e-05 	0 	0 	0 	0
0.0036036036036 	0.000427795273129 	1.14517392964 	1.80654144485e-05 	0 	0 	0 	0
0.0037037037037 	0.000420997807348 	1.14514416851 	1.85640448861e-05 	0 	0 	0 	0
0.0038038038038 	0.000414200341567 	1.14511440739 	1.90626753238e-05 	0 	0 	0 	0
0.0039039039039 	0.000407402875786 	1.14508464626 	1.95613057614e-05 	0 	0 	0 	0
0.004004004004 	0.000400605410004 	1.14505488513 	2.0059936199e-05 	0 	0 	0 	0
0.0041041041041 	0.000393807944223 	1.14502512401 	2.05585666367e-05 	0 	0 	0 	0
0.0042042042042 	0.000387010478442 	1.14499536288 	2.10571970743e-05 	0 	0 	0 	0
0.0043043043043 	0.000380213012661 	1.14496560175 	2.15558275119e-05 	0 	0 	0 	0
0.0044044044044 	0.000373415546879 	1.14493584063 	2.20544579496e-05 	0 	0 	0 	0
0.0045045045045 	0.000366618081098 	1.1449060795 	2.25530883872e-05 	0 	0 	0 	0
0.0046046046046 	0.000359820615317 	1.14487631838 	2.30517188249e-05 	0 	0 	0 	0
0.0047047047047 	0.000353023149536 	1.14484655725 	2.35503492625e-05 	0 	0 	0 	0
0.0048048048048 	0.000346225683754 	1.14481679612 	2.40489797001e-05 	0 	0 	0 	0
0.0049049049049 	0.000339428217973 	1.144787035 	2.45476101378e-05 	0 	0 	0 	0
0.00500500500501 	0.000332630752192 	1.14475727387 	2.50462405754e-05 	0 	0 	0 	0
0.00510510510511 	0.000325833286411 	1.14472751274 	2.5544871013e-05 	0 	0 	0 	0
0.00520520520521 	0.000319035820629 	1.14469775162 	2.60435014507e-05 	0 	0 	0 	0
0.00530530530531 	0.000312238354848 	1.14466799049 	2.65421318883e-05 	0 	0 	0 	0
0.00540540540541 	0.000305440889067 	1.14463822937 	2.7040762326e-05 	0 	0 	0 	0
0.00550550550551 	0.000298643423286 	1.14460846824 	2.75393927636e-05 	0 	0 	0 	0
0.00560560560561 	0.000291845957504 	1.14457870711 	2.80380232012e-05 	0 	0 	0 	0
0.00570570570571 	0.000285048491723 	1.14454894599 	2.85366536389e-05 	0 	0 	0 	0
0.00580580580581 	0.000278251025942 	1.14451918486 	2.90352840765e-05 	0 	0 	0 	0
0.00590590590591 	0.00027145356016 	1.14448942373 	2.95339145141e-05 	0 	0 	0 	0
0.00600600600601 	0.000264656094379 	1.14445966261 	3.00325449518e-05 	0 	0 	0 	0
0.00610610610611 	0.000257858628598 	1.14442990148 	3.05311753894e-05 	0 	0 	0 	0
0.00620620620621 	0.000251061162817 	1.14440014035 	3.10298058271e-05 	0 	0 	0 	0
0.00630630630631 	0.000244263697035 	1.14437037923 	3.15284362647e-05 	0 	0 	0 	0
0.00640640640641 	0.000237466231254 	1.1443406181 	3.20270667023e-05 	0 	0 	0 	0
0.00650650650651 	0.000230668765473 	1.14431085698 	3.252569714e-05 	0 	0 	0 	0
0.00660660660661 	0.000223871299692 	1.14428109585 	3.30243275776e-05 	0 	0 	0 	0
0.00670670670671 	0.00021707383391 	1.14425133472 	3.35229580152e-05 	0 	0 	0 	0
0.00680680680681 	0.000210276368129 	1.1442215736 	3.40215884529e-05 	0 	0 	0 	0
0.00690690690691 	0.000203478902348 	1.14419181247 	3.45202188905e-05 	0 	0 	0 	0
0.00700700700701 	0.000196681436567 	1.14416205134 	3.50188493282e-05 	0 	0 	0 	0
0.00710710710711 	0.000189883970785 	1.14413229022 	3.55174797658e-05 	0 	0 	0 	0
0.00720720720721 	0.000183086505004 	1.14410252909 	3.60161102034e-05 	0 	0 	0 	0
0.00730730730731 	0.000176289039223 	1.14407276796 	3.65147406411e-05 	0 	0 	0 	0
0.00740740740741 	0.000169491573441 	1.14404300684 	3.70133710787e-05 	0 	0 	0 	0
0.00750750750751 	0.00016269410766 	1.14401324571 	3.75120015163e-05 	0 	0 	0 	0
0.00760760760761 	0.000155896641879 	1.14398348459 	3.8010631954e-05 	0 	0 	0 	0
0.00770770770771 	0.000149099176098 	1.14395372346 	3.85092623916e-05 	0 	0 	0 	0
0.00780780780781 	0.000142301710316 	1.14392396233 	3.90078928293e-05 	0 	0 	0 	0
0.00790790790791 	0.000135504244535 	1.14389420121 	3.95065232669e-05 	0 	0 	0 	0
0.00800800800801 	0.00013003135451 	1.14385967035 	4.00221349049e-05 	1.86725084214e-23 	0 	0 	0
0.00810810810811 	0.000130286730759 	1.14380451232 	4.06111835181e-05 	1.1809623074e-22 	0 	0 	0
0.00820820820821 	0.000130542107008 	1.14374935429 	4.12002321313e-05 	2.17519953058e-22 	0 	0 	0
0.00830830830831 	0.000130797483257 	1.14369419625 	4.17892807446e-05 	3.16943675377e-22 	0 	0 	0
0.00840840840841 	0.000131052859506 	1.14363903822 	4.23783293578e-05 	4.16367397695e-22 	0 	0 	0
0.00850850850851 	0.000130825165199 	1.14357008496 	4.27635288923e-05 	3.11385147181e-22 	0 	0 	0
0.00860860860861 	0.000130591190395 	1.14350095236 	4.31460781435e-05 	2.03745373181e-22 	0 	0 	0
0.00870870870871 	0.00013035721559 	1.14343181975 	4.35286273948e-05 	9.610559918e-23 	0 	0 	0
0.00880880880881 	0.000130148312432 	1.14336084724 	4.39176960039e-05 	-1.06792579335e-22 	0 	0 	0
0.00890890890891 	0.000130148312432 	1.14327454423 	4.43610855163e-05 	-1.10340735967e-21 	0 	0 	0
0.00900900900901 	0.000130148312432 	1.14318824122 	4.48044750287e-05 	-2.10002214e-21 	0 	0 	0
0.00910910910911 	0.000130148312432 	1.14310193821 	4.52478645411e-05 	-3.09663692033e-21 	0 	0 	0
0.00920920920921 	0.000130148312432 	1.1430156352 	4.56912540535e-05 	-4.09325170066e-21 	0 	0 	0
0.00930930930931 	0.000130148312432 	1.14292933219 	4.61346435659e-05 	-5.08986648099e-21 	0 	0 	0
0.00940940940941 	0.000130148312432 	1.14284302918 	4.65780330783e-05 	-6.08648126132e-21 	0 	0 	0
0.00950950950951 	0.000130148312432 	1.14275672617 	4.70214225907e-05 	-7.08309604165e-21 	0 	0 	0
0.00960960960961 	0.000130148312432 	1.14267042316 	4.7464812103e-05 	-8.07971082198e-21 	0 	0 	0
0.00970970970971 	0.000130148312432 	1.14258412015 	4.79082016154e-05 	-9.07632560231e-21 	0 	0 	0
0.00980980980981 	0.000130148312432 	1.14249781714 	4.83515911278e-05 	-1.00729403826e-20 	0 	0 	0
0.00990990990991 	0.000130148312432 	1.14241151413 	4.87949806402e-05 	-1.1069555163e-20 	0 	0 	0
0.01001001001 	0.000130148312432 	1.14232521111 	4.92383701526e-05 	-1.20661699433e-20 	0 	0 	0
0.0101101101101 	0.000130148312432 	1.1422389081 	4.9681759665e-05 	-1.30627847236e-20 	0 	0 	0
0.0102102102102 	0.000130148312432 	1.14215260509 	5.01251491774e-05 	-1.4059399504e-20 	0 	0 	0
0.0103103103103 	0.000130148312432 	1.14206630208 	5.05685386898e-05 	-1.50560142843e-20 	0 	0 	0
0.0104104104104 	0.000130148312432 	1.14197999907 	5.10119282022e-05 	-1.60526290646e-20 	0 	0 	0
0.0105105105105 	0.000130148312432 	1.14189369606 	5.14553177146e-05 	-1.7049243845e-20 	0 	0 	0
0.0106106106106 	0.000130148312432 	1.14180739305 	5.1898707227e-05 	-1.80458586253e-20 	0 	0 	0
0.0107107107107 	0.000130148312432 	1.14172109004 	5.23420967394e-05 	-1.90424734056e-20 	0 	0 	0
0.0108108108108 	0.000130148312432 	1.14163478703 	5.27854862518e-05 	-2.00390881859e-20 	0 	0 	0
0.0109109109109 	0.000130148312432 	1.14154848402 	5.32288757642e-05 	-2.10357029663e-20 	0 	0 	0
0.011011011011 	0.000130148312432 	1.14146218101 	5.36722652766e-05 	-2.20323177466e-20 	0 	0 	0
0.0111111111111 	0.000130148312432 	1.141375878 	5.4115654789e-05 	-2.30289325269e-20 	0 	0 	0
0.0112112112112 	0.000130148312432 	1.14128957499 	5.45590443014e-05 	-2.40255473073e-20 	0 	0 	0
0.0113113113113 	0.000130148312432 	1.14120327198 	5.50024338138e-05 	-2.50221620876e-20 	0 	0 	0
0.0114114114114 	0.000130148312432 	1.14111696897 	5.54458233262e-05 	-2.60187768679e-20 	0 	0 	0
0.0115115115115 	0.000130148312432 	1.14103066596 	5.58892128385e-05 	-2.70153916483e-20 	0 	0 	0
0.0116116116116 	0.000130148312432 	1.14094436295 	5.63326023509e-05 	-2.80120064286e-20 	0 	0 	0
0.0117117117117 	0.000130148312432 	1.14085805994 	5.67759918633e-05 	-2.90086212089e-20 	0 	0 	0
0.0118118118118 	0.000130148312432 	1.14077175693 	5.72193813757e-05 	-3.00052359892e-20 	0 	0 	0
0.0119119119119 	0.000130148312432 	1.14068545392 	5.76627708881e-05 	-3.10018507696e-20 	0 	0 	0
0.012012012012 	0.000130148312432 	1.14059915091 	5.81061604005e-05 	-3.19984655499e-20 	0 	0 	0
0.0121121121121 	0.000130148312432 	1.1405128479 	5.85495499129e-05 	-3.29950803302e-20 	0 	0 	0
0.0122122122122 	0.000130148312432 	1.14042654489 	5.89929394253e-05 	-3.39916951106e-20 	0 	0 	0
0.0123123123123 	0.000130148312432 	1.14034024188 	5.94363289377e-05 	-3.49883098909e-20 	0 	0 	0
0.0124124124124 	0.000130148312432 	1.14025393887 	5.98797184501e-05 	-3.59849246712e-20 	0 	0 	0
0.0125125125125 	0.000130148312432 	1.14016763586 	6.03231079625e-05 	-3.69815394516e-20 	0 	0 	0
0.0126126126126 	0.000130148312432 	1.14008133284 	6.07664974749e-05 	-3.79781542319e-20 	0 	0 	0
0.0127127127127 	0.000130148312432 	1.13999502983 	6.12098869873e-05 	-3.89747690122e-20 	0 	0 	0
0.0128128128128 	0.000130148312432 	1.13990872682 	6.16532764997e-05 	-3.99713837926e-20 	0 	0 	0
0.0129129129129 	0.000130148312432 	1.13982242381 	6.20966660121e-05 	-4.09679985729e-20 	0 	0 	0
0.013013013013 	0.000130148312432 	1.1397361208 	6.25400555245e-05 	-4.19646133532e-20 	0 	0 	0
0.0131131131131 	0.000130148312432 	1.13964981779 	6.29834450369e-05 	-4.29612281335e-20 	0 	0 	0
0.0132132132132 	0.000130148312432 	1.13956351478 	6.34268345493e-05 	-4.39578429139e-20 	0 	0 	0
0.0133133133133 	0.000130148312432 	1.13947721177 	6.38702240617e-05 	-4.49544576942e-20 	0 	0 	0
0.0134134134134 	0.000130148312432 	1.13939090876 	6.43136135741e-05 	-4.59510724745e-20 	0 	0 	0
0.0135135135135 	0.000130148312432 	1.13930460575 	6.47570030864e-05 	-4.69476872549e-20 	0 	0 	0
0.0136136136136 	0.000130148312432 	1.13921830274 	6.52003925988e-05 	-4.79443020352e-20 	0 	0 	0
0.0137137137137 	0.000130148312432 	1.13913199973 	6.56437821112e-05 	-4.89409168155e-20 	0 	0 	0
0.0138138138138 	0.000130148312432 	1.13904569672 	6.60871716236e-05 	-4.99375315959e-20 	0 	0 	0
0.0139139139139 	0.000130148312432 	1.13895939371 	6.6530561136e-05 	-5.09341463762e-20 	0 	0 	0
0.014014014014 	0.000130148312432 	1.1388730907 	6.69739506484e-05 	-5.19307611565e-20 	0 	0 	0
0.0141141141141 	0.000130148312432 	1.13878678769 	6.74173401608e-05 	-5.29273759368e-20 	0 	0 	0
0.0142142142142 	0.000130148312432 	1.13870048468 	6.78607296732e-05 	-5.39239907172e-20 	0 	0 	0
0.0143143143143 	0.000130148312432 	1.13861418167 	6.83041191856e-05 	-5.49206054975e-20 	0 	0 	0
0.0144144144144 	0.000130148312432 	1.13852787866 	6.8747508698e-05 	-5.59172202778e-20 	0 	0 	0
0.0145145145145 	0.000130148312432 	1.13844157565 	6.91908982104e-05 	-5.69138350582e-20 	0 	0 	0
0.0146146146146 	0.000130148312432 	1.13835527264 	6.96342877228e-05 	-5.79104498385e-20 	0 	0 	0
0.0147147147147 	0.000130148312432 	1.13826896963 	7.00776772352e-05 	-5.89070646188e-20 	0 	0 	0
0.0148148148148 	0.000130148312432 	1.13818266662 	7.05210667476e-05 	-5.99036793992e-20 	0 	0 	0
0.0149149149149 	0.000130148312432 	1.13809636361 	7.096445626e-05 	-6.09002941795e-20 	0 	0 	0
0.015015015015 	0.000130148312432 	1.1380100606 	7.14078457724e-05 	-6.18969089598e-20 	0 	0 	0
0.0151151151151 	0.000130148312432 	1.13792375759 	7.18512352848e-05 	-6.28935237401e-20 	0 	0 	0
0.0152152152152 	0.000130148312432 	1.13783745457 	7.22946247972e-05 	-6.38901385205e-20 	0 	0 	0
0.0153153153153 	0.000130148312432 	1.13775115156 	7.27380143096e-05 	-6.48867533008e-20 	0 	0 	0
0.0154154154154 	0.000130148312432 	1.13766484855 	7.31814038219e-05 	-6.58833680811e-20 	0 	0 	0
0.0155155155155 	0.000130148312432 	1.13757854554 	7.36247933343e-05 	-6.68799828615e-20 	0 	0 	0
0.0156156156156 	0.000130148312432 	1.13749224253 	7.40681828467e-05 	-6.78765976418e-20 	0 	0 	0
0.0157157157157 	0.000130148312432 	1.13740593952 	7.45115723591e-05 	-6.88732124221e-20 	0 	0 	0
0.0158158158158 	0.000130211832899 	1.13731482244 	7.49982451752e-05 	-7.0300425734e-20 	0 	0 	0
0.0159159159159 	0.000130449764644 	1.13721048712 	7.56037630905e-05 	-7.29099546466e-20 	0 	0 	0
0.016016016016 	0.000130687696389 	1.1371061518 	7.62092810058e-05 	-7.55194835591e-20 	0 	0 	0
0.0161161161161 	0.000130925628134 	1.13700181648 	7.68147989211e-05 	-7.81290124716e-20 	0 	0 	0
0.0162162162162 	0.000130999623061 	1.13689092812 	7.72479511497e-05 	-8.03052386473e-20 	0 	0 	0
0.0163163163163 	0.000130813900518 	1.13676965811 	7.7408032444e-05 	-8.17950034655e-20 	0 	0 	0
0.0164164164164 	0.000130628177974 	1.13664838809 	7.75681137383e-05 	-8.32847682838e-20 	0 	0 	0
0.0165165165165 	0.000130442455431 	1.13652711808 	7.77281950326e-05 	-8.4774533102e-20 	0 	0 	0
0.0166166166166 	0.000130405887865 	1.1363969122 	7.80322634004e-05 	-8.423451279e-20 	0 	0 	0
0.0167167167167 	0.000130405887865 	1.13626451557 	7.83716323456e-05 	-8.31968603976e-20 	0 	0 	0
0.0168168168168 	0.000130405887865 	1.13613211893 	7.87110012907e-05 	-8.21592080052e-20 	0 	0 	0
0.0169169169169 	0.000130405887865 	1.1359997223 	7.90503702359e-05 	-8.11215556127e-20 	0 	0 	0
0.017017017017 	0.000130405887865 	1.13586732566 	7.9389739181e-05 	-8.00839032203e-20 	0 	0 	0
0.0171171171171 	0.000130405887865 	1.13573492903 	7.97291081261e-05 	-7.90462508279e-20 	0 	0 	0
0.0172172172172 	0.000130405887865 	1.13560253239 	8.00684770713e-05 	-7.80085984354e-20 	0 	0 	0
0.0173173173173 	0.000130405887865 	1.13547013576 	8.04078460164e-05 	-7.6970946043e-20 	0 	0 	0
0.0174174174174 	0.000130405887865 	1.13533773912 	8.07472149616e-05 	-7.59332936506e-20 	0 	0 	0
0.0175175175175 	0.000130405887865 	1.13520534248 	8.10865839067e-05 	-7.48956412581e-20 	0 	0 	0
0.0176176176176 	0.000130405887865 	1.13507294585 	8.14259528519e-05 	-7.38579888657e-20 	0 	0 	0
0.0177177177177 	0.000130405887865 	1.13494054921 	8.1765321797e-05 	-7.28203364733e-20 	0 	0 	0
0.0178178178178 	0.000130405887865 	1.13480815258 	8.21046907422e-05 	-7.17826840808e-20 	0 	0 	0
0.0179179179179 	0.000130405887865 	1.13467575594 	8.24440596873e-05 	-7.07450316884e-20 	0 	0 	0
0.018018018018 	0.000130405887865 	1.13454335931 	8.27834286325e-05 	-6.9707379296e-20 	0 	0 	0
0.0181181181181 	0.000130405887865 	1.13441096267 	8.31227975776e-05 	-6.86697269035e-20 	0 	0 	0
0.0182182182182 	0.000130405887865 	1.13427856604 	8.34621665228e-05 	-6.76320745111e-20 	0 	0 	0
0.0183183183183 	0.000130405887865 	1.1341461694 	8.38015354679e-05 	-6.65944221187e-20 	0 	0 	0
0.0184184184184 	0.000130405887865 	1.13401377276 	8.4140904413e-05 	-6.55567697262e-20 	0 	0 	0
0.0185185185185 	0.000130405887865 	1.13388137613 	8.44802733582e-05 	-6.45191173338e-20 	0 	0 	0
0.0186186186186 	0.000130405887865 	1.13374897949 	8.48196423033e-05 	-6.34814649414e-20 	0 	0 	0
0.0187187187187 	0.000130405887865 	1.13361658286 	8.51590112485e-05 	-6.24438125489e-20 	0 	0 	0
0.0188188188188 	0.000130405887865 	1.13348418622 	8.54983801936e-05 	-6.14061601565e-20 	0 	0 	0
0.0189189189189 	0.000130405887865 	1.13335178959 	8.58377491388e-05 	-6.03685077641e-20 	0 	0 	0
0.019019019019 	0.000130405887865 	1.13321939295 	8.61771180839e-05 	-5.93308553716e-20 	0 	0 	0
0.0191191191191 	0.000130405887865 	1.13308699632 	8.65164870291e-05 	-5.82932029792e-20 	0 	0 	0
0.0192192192192 	0.000130405887865 	1.13295459968 	8.68558559742e-05 	-5.72555505868e-20 	0 	0 	0
0.0193193193193 	0.000130405887865 	1.13282220304 	8.71952249194e-05 	-5.62178981943e-20 	0 	0 	0
0.0194194194194 	0.000130405887865 	1.13268980641 	8.75345938645e-05 	-5.51802458019e-20 	0 	0 	0
0.0195195195195 	0.000130405887865 	1.13255740977 	8.78739628097e-05 	-5.41425934095e-20 	0 	0 	0
0.0196196196196 	0.000130405887865 	1.13242501314 	8.82133317548e-05 	-5.3104941017e-20 	0 	0 	0
0.0197197197197 	0.000130405887865 	1.1322926165 	8.85527006999e-05 	-5.20672886246e-20 	0 	0 	0
0.0198198198198 	0.000130405887865 	1.13216021987 	8.88920696451e-05 	-5.10296362322e-20 	0 	0 	0
0.0199199199199 	0.000130405887865 	1.13202782323 	8.92314385902e-05 	-4.99919838397e-20 	0 	0 	0
0.02002002002 	0.000130405887865 	1.1318954266 	8.95708075354e-05 	-4.89543314473e-20 	0 	0 	0
0.0201201201201 	0.000130405887865 	1.13176302996 	8.99101764805e-05 	-4.79166790549e-20 	0 	0 	0
0.0202202202202 	0.000130405887865 	1.13163063333 	9.02495454257e-05 	-4.68790266624e-20 	0 	0 	0
0.0203203203203 	0.000130405887865 	1.13149823669 	9.05889143708e-05 	-4.584137427e-20 	0 	0 	0
0.0204204204204 	0.000130405887865 	1.13136584005 	9.0928283316e-05 	-4.48037218776e-20 	0 	0 	0
0.0205205205205 	0.000130405887865 	1.13123344342 	9.12676522611e-05 	-4.37660694851e-20 	0 	0 	0
0.0206206206206 	0.000130405887865 	1.13110104678 	9.16070212063e-05 	-4.27284170927e-20 	0 	0 	0
0.0207207207207 	0.000130405887865 	1.13096865015 	9.19463901514e-05 	-4.16907647003e-20 	0 	0 	0
0.0208208208208 	0.000130405887865 	1.13083625351 	9.22857590966e-05 	-4.06531123078e-20 	0 	0 	0
0.0209209209209 	0.000130405887865 	1.13070385688 	9.26251280417e-05 	-3.96154599154e-20 	0 	0 	0
0.021021021021 	0.000130405887865 	1.13057146024 	9.29644969868e-05 	-3.8577807523e-20 	0 	0 	0
0.0211211211211 	0.000130405887865 	1.13043906361 	9.3303865932e-05 	-3.75401551305e-20 	0 	0 	0
0.0212212212212 	0.000130405887865 	1.13030666697 	9.36432348771e-05 	-3.65025027381e-20 	0 	0 	0
0.0213213213213 	0.000130405887865 	1.13017427033 	9.39826038223e-05 	-3.54648503457e-20 	0 	0 	0
0.0214214214214 	0.000130405887865 	1.1300418737 	9.43219727674e-05 	-3.44271979532e-20 	0 	0 	0
0.0215215215215 	0.000130405887865 	1.12990947706 	9.46613417126e-05 	-3.33895455608e-20 	0 	0 	0
0.0216216216216 	0.000130405887865 	1.12977708043 	9.50007106577e-05 	-3.23518931684e-20 	0 	0 	0
0.0217217217217 	0.000130405887865 	1.12964468379 	9.53400796029e-05 	-3.13142407759e-20 	0 	0 	0
0.0218218218218 	0.000130405887865 	1.12951228716 	9.5679448548e-05 	-3.02765883835e-20 	0 	0 	0
0.0219219219219 	0.000130405887865 	1.12937989052 	9.60188174932e-05 	-2.92389359911e-20 	0 	0 	0
0.022022022022 	0.000130405887865 	1.12924749389 	9.63581864383e-05 	-2.82012835986e-20 	0 	0 	0
0.0221221221221 	0.000130405887865 	1.12911509725 	9.66975553835e-05 	-2.71636312062e-20 	0 	0 	0
0.0222222222222 	0.000130405887865 	1.12898270061 	9.70369243286e-05 	-2.61259788138e-20 	0 	0 	0
0.0223223223223 	0.000130405887865 	1.12885030398 	9.73762932737e-05 	-2.50883264213e-20 	0 	0 	0
0.0224224224224 	0.000130405887865 	1.12871790734 	9.77156622189e-05 	-2.40506740289e-20 	0 	0 	0
0.0225225225225 	0.000130405887865 	1.12858551071 	9.8055031164e-05 	-2.30130216365e-20 	0 	0 	0
0.0226226226226 	0.000130405887865 	1.12845311407 	9.83944001092e-05 	-2.1975369244e-20 	0 	0 	0
0.0227227227227 	0.000130405887865 	1.12832071744 	9.87337690543e-05 	-2.09377168516e-20 	0 	0 	0
0.0228228228228 	0.000130405887865 	1.1281883208 	9.90731379995e-05 	-1.99000644592e-20 	0 	0 	0
0.0229229229229 	0.000130405887865 	1.12805592417 	9.94125069446e-05 	-1.88624120667e-20 	0 	0 	0
0.023023023023 	0.000130462471427 	1.12791993664 	9.98274386229e-05 	-1.73587049663e-20 	0 	0 	0
0.0231231231231 	0.000130655088469 	1.1277753162 	0.000100424031922 	-1.47345480104e-20 	0 	0 	0
0.0232232232232 	0.000130847705511 	1.12763069576 	0.00010102062522 	-1.21103910545e-20 	0 	0 	0
0.0233233233233 	0.000131040322553 	1.12748607532 	0.000101617218519 	-9.48623409854e-21 	0 	0 	0
0.0234234234234 	0.000131015953873 	1.12732827138 	0.000101748261228 	-4.23740432896e-21 	0 	0 	0
0.0235235235235 	0.000130902918262 	1.12716508026 	0.00010168906588 	2.08394616814e-21 	0 	0 	0
0.0236236236236 	0.000130789882651 	1.12700188915 	0.000101629870532 	8.40529666525e-21 	0 	0 	0
0.0237237237237 	0.000130722017134 	1.12683561541 	0.000101687611178 	1.22323107933e-20 	0 	0 	0
0.0238238238238 	0.000130722017134 	1.1266647102 	0.000101921041554 	1.23117253271e-20 	0 	0 	0
0.0239239239239 	0.000130722017134 	1.126493805 	0.00010215447193 	1.2391139861e-20 	0 	0 	0
0.024024024024 	0.000130722017134 	1.12632289979 	0.000102387902306 	1.24705543948e-20 	0 	0 	0
0.0241241241241 	0.000130722017134 	1.12615199458 	0.000102621332682 	1.25499689287e-20 	0 	0 	0
0.0242242242242 	0.000130722017134 	1.12598108938 	0.000102854763058 	1.26293834626e-20 	0 	0 	0
0.0243243243243 	0.000130722017134 	1.12581018417 	0.000103088193434 	1.27087979964e-20 	0 	0 	0
0.0244244244244 	0.000130722017134 	1.12563927897 	0.00010332162381 	1.27882125303e-20 	0 	0 	0
0.0245245245245 	0.000130722017134 	1.12546837376 	0.000103555054186 	1.28676270641e-20 	0 	0 	0
0.0246246246246 	0.000130722017134 	1.12529746855 	0.000103788484562 	1.2947041598e-20 	0 	0 	0
0.0247247247247 	0.000130722017134 	1.12512656335 	0.000104021914938 	1.30264561318e-20 	0 	0 	0
0.0248248248248 	0.000130722017134 	1.12495565814 	0.000104255345314 	1.31058706657e-20 	0 	0 	0
0.0249249249249 	0.000130722017134 	1.12478475294 	0.00010448877569 	1.31852851996e-20 	0 	0 	0
0.025025025025 	0.000130722017134 	1.12461384773 	0.000104722206066 	1.32646997334e-20 	0 	0 	0
0.0251251251251 	0.000130722017134 	1.12444294252 	0.000104955636442 	1.33441142673e-20 	0 	0 	0
0.0252252252252 	0.000130722017134 	1.12427203732 	0.000105189066818 	1.34235288011e-20 	0 	0 	0
0.0253253253253 	0.000130722017134 	1.12410113211 	0.000105422497194 	1.3502943335e-20 	0 	0 	0
0.0254254254254 	0.000130722017134 	1.12393022691 	0.00010565592757 	1.35823578689e-20 	0 	0 	0
0.0255255255255 	0.000130722017134 	1.1237593217 	0.000105889357946 	1.36617724027e-20 	0 	0 	0
0.0256256256256 	0.000130722017134 	1.12358841649 	0.000106122788322 	1.37411869366e-20 	0 	0 	0
0.0257257257257 	0.000130722017134 	1.12341751129 	0.000106356218698 	1.38206014704e-20 	0 	0 	0
0.0258258258258 	0.000130722017134 	1.12324660608 	0.000106589649074 	1.39000160043e-20 	0 	0 	0
0.0259259259259 	0.000130722017134 	1.12307570088 	0.00010682307945 	1.39794305382e-20 	0 	0 	0
0.026026026026 	0.000130722017134 	1.12290479567 	0.000107056509826 	1.4058845072e-20 	0 	0 	0
0.0261261261261 	0.000130722017134 	1.12273389047 	0.000107289940202 	1.41382596059e-20 	0 	0 	0
0.0262262262262 	0.000130722017134 	1.12256298526 	0.000107523370578 	1.42176741397e-20 	0 	0 	0
0.0263263263263 	0.000130722017134 	1.12239208005 	0.000107756800954 	1.42970886736e-20 	0 	0 	0
0.0264264264264 	0.000130722017134 	1.12222117485 	0.00010799023133 	1.43765032075e-20 	0 	0 	0
0.0265265265265 	0.000130722017134 	1.12205026964 	0.000108223661706 	1.44559177413e-20 	0 	0 	0
0.0266266266266 	0.000130722017134 	1.12187936444 	0.000108457092082 	1.45353322752e-20 	0 	0 	0
0.0267267267267 	0.000130722017134 	1.12170845923 	0.000108690522457 	1.4614746809e-20 	0 	0 	0
0.0268268268268 	0.000130722017134 	1.12153755402 	0.000108923952833 	1.46941613429e-20 	0 	0 	0
0.0269269269269 	0.000130722017134 	1.12136664882 	0.000109157383209 	1.47735758767e-20 	0 	0 	0
0.027027027027 	0.000130722017134 	1.12119574361 	0.000109390813585 	1.48529904106e-20 	0 	0 	0
0.0271271271271 	0.000130722017134 	1.12102483841 	0.000109624243961 	1.49324049445e-20 	0 	0 	0
0.0272272272272 	0.000130722017134 	1.1208539332 	0.000109857674337 	1.50118194783e-20 	0 	0 	0
0.0273273273273 	0.000130722017134 	1.12068302799 	0.000110091104713 	1.50912340122e-20 	0 	0 	0
0.0274274274274 	0.000130722017134 	1.12051212279 	0.000110324535089 	1.5170648546e-20 	0 	0 	0
0.0275275275275 	0.000130722017134 	1.12034121758 	0.000110557965465 	1.52500630799e-20 	0 	0 	0
0.0276276276276 	0.000130722017134 	1.12017031238 	0.000110791395841 	1.53294776138e-20 	0 	0 	0
0.0277277277277 	0.000130722017134 	1.11999940717 	0.000111024826217 	1.54088921476e-20 	0 	0 	0
0.0278278278278 	0.000130722017134 	1.11982850196 	0.000111258256593 	1.54883066815e-20 	0 	0 	0
0.0279279279279 	0.000130722017134 	1.11965759676 	0.000111491686969 	1.55677212153e-20 	0 	0 	0
0.028028028028 	0.000130722017134 	1.11948669155 	0.000111725117345 	1.56471357492e-20 	0 	0 	0
0.0281281281281 	0.000130722017134 	1.11931578635 	0.000111958547721 	1.57265502831e-20 	0 	0 	0
0.0282282282282 	0.000130722017134 	1.11914488114 	0.000112191978097 	1.58059648169e-20 	0 	0 	0
0.0283283283283 	0.000130722017134 	1.11897397593 	0.000112425408473 	1.58853793508e-20 	0 	0 	0
0.0284284284284 	0.000130722017134 	1.11880307073 	0.000112658838849 	1.59647938846e-20 	0 	0 	0
0.0285285285285 	0.000130722017134 	1.11863216552 	0.000112892269225 	1.60442084185e-20 	0 	0 	0
0.0286286286286 	0.000130722017134 	1.11846126032 	0.000113125699601 	1.61236229524e-20 	0 	0 	0
0.0287287287287 	0.000130722017134 	1.11829035511 	0.000113359129977 	1.62030374862e-20 	0 	0 	0
0.0288288288288 	0.000130722017134 	1.1181194499 	0.000113592560353 	1.62824520201e-20 	0 	0 	0
0.0289289289289 	0.000130722017134 	1.1179485447 	0.000113825990729 	1.63618665539e-20 	0 	0 	0
0.029029029029 	0.000130722017134 	1.11777763949 	0.000114059421105 	1.64412810878e-20 	0 	0 	0
0.0291291291291 	0.000130722017134 	1.11760673429 	0.000114292851481 	1.65206956216e-20 	0 	0 	0
0.0292292292292 	0.000130722017134 	1.11743582908 	0.000114526281857 	1.66001101555e-20 	0 	0 	0
0.0293293293293 	0.000130722017134 	1.11726492387 	0.000114759712233 	1.66795246894e-20 	0 	0 	0
0.0294294294294 	0.000130722017134 	1.11709401867 	0.000114993142609 	1.67589392232e-20 	0 	0 	0
0.0295295295295 	0.000130722017134 	1.11692311346 	0.000115226572985 	1.68383537571e-20 	0 	0 	0
0.0296296296296 	0.000130722017134 	1.11675220826 	0.000115460003361 	1.69177682909e-20 	0 	0 	0
0.0297297297297 	0.000130821583095 	1.11657408273 	0.000115977258941 	1.33198529442e-20 	0 	0 	0
0.0298298298298 	0.000130943868771 	1.11639430962 	0.000116559279907 	8.88281660532e-21 	0 	0 	0
0.0299299299299 	0.000131066154448 	1.11621453652 	0.000117141300873 	4.44578026645e-21 	0 	0 	0
0.03003003003 	0.0001311160752 	1.11602492403 	0.000117301863824 	-1.58281773683e-22 	0 	0 	0
0.0301301301301 	0.000131094753404 	1.11582562478 	0.000117047505552 	-4.92677895466e-21 	0 	0 	0
0.0302302302302 	0.000131073431608 	1.11562632553 	0.000116793147281 	-9.69527613563e-21 	0 	0 	0
0.0303303303303 	0.000131061625305 	1.1154242855 	0.000116713583827 	-1.2879178573e-20 	0 	0 	0
0.0304304304304 	0.000131061625305 	1.11521884488 	0.000116850896229 	-1.40970024625e-20 	0 	0 	0
0.0305305305305 	0.000131061625305 	1.11501340425 	0.00011698820863 	-1.5314826352e-20 	0 	0 	0
0.0306306306306 	0.000131061625305 	1.11480796362 	0.000117125521032 	-1.65326502415e-20 	0 	0 	0
0.0307307307307 	0.000131061625305 	1.11460252299 	0.000117262833434 	-1.7750474131e-20 	0 	0 	0
0.0308308308308 	0.000131061625305 	1.11439708236 	0.000117400145836 	-1.89682980205e-20 	0 	0 	0
0.0309309309309 	0.000131061625305 	1.11419164174 	0.000117537458237 	-2.018612191e-20 	0 	0 	0
0.031031031031 	0.000131061625305 	1.11398620111 	0.000117674770639 	-2.14039457994e-20 	0 	0 	0
0.0311311311311 	0.000131061625305 	1.11378076048 	0.000117812083041 	-2.26217696889e-20 	0 	0 	0
0.0312312312312 	0.000131061625305 	1.11357531985 	0.000117949395443 	-2.38395935784e-20 	0 	0 	0
0.0313313313313 	0.000131061625305 	1.11336987923 	0.000118086707845 	-2.50574174679e-20 	0 	0 	0
0.0314314314314 	0.000131061625305 	1.1131644386 	0.000118224020246 	-2.62752413574e-20 	0 	0 	0
0.0315315315315 	0.000131061625305 	1.11295899797 	0.000118361332648 	-2.74930652469e-20 	0 	0 	0
0.0316316316316 	0.000131061625305 	1.11275355734 	0.00011849864505 	-2.87108891364e-20 	0 	0 	0
0.0317317317317 	0.000131061625305 	1.11254811672 	0.000118635957452 	-2.99287130259e-20 	0 	0 	0
0.0318318318318 	0.000131061625305 	1.11234267609 	0.000118773269853 	-3.11465369154e-20 	0 	0 	0
0.0319319319319 	0.000131061625305 	1.11213723546 	0.000118910582255 	-3.23643608049e-20 	0 	0 	0
0.032032032032 	0.000131061625305 	1.11193179483 	0.000119047894657 	-3.35821846944e-20 	0 	0 	0