# Region        : all region0
# Cells         : 13056
# Volume        : 2.33333000e+00
# Time          	min(p)	min(k)	min(omega)	min(nut)
1               	2.52794914e-07	5.54941986e-05	1.91864040e+02	1.42594108e-13
2               	-6.02447106e-05	2.59642429e-05	7.31764735e+01	3.95065203e-13
3               	-2.78101362e-04	1.65263922e-05	4.00828349e+01	3.14091224e-13
4               	-5.37290087e-04	1.11969923e-05	2.67456043e+01	2.23806265e-13
5               	-8.33626410e-04	7.66622129e-06	1.98632431e+01	1.58238986e-13
6               	-1.16192677e-03	5.36902432e-06	1.57513087e+01	1.14531309e-13
7               	-1.51840331e-03	3.82757309e-06	1.30718836e+01	8.54327257e-14
8               	-1.90302632e-03	2.77849965e-06	1.12385991e+01	6.56596351e-14
9               	-2.31599023e-03	2.05454767e-06	9.95360195e+00	5.18372701e-14
10              	-2.75674530e-03	1.54791675e-06	9.04352038e+00	4.18801659e-14
11              	-3.22487729e-03	1.18768685e-06	8.39473423e+00	3.44016710e-14
12              	-3.71923937e-03	9.28329500e-07	7.92709109e+00	2.86136226e-14
13              	-4.23756206e-03	7.39172323e-07	7.58299966e+00	2.41490345e-14
14              	-4.77711779e-03	5.97596687e-07	7.32199027e+00	2.06279797e-14
15              	-5.33410527e-03	4.89228612e-07	7.11675855e+00	1.77980399e-14
16              	-5.90456409e-03	4.04944845e-07	6.94960162e+00	1.54863979e-14
17              	-6.48421218e-03	3.38547749e-07	6.80930545e+00	1.35717465e-14
18              	-7.06747169e-03	2.85643403e-07	6.68872829e+00	1.19669419e-14
19              	-7.65011639e-03	2.41924526e-07	6.58314623e+00	1.06080250e-14
20              	-8.22754494e-03	2.01036726e-07	6.48923841e+00	9.44711767e-15
21              	-8.79440046e-03	1.68280075e-07	6.40451173e+00	8.44773010e-15
22              	-9.34621552e-03	1.41852887e-07	6.32698455e+00	7.57470681e-15
23              	-9.88024037e-03	1.20461594e-07	6.25500768e+00	6.80521856e-15
24              	-1.03936393e-02	1.03171996e-07	6.18715780e+00	6.13479689e-15
25              	-1.08829049e-02	8.89783757e-08	6.12217462e+00	5.54604978e-15
26              	-1.13467647e-02	7.71712172e-08	6.05893064e+00	5.02665351e-15
27              	-1.17849101e-02	6.72744388e-08	5.99642856e+00	4.56666774e-15
28              	-1.21957367e-02	5.76882257e-08	5.93382129e+00	4.15787664e-15
29              	-1.25791840e-02	4.93699310e-08	5.87044885e+00	3.79339984e-15
30              	-1.29347355e-02	4.24658402e-08	5.80588404e+00	3.46747179e-15
31              	-1.32635172e-02	3.67204793e-08	5.73997769e+00	3.17521734e-15
32              	-1.35657213e-02	3.19540067e-08	5.67289248e+00	2.91259458e-15
33              	-1.38398429e-02	2.79743971e-08	5.60511499e+00	2.67496523e-15
34              	-1.40848066e-02	2.46149106e-08	5.53743673e+00	2.46017143e-15
35              	-1.43021476e-02	2.12092853e-08	5.47089915e+00	2.26563219e-15
36              	-1.44934211e-02	1.83578245e-08	5.40670370e+00	2.08910918e-15
37              	-1.46604169e-02	1.59662461e-08	5.34609486e+00	1.92850083e-15
38              	-1.48048875e-02	1.39546591e-08	5.29023125e+00	1.78213600e-15
39              	-1.49284133e-02	1.22653378e-08	5.24006393e+00	1.64861493e-15
40              	-1.50331503e-02	1.07655613e-08	5.19624140e+00	1.52661077e-15
41              	-1.51209302e-02	9.33560699e-09	5.15905619e+00	1.41496368e-15
42              	-1.51930590e-02	8.13547316e-09	5.12843990e+00	1.31265333e-15
43              	-1.52480865e-02	7.12371767e-09	5.10400377e+00	1.21844757e-15
44              	-1.52857773e-02	6.26848907e-09	5.08511334e+00	1.13135186e-15
45              	-1.53050530e-02	5.50220033e-09	5.07098091e+00	1.05137288e-15
46              	-1.53080292e-02	4.78627264e-09	5.06075881e+00	9.77832982e-16
47              	-1.52967203e-02	4.18460298e-09	5.05361942e+00	9.10129987e-16
48              	-1.52719465e-02	3.67659624e-09	5.04881381e+00	8.47728798e-16
49              	-1.52341406e-02	3.24573659e-09	5.04570616e+00	7.90153156e-16
50              	-1.51873426e-02	2.82262798e-09	5.04378636e+00	7.36977452e-16
51              	-1.51296347e-02	2.46724555e-09	5.04266573e+00	6.87818731e-16
52              	-1.50618239e-02	2.16755854e-09	5.04206217e+00	6.42331511e-16
53              	-1.49833373e-02	1.91007359e-09	5.04178024e+00	6.00204206e-16
54              	-1.48963494e-02	1.66323075e-09	5.04169049e+00	5.61155773e-16
55              	-1.48014685e-02	1.45564102e-09	5.04171100e+00	5.24932326e-16
56              	-1.46990495e-02	1.28045359e-09	5.04179217e+00	4.91303819e-16
57              	-1.45908387e-02	1.12123953e-09	5.04190533e+00	4.60061376e-16
58              	-1.44763030e-02	9.78801134e-10	5.04203466e+00	4.31015147e-16
59              	-1.43559323e-02	8.58793803e-10	5.04217186e+00	4.03992425e-16
60              	-1.42300334e-02	7.54184432e-10	5.04231275e+00	3.78835880e-16
61              	-1.40990634e-02	6.57386035e-10	5.04245535e+00	3.55401957e-16
62              	-1.39625947e-02	5.75916203e-10	5.04259874e+00	3.33559509e-16
63              	-1.38215614e-02	5.05790690e-10	5.04274248e+00	3.13188596e-16
64              	-1.36751294e-02	4.40601646e-10	5.04288637e+00	2.94179415e-16
65              	-1.35220504e-02	3.85763497e-10	5.04303027e+00	2.76431324e-16
66              	-1.33625962e-02	3.38297208e-10	5.04317407e+00	2.59851980e-16
67              	-1.31978096e-02	2.94761558e-10	5.04331769e+00	2.44356575e-16
68              	-1.30299551e-02	2.58135447e-10	5.04346104e+00	2.29867148e-16
69              	-1.28582451e-02	2.25972244e-10	5.04360402e+00	2.16311962e-16
70              	-1.26822942e-02	1.97112194e-10	5.04374656e+00	2.03624952e-16
71              	-1.25031166e-02	1.72821206e-10	5.04388857e+00	1.91745225e-16
72              	-1.23211868e-02	1.51223081e-10	5.04402999e+00	1.80616605e-16
73              	-1.21372514e-02	1.32222919e-10	5.04417075e+00	1.70187232e-16
74              	-1.19513154e-02	1.16223410e-10	5.04431080e+00	1.60409190e-16
75              	-1.17629139e-02	1.02130451e-10	5.04445009e+00	1.51238175e-16
76              	-1.15735429e-02	8.97256969e-11	5.04458856e+00	1.42633196e-16
77              	-1.13841380e-02	7.92850100e-11	5.04472618e+00	1.34556297e-16
78              	-1.11944864e-02	7.04743856e-11	5.04486291e+00	1.26972312e-16
79              	-1.10043609e-02	6.28781125e-11	5.04499870e+00	1.19848636e-16
80              	-1.08144213e-02	5.62014256e-11	5.04513353e+00	1.13155024e-16
81              	-1.06249724e-02	5.06009157e-11	5.04526735e+00	1.06863397e-16
82              	-1.04353012e-02	4.59007213e-11	5.04540013e+00	1.00947676e-16
83              	-1.02441152e-02	4.19563795e-11	5.04553182e+00	9.53836262e-17
84              	-1.00520333e-02	3.86494444e-11	5.04566239e+00	9.01487094e-17
85              	-9.85928613e-03	3.58830147e-11	5.04579180e+00	8.52219579e-17
86              	-9.66650166e-03	3.35779848e-11	5.04592003e+00	8.05737549e-17
87              	-9.47342865e-03	3.16699727e-11	5.04604705e+00	7.61962494e-17
88              	-9.28026137e-03	3.01068471e-11	5.04617284e+00	7.20735648e-17
89              	-9.08711359e-03	2.86163633e-11	5.04629737e+00	6.81897707e-17
90              	-8.89376819e-03	2.73071999e-11	5.04642064e+00	6.45300149e-17
91              	-8.70078583e-03	2.62106349e-11	5.04654263e+00	6.10804430e-17
92              	-8.50858886e-03	2.53075703e-11	5.04666333e+00	5.78281258e-17
93              	-8.31684759e-03	2.45833340e-11	5.04678273e+00	5.47609921e-17
94              	-8.12589662e-03	2.40271016e-11	5.04690081e+00	5.18677666e-17
95              	-7.93609023e-03	2.35580364e-11	5.04701758e+00	4.91379130e-17
96              	-7.74736131e-03	2.29054141e-11	5.04713300e+00	4.65615815e-17
97              	-7.56092921e-03	2.23836495e-11	5.04724708e+00	4.41295603e-17
98              	-7.37648469e-03	2.19920615e-11	5.04735979e+00	4.18332309e-17
99              	-7.19416981e-03	2.17323139e-11	5.04747114e+00	3.96645270e-17
100             	-7.01380830e-03	2.16079313e-11	5.04758109e+00	3.76158958e-17
101             	-6.83519418e-03	2.12180349e-11	5.04768964e+00	3.56802635e-17
102             	-6.65828130e-03	2.08989079e-11	5.04779677e+00	3.38510016e-17
103             	-6.48332102e-03	2.07036024e-11	5.04790246e+00	3.21218977e-17
104             	-6.31037203e-03	2.06407920e-11	5.04800671e+00	3.04871268e-17
105             	-6.14017459e-03	2.06748550e-11	5.04810949e+00	2.89412257e-17
106             	-5.97215404e-03	2.04018674e-11	5.04821079e+00	2.74790687e-17
107             	-5.80635451e-03	2.02561758e-11	5.04831059e+00	2.60958455e-17
108             	-5.64277459e-03	2.02490598e-11	5.04840887e+00	2.47870399e-17
109             	-5.48171836e-03	2.03957561e-11	5.04850561e+00	2.35484117e-17
110             	-5.32294148e-03	2.03660297e-11	5.04860082e+00	2.23759779e-17
111             	-5.16696578e-03	2.02752795e-11	5.04869448e+00	2.12659961e-17
112             	-5.01411637e-03	2.03362929e-11	5.04878660e+00	2.02149492e-17
113             	-4.86337684e-03	2.05679596e-11	5.04887721e+00	1.92195315e-17
114             	-4.71480922e-03	2.07476411e-11	5.04896632e+00	1.82766353e-17
115             	-4.60591971e-03	2.07247936e-11	5.04905399e+00	1.73833382e-17
116             	-4.50064785e-03	2.08731277e-11	5.04914025e+00	1.65368905e-17
117             	-4.39618763e-03	2.12147121e-11	5.04922517e+00	1.57347061e-17
118             	-4.29268390e-03	2.15477341e-11	5.04930882e+00	1.49743538e-17
119             	-4.19005189e-03	2.15028291e-11	5.04939129e+00	1.42535456e-17
120             	-4.08797564e-03	2.14263643e-11	5.04947268e+00	1.35701269e-17
121             	-3.98636219e-03	2.14002084e-11	5.04955308e+00	1.29220691e-17
122             	-3.88525729e-03	2.14292306e-11	5.04963259e+00	1.23074705e-17
123             	-3.78469579e-03	2.15319150e-11	5.04971131e+00	1.17245415e-17
124             	-3.68580283e-03	2.14828711e-11	5.04978928e+00	1.11715926e-17
125             	-3.58845975e-03	2.12740639e-11	5.04986655e+00	1.06470269e-17
126             	-3.49156169e-03	2.11291055e-11	5.04994313e+00	1.01493707e-17
127             	-3.39525929e-03	2.10406656e-11	5.05001903e+00	9.67723483e-18
128             	-3.29966816e-03	2.10094755e-11	5.05009422e+00	9.22929848e-18
129             	-3.20491027e-03	2.10375906e-11	5.05016868e+00	8.80428163e-18
130             	-3.11108078e-03	2.11249368e-11	5.05024238e+00	8.40108243e-18
131             	-3.01808652e-03	2.08858686e-11	5.05031530e+00	8.01865306e-18
132             	-2.92609943e-03	2.06750963e-11	5.05038742e+00	7.65596933e-18
133             	-2.83524756e-03	2.05110506e-11	5.05045871e+00	7.31196453e-18
134             	-2.74556711e-03	2.03903530e-11	5.05052919e+00	6.98579117e-18
135             	-2.65708331e-03	2.03063575e-11	5.05059884e+00	6.67679461e-18
136             	-2.57005828e-03	2.02504647e-11	5.05066766e+00	6.38421214e-18
137             	-2.48442280e-03	2.02225458e-11	5.05073566e+00	6.10724906e-18
138             	-2.40005122e-03	2.02234296e-11	5.05080287e+00	5.84371204e-18
139             	-2.31702725e-03	1.99800341e-11	5.05086929e+00	5.58905991e-18
140             	-2.23535727e-03	1.97286280e-11	5.05093495e+00	5.34740242e-18
141             	-2.15504544e-03	1.95069448e-11	5.05099985e+00	5.11810063e-18
142             	-2.07605096e-03	1.93095119e-11	5.05106400e+00	4.90052373e-18
143             	-1.99835844e-03	1.91349212e-11	5.05112742e+00	4.69384530e-18
144             	-1.92199097e-03	1.89795606e-11	5.05119009e+00	4.49760257e-18
145             	-1.84690608e-03	1.88392781e-11	5.05125202e+00	4.31177469e-18
146             	-1.77308199e-03	1.87152083e-11	5.05131320e+00	4.13579117e-18
147             	-1.70052564e-03	1.86061265e-11	5.05137362e+00	3.96912655e-18
148             	-1.62921227e-03	1.85116729e-11	5.05143327e+00	3.81121611e-18
149             	-1.55927805e-03	1.84307789e-11	5.05149214e+00	3.66136307e-18
150             	-1.49115918e-03	1.82074240e-11	5.05155022e+00	3.51845064e-18
151             	-1.42424911e-03	1.79529885e-11	5.05160751e+00	3.38325757e-18
152             	-1.35847234e-03	1.77140997e-11	5.05166399e+00	3.25626613e-18
153             	-1.29377525e-03	1.74898602e-11	5.05171966e+00	3.13659022e-18
154             	-1.23030434e-03	1.72785428e-11	5.05177452e+00	3.02368770e-18
155             	-1.16806293e-03	1.70784341e-11	5.05182855e+00	2.90922533e-18
156             	-1.10700861e-03	1.68876013e-11	5.05188174e+00	2.80039464e-18
157             	-1.04696137e-03	1.67028866e-11	5.05193410e+00	2.69697438e-18
158             	-9.88131164e-04	1.65220118e-11	5.05198563e+00	2.59862909e-18
159             	-9.30434199e-04	1.63454028e-11	5.05203633e+00	2.50492787e-18
160             	-8.74019397e-04	1.61749625e-11	5.05208620e+00	2.41558111e-18
161             	-8.18776427e-04	1.60104583e-11	5.05213522e+00	2.33121797e-18
162             	-7.64685509e-04	1.58524543e-11	5.05218341e+00	2.25122066e-18
163             	-7.11563960e-04	1.57015664e-11	5.05223076e+00	2.17531323e-18
164             	-6.59468165e-04	1.55564804e-11	5.05227730e+00	2.10325070e-18
165             	-6.08487240e-04	1.54181289e-11	5.05232302e+00	2.03482306e-18
166             	-5.58997472e-04	1.52864471e-11	5.05236792e+00	1.96983676e-18
167             	-5.11106990e-04	1.51612758e-11	5.05241197e+00	1.90811121e-18
168             	-4.64223507e-04	1.50413580e-11	5.05245518e+00	1.84947425e-18
169             	-4.18333586e-04	1.48876307e-11	5.05249755e+00	1.79375950e-18
170             	-4.20721427e-04	1.46947761e-11	5.05253911e+00	1.74080251e-18
171             	-4.23631935e-04	1.45087589e-11	5.05257985e+00	1.69043469e-18
172             	-4.26407145e-04	1.43298670e-11	5.05261976e+00	1.64247116e-18
173             	-4.29053563e-04	1.41595481e-11	5.05265883e+00	1.59668545e-18
174             	-4.31614312e-04	1.39931774e-11	5.05269704e+00	1.55275891e-18
175             	-4.34096513e-04	1.38357802e-11	5.05273441e+00	1.51024287e-18
176             	-4.36495715e-04	1.36814274e-11	5.05277095e+00	1.46909359e-18
177             	-4.38826854e-04	1.35354804e-11	5.05280668e+00	1.43108092e-18
178             	-4.41036050e-04	1.33920251e-11	5.05284161e+00	1.39588714e-18
179             	-4.43130716e-04	1.32561785e-11	5.05287574e+00	1.36257346e-18
180             	-4.45128732e-04	1.31225670e-11	5.05290908e+00	1.33101568e-18
181             	-4.47063088e-04	1.29945234e-11	5.05294162e+00	1.30106650e-18
182             	-4.48972095e-04	1.28713561e-11	5.05297337e+00	1.27262933e-18
183             	-4.50864027e-04	1.27499516e-11	5.05300433e+00	1.24561861e-18
184             	-4.52727687e-04	1.26335676e-11	5.05303453e+00	1.21995826e-18
185             	-4.54553108e-04	1.25216456e-11	5.05306398e+00	1.19557760e-18
186             	-4.56334549e-04	1.24104986e-11	5.05309268e+00	1.17241042e-18
187             	-4.58074012e-04	1.23029916e-11	5.05312064e+00	1.15039425e-18
188             	-4.59787405e-04	1.21988655e-11	5.05314788e+00	1.12903367e-18
189             	-4.61492236e-04	1.20978961e-11	5.05317441e+00	1.10698888e-18
190             	-4.63197499e-04	1.19990441e-11	5.05320022e+00	1.08598466e-18
191             	-4.64908736e-04	1.19016533e-11	5.05322532e+00	1.06597082e-18
192             	-4.66617836e-04	1.18077596e-11	5.05324973e+00	1.04689974e-18
193             	-4.68305846e-04	1.17181805e-11	5.05327344e+00	1.02872621e-18
194             	-4.69959352e-04	1.16305036e-11	5.05329647e+00	1.01140728e-18
195             	-4.71572399e-04	1.15446445e-11	5.05331881e+00	9.94902198e-19
196             	-4.73146900e-04	1.14637032e-11	5.05334049e+00	9.79172238e-19
197             	-4.74693334e-04	1.13861489e-11	5.05336152e+00	9.64180625e-19
198             	-4.76217280e-04	1.13083310e-11	5.05338191e+00	9.49892421e-19
199             	-4.77726063e-04	1.12351261e-11	5.05340169e+00	9.36274425e-19
200             	-4.79211879e-04	1.11662153e-11	5.05342086e+00	9.23295087e-19
201             	-4.80669602e-04	1.10966851e-11	5.05343943e+00	9.10924414e-19
202             	-4.82094619e-04	1.10298068e-11	5.05345742e+00	8.98442170e-19
203             	-4.83482949e-04	1.09664785e-11	5.05347482e+00	8.84502419e-19
204             	-4.84808708e-04	1.09063334e-11	5.05349164e+00	8.71532749e-19
205             	-4.86068474e-04	1.08454474e-11	5.05350789e+00	8.59040975e-19
206             	-4.87264914e-04	1.07866876e-11	5.05352357e+00	8.46695938e-19
207             	-4.88401527e-04	1.07306221e-11	5.05353871e+00	8.35073891e-19
208             	-4.89486440e-04	1.06770215e-11	5.05355332e+00	8.23961336e-19
209             	-4.90524006e-04	1.06251825e-11	5.05356741e+00	8.12860817e-19
210             	-4.91513425e-04	1.05726197e-11	5.05358100e+00	8.02379035e-19
211             	-4.92456521e-04	1.05087375e-11	5.05359410e+00	7.92458386e-19
212             	-4.93353654e-04	1.04401550e-11	5.05360673e+00	7.82597502e-19
213             	-4.94205645e-04	1.03741908e-11	5.05361890e+00	7.73081093e-19
214             	-4.95011811e-04	1.03107316e-11	5.05363064e+00	7.64062704e-19
215             	-4.95769760e-04	1.02486828e-11	5.05364194e+00	7.55499503e-19
216             	-4.96486136e-04	1.01869184e-11	5.05365281e+00	7.46869233e-19
217             	-4.97165693e-04	1.01273920e-11	5.05366326e+00	7.38620229e-19
218             	-4.97813574e-04	1.00700101e-11	5.05367330e+00	7.30780390e-19
219             	-4.98432985e-04	1.00146597e-11	5.05368294e+00	7.23323590e-19
220             	-4.99027031e-04	9.96119962e-12	5.05369218e+00	7.15899129e-19
221             	-4.99598822e-04	9.90955285e-12	5.05370104e+00	7.08678254e-19
222             	-5.00150263e-04	9.85965357e-12	5.05370953e+00	7.01802762e-19
223             	-5.00684413e-04	9.81085948e-12	5.05371766e+00	6.95253087e-19
224             	-5.01204017e-04	9.76214729e-12	5.05372544e+00	6.89013997e-19
225             	-5.01709269e-04	9.71500956e-12	5.05373288e+00	6.82661380e-19
226             	-5.02201139e-04	9.66939317e-12	5.05374000e+00	6.76579784e-19
227             	-5.02679875e-04	9.62524488e-12	5.05374681e+00	6.70777530e-19
228             	-5.03145516e-04	9.58251068e-12	5.05375332e+00	6.65241465e-19
229             	-5.03594372e-04	9.54113665e-12	5.05375954e+00	6.59960426e-19
230             	-5.04030226e-04	9.50106979e-12	5.05376548e+00	6.54709671e-19
231             	-5.04448826e-04	9.46225846e-12	5.05377115e+00	6.49526726e-19
232             	-5.04849063e-04	9.42465265e-12	5.05377655e+00	6.44573556e-19
233             	-5.05232714e-04	9.38820412e-12	5.05378170e+00	6.39839941e-19
234             	-5.05600150e-04	9.35286640e-12	5.05378660e+00	6.35316955e-19
235             	-5.05952582e-04	9.31718720e-12	5.05379125e+00	6.30996400e-19
236             	-5.06291943e-04	9.28250370e-12	5.05379568e+00	6.26760139e-19
237             	-5.06620299e-04	9.24885479e-12	5.05379988e+00	6.22485015e-19
238             	-5.06939408e-04	9.21620194e-12	5.05380386e+00	6.18392431e-19
239             	-5.07251129e-04	9.18450804e-12	5.05380762e+00	6.14474850e-19
240             	-5.07554677e-04	9.15373743e-12	5.05381119e+00	6.10725436e-19
241             	-5.07850243e-04	9.12385585e-12	5.05381455e+00	6.07137802e-19
242             	-5.08137524e-04	9.09483041e-12	5.05381773e+00	6.03705893e-19
243             	-5.08416118e-04	9.06662955e-12	5.05382071e+00	6.00414629e-19
244             	-5.08685321e-04	9.03922298e-12	5.05382352e+00	5.96986423e-19
245             	-5.08944946e-04	9.01258166e-12	5.05382616e+00	5.93699068e-19
246             	-5.09195770e-04	8.98667776e-12	5.05382863e+00	5.90547052e-19
247             	-5.09438390e-04	8.96148455e-12	5.05383093e+00	5.87525251e-19
248             	-5.09673104e-04	8.93697646e-12	5.05383309e+00	5.84628817e-19
249             	-5.09900016e-04	8.91312894e-12	5.05383510e+00	5.81853130e-19
250             	-5.10119133e-04	8.88991848e-12	5.05383697e+00	5.79193762e-19
251             	-5.10330235e-04	8.86732255e-12	5.05383870e+00	5.76646459e-19
252             	-5.10532941e-04	8.84531958e-12	5.05384030e+00	5.74129522e-19
253             	-5.10727285e-04	8.82388888e-12	5.05384178e+00	5.71551642e-19
254             	-5.10913865e-04	8.80272349e-12	5.05384315e+00	5.69075631e-19
255             	-5.11092064e-04	8.78174997e-12	5.05384440e+00	5.66697706e-19
256             	-5.11261855e-04	8.76132792e-12	5.05384555e+00	5.64414272e-19
257             	-5.11423886e-04	8.74143935e-12	5.05384659e+00	5.62221897e-19
258             	-5.11578565e-04	8.72206695e-12	5.05384754e+00	5.60117285e-19
259             	-5.11726144e-04	8.70319411e-12	5.05384840e+00	5.58097269e-19
260             	-5.11866374e-04	8.68480488e-12	5.05384918e+00	5.56158800e-19
261             	-5.11999365e-04	8.66688389e-12	5.05384986e+00	5.54298941e-19
262             	-5.12125077e-04	8.64941640e-12	5.05385047e+00	5.52514858e-19
263             	-5.12244333e-04	8.63238821e-12	5.05385101e+00	5.50691994e-19
264             	-5.12355907e-04	8.61578568e-12	5.05385146e+00	5.48857502e-19
265             	-5.12464077e-04	8.59959569e-12	5.05385185e+00	5.47092617e-19
266             	-5.12556187e-04	8.58380568e-12	5.05385217e+00	5.45394867e-19
267             	-5.12652291e-04	8.56840353e-12	5.05385243e+00	5.43761830e-19
268             	-5.12744793e-04	8.55337755e-12	5.05385263e+00	5.42191192e-19
269             	-5.12831559e-04	8.53871646e-12	5.05385277e+00	5.40680733e-19
270             	-5.12913115e-04	8.52440940e-12	5.05385285e+00	5.39228315e-19
271             	-5.12989961e-04	8.51044593e-12	5.05385288e+00	5.37831880e-19
272             	-5.13062423e-04	8.49681601e-12	5.05385285e+00	5.36489441e-19
273             	-5.13130999e-04	8.48350994e-12	5.05385278e+00	5.35199079e-19
274             	-5.13195857e-04	8.47051842e-12	5.05385266e+00	5.33958943e-19
275             	-5.13256990e-04	8.45783244e-12	5.05385249e+00	5.32767244e-19
276             	-5.13314518e-04	8.44544332e-12	5.05385229e+00	5.31622253e-19
277             	-5.13368448e-04	8.43334271e-12	5.05385205e+00	5.30441619e-19
278             	-5.13418680e-04	8.42152252e-12	5.05385177e+00	5.29239873e-19
279             	-5.13465329e-04	8.40997495e-12	5.05385146e+00	5.28081760e-19
280             	-5.13508582e-04	8.39869247e-12	5.05385111e+00	5.26965733e-19
281             	-5.13548588e-04	8.38766783e-12	5.05385074e+00	5.25890315e-19
282             	-5.13585623e-04	8.37689398e-12	5.05385033e+00	5.24854084e-19
283             	-5.13619951e-04	8.36636415e-12	5.05384991e+00	5.23855670e-19
284             	-5.13651765e-04	8.35607179e-12	5.05384945e+00	5.22893755e-19
285             	-5.13681203e-04	8.34601054e-12	5.05384898e+00	5.21967065e-19
286             	-5.13708517e-04	8.33617429e-12	5.05384849e+00	5.21074373e-19
287             	-5.13733710e-04	8.32655709e-12	5.05384798e+00	5.20214493e-19
288             	-5.13756818e-04	8.31715320e-12	5.05384745e+00	5.19386281e-19
289             	-5.13777778e-04	8.30795707e-12	5.05384691e+00	5.18588630e-19
290             	-5.13796652e-04	8.29896331e-12	5.05384635e+00	5.17820474e-19
291             	-5.13813554e-04	8.29016669e-12	5.05384578e+00	5.17080780e-19
292             	-5.13828682e-04	8.28156214e-12	5.05384520e+00	5.16368552e-19
293             	-5.13842081e-04	8.27314476e-12	5.05384461e+00	5.15682826e-19
294             	-5.13853697e-04	8.26490977e-12	5.05384401e+00	5.15022672e-19
295             	-5.13863544e-04	8.25685255e-12	5.05384340e+00	5.14387190e-19
296             	-5.13871635e-04	8.24896860e-12	5.05384279e+00	5.13775511e-19
297             	-5.13878102e-04	8.24125354e-12	5.05384217e+00	5.13186793e-19
298             	-5.13883011e-04	8.23370315e-12	5.05384155e+00	5.12560843e-19
299             	-5.13886530e-04	8.22631328e-12	5.05384092e+00	5.11920407e-19
300             	-5.13888842e-04	8.21907993e-12	5.05384029e+00	5.11302456e-19
301             	-5.13890026e-04	8.21199921e-12	5.05383966e+00	5.10706087e-19
302             	-5.13890200e-04	8.20506732e-12	5.05383902e+00	5.10130471e-19
303             	-5.13889363e-04	8.19828057e-12	5.05383838e+00	5.09574842e-19
304             	-5.13887566e-04	8.19163538e-12	5.05383775e+00	5.09038479e-19
305             	-5.13884898e-04	8.18512824e-12	5.05383711e+00	5.08520702e-19
306             	-5.13881384e-04	8.17875577e-12	5.05383647e+00	5.08020859e-19
307             	-5.13876930e-04	8.17251465e-12	5.05383584e+00	5.07538330e-19
308             	-5.13871550e-04	8.16640167e-12	5.05383520e+00	5.07072514e-19
309             	-5.13865373e-04	8.16041368e-12	5.05383457e+00	5.06622835e-19
310             	-5.13858476e-04	8.15454763e-12	5.05383393e+00	5.06188734e-19
311             	-5.13850951e-04	8.14880056e-12	5.05383330e+00	5.05769675e-19
312             	-5.13842881e-04	8.14316956e-12	5.05383268e+00	5.05365136e-19
313             	-5.13834253e-04	8.13765182e-12	5.05383206e+00	5.04974616e-19
314             	-5.13825103e-04	8.13224458e-12	5.05383144e+00	5.04597627e-19
315             	-5.13815521e-04	8.12694516e-12	5.05383082e+00	5.04233702e-19
316             	-5.13805609e-04	8.12175096e-12	5.05383021e+00	5.03882386e-19
317             	-5.13795462e-04	8.11665943e-12	5.05382960e+00	5.03543240e-19
318             	-5.13785115e-04	8.11166810e-12	5.05382900e+00	5.03215841e-19
319             	-5.13774477e-04	8.10677454e-12	5.05382840e+00	5.02899778e-19
320             	-5.13763481e-04	8.10197641e-12	5.05382781e+00	5.02594657e-19
321             	-5.13752121e-04	8.09727140e-12	5.05382722e+00	5.02300093e-19
322             	-5.13740433e-04	8.09265727e-12	5.05382664e+00	5.02015718e-19
323             	-5.13728507e-04	8.08813185e-12	5.05382607e+00	5.01741173e-19
324             	-5.13716412e-04	8.08369299e-12	5.05382550e+00	5.01476113e-19
325             	-5.13704225e-04	8.07933863e-12	5.05382494e+00	5.01220205e-19
326             	-5.13691974e-04	8.07506673e-12	5.05382438e+00	5.00973124e-19
327             	-5.13679655e-04	8.07087531e-12	5.05382383e+00	5.00734561e-19
328             	-5.13667288e-04	8.06676243e-12	5.05382329e+00	5.00504213e-19
329             	-5.13654904e-04	8.06272622e-12	5.05382275e+00	5.00281789e-19
330             	-5.13642525e-04	8.05876484e-12	5.05382222e+00	5.00067008e-19
331             	-5.13630184e-04	8.05487647e-12	5.05382170e+00	4.99859599e-19
332             	-5.13617893e-04	8.05105938e-12	5.05382118e+00	4.99659297e-19
333             	-5.13605609e-04	8.04731186e-12	5.05382067e+00	4.99465850e-19
334             	-5.13593272e-04	8.04363222e-12	5.05382017e+00	4.99279011e-19
335             	-5.13580946e-04	8.04001884e-12	5.05381968e+00	4.99098546e-19
336             	-5.13568710e-04	8.03647014e-12	5.05381919e+00	4.98924223e-19
337             	-5.13556616e-04	8.03298455e-12	5.05381871e+00	4.98755822e-19
338             	-5.13544641e-04	8.02956057e-12	5.05381823e+00	4.98593129e-19
339             	-5.13532751e-04	8.02619671e-12	5.05381776e+00	4.98435938e-19
340             	-5.13520947e-04	8.02289152e-12	5.05381730e+00	4.98284048e-19
341             	-5.13509255e-04	8.01964360e-12	5.05381685e+00	4.98137268e-19
342             	-5.13497678e-04	8.01645158e-12	5.05381640e+00	4.97995411e-19
343             	-5.13486223e-04	8.01331410e-12	5.05381596e+00	4.97858297e-19
344             	-5.13474889e-04	8.01022986e-12	5.05381552e+00	4.97725752e-19
345             	-5.13463676e-04	8.00719758e-12	5.05381510e+00	4.97597609e-19
346             	-5.13452590e-04	8.00421600e-12	5.05381467e+00	4.97473704e-19
347             	-5.13441639e-04	8.00128391e-12	5.05381426e+00	4.97353883e-19
348             	-5.13430826e-04	7.99840012e-12	5.05381385e+00	4.97237992e-19
349             	-5.13420167e-04	7.99556346e-12	5.05381345e+00	4.97125887e-19
350             	-5.13409670e-04	7.99277280e-12	5.05381306e+00	4.96999223e-19
351             	-5.13399346e-04	7.99002703e-12	5.05381267e+00	4.96859996e-19
352             	-5.13389204e-04	7.98732507e-12	5.05381229e+00	4.96725034e-19
353             	-5.13379253e-04	7.98466587e-12	5.05381191e+00	4.96594186e-19
354             	-5.13369497e-04	7.98204840e-12	5.05381154e+00	4.96467308e-19
355             	-5.13359935e-04	7.97947165e-12	5.05381118e+00	4.96344258e-19
356             	-5.13350572e-04	7.97693465e-12	5.05381082e+00	4.96224902e-19
357             	-5.13341403e-04	7.97443644e-12	5.05381047e+00	4.96109109e-19
358             	-5.13332429e-04	7.97197609e-12	5.05381013e+00	4.95996756e-19
359             	-5.13323656e-04	7.96955268e-12	5.05380979e+00	4.95887720e-19
360             	-5.13315077e-04	7.96716534e-12	5.05380946e+00	4.95781886e-19
361             	-5.13306692e-04	7.96481320e-12	5.05380913e+00	4.95679141e-19
362             	-5.13298498e-04	7.96249542e-12	5.05380881e+00	4.95579378e-19
363             	-5.13290493e-04	7.96021116e-12	5.05380849e+00	4.95482491e-19
364             	-5.13282676e-04	7.95795964e-12	5.05380818e+00	4.95388382e-19
365             	-5.13275046e-04	7.95574007e-12	5.05380788e+00	4.95296952e-19
366             	-5.13267602e-04	7.95355170e-12	5.05380758e+00	4.95208109e-19
367             	-5.13260347e-04	7.95139377e-12	5.05380728e+00	4.95121762e-19
368             	-5.13253275e-04	7.94926557e-12	5.05380699e+00	4.95037825e-19
369             	-5.13246382e-04	7.94716639e-12	5.05380671e+00	4.94956213e-19
370             	-5.13239670e-04	7.94509554e-12	5.05380643e+00	4.94876845e-19
371             	-5.13233138e-04	7.94305236e-12	5.05380615e+00	4.94799645e-19
372             	-5.13226781e-04	7.94103620e-12	5.05380588e+00	4.94724535e-19
373             	-5.13220598e-04	7.93904643e-12	5.05380562e+00	4.94651445e-19
374             	-5.13214585e-04	7.93708241e-12	5.05380536e+00	4.94580302e-19
375             	-5.13208749e-04	7.93514356e-12	5.05380510e+00	4.94511041e-19
376             	-5.13203075e-04	7.93322929e-12	5.05380485e+00	4.94443595e-19
377             	-5.13197566e-04	7.93133903e-12	5.05380460e+00	4.94377902e-19
378             	-5.13192212e-04	7.92947221e-12	5.05380436e+00	4.94313901e-19
379             	-5.13187018e-04	7.92762831e-12	5.05380412e+00	4.94251532e-19
380             	-5.13181979e-04	7.92580678e-12	5.05380389e+00	4.94190740e-19
381             	-5.13177091e-04	7.92400713e-12	5.05380366e+00	4.94131470e-19
382             	-5.13172355e-04	7.92222884e-12	5.05380343e+00	4.94073668e-19