/*--------------------------------*- C++ -*----------------------------------*\
| =========                 |                                                 |
| \\      /  F ield         | OpenFOAM: The Open Source CFD Toolbox           |
|  \\    /   O peration     | Version:  2206                                  |
|   \\  /    A nd           | Website:  www.openfoam.com                      |
|    \\/     M anipulation  |                                                 |
\*---------------------------------------------------------------------------*/
FoamFile
{
    version     2.0;
    format      ascii;
    arch        "LSB;label=32;scalar=64";
    class       volScalarField;
    location    "1400";
    object      epsilon;
}
// * * * * * * * * * * * * * * * * * * * * * * * * * * * * * * * * * * * * * //

dimensions      [0 2 -3 0 0 0 0];

internalField   nonuniform List<scalar> 
13056
(
0.0078497535
0.0077311215
0.007664197
0.0076293041
0.0076078118
0.007592759
0.0075815355
0.007572901
0.0075661316
0.0075607602
0.0075564717
0.007553051
0.0075503534
0.007548289
0.0075468192
0.0075459549
0.0075458026
0.0075465238
0.0075487839
0.0075528971
0.0075631669
0.0075840326
0.0075992497
0.0096498073
0.029996958
0.0017741291
0.0049813748
0.00035503364
0.0018450094
0.00017379788
0.0010463139
0.00010806087
0.0006950404
0.00052467461
0.0005016802
0.00041724885
0.00037959825
0.00033289782
0.00030030062
0.00027005848
0.00024514501
0.00022332476
0.00020443623
0.0001878637
0.00017325193
0.00016028832
0.00014872573
0.00013836186
0.0001290305
0.00012059419
0.00011293777
0.00010596428
9.9591802e-05
9.37505e-05
8.8380774e-05
8.3431456e-05
7.8858087e-05
7.4622025e-05
7.0689658e-05
6.7031532e-05
6.3621717e-05
6.043745e-05
5.7458633e-05
5.4667285e-05
5.2047385e-05
4.958467e-05
4.7266366e-05
4.5080988e-05
4.3018186e-05
4.1068706e-05
3.9224184e-05
3.7476941e-05
3.5820017e-05
3.4247113e-05
3.2752471e-05
3.1330842e-05
2.9977401e-05
2.8687746e-05
2.7457914e-05
2.6284181e-05
2.5163076e-05
2.4091458e-05
2.3066416e-05
2.2085254e-05
2.1145476e-05
2.0244765e-05
1.9381003e-05
1.8552229e-05
1.7756571e-05
1.6992292e-05
1.6257795e-05
1.5551578e-05
1.4872246e-05
1.4218485e-05
1.3589074e-05
1.2982905e-05
1.2398901e-05
1.183604e-05
1.1293388e-05
1.0770061e-05
1.0265231e-05
9.7781126e-06
9.3079775e-06
8.8541559e-06
8.4159931e-06
7.9928711e-06
7.584218e-06
7.1894912e-06
6.8081723e-06
6.4397836e-06
6.0838767e-06
5.7398967e-06
5.4078024e-06
5.0954521e-06
4.8108227e-06
4.5523522e-06
4.3166247e-06
4.1011052e-06
3.9034082e-06
3.7215094e-06
3.5536564e-06
3.3983242e-06
3.2541848e-06
3.120081e-06
2.9949889e-06
2.8779901e-06
2.7682614e-06
2.6650367e-06
2.5676265e-06
2.4752672e-06
2.387414e-06
2.3027453e-06
2.2218538e-06
2.138305e-06
2.0677024e-06
1.964196e-06
0.0078484357
0.0077297072
0.0076627235
0.0076277976
0.0076062842
0.0075912162
0.007579981
0.0075713371
0.0075645599
0.0075591816
0.0075548868
0.0075514599
0.0075487559
0.0075466844
0.0075452061
0.0075443312
0.0075441645
0.007544866
0.0075470944
0.0075511644
0.0075613306
0.0075820838
0.0075966232
0.0096471107
0.029421209
0.0017584111
0.0048901122
0.0003515291
0.0018156164
0.00017240988
0.0010312191
0.00010798394
0.00068584315
0.00051856788
0.00049552258
0.00041253049
0.00037530462
0.000329342
0.00029717378
0.00026736706
0.00024278861
0.00022126397
0.00020262427
0.00018626753
0.00017184263
0.00015904227
0.00014762299
0.00013738559
0.00012816636
0.00011982987
0.00011226267
0.0001053692
9.9068734e-05
9.3292434e-05
8.7981542e-05
8.3085614e-05
7.856081e-05
7.436902e-05
7.0477096e-05
6.6855981e-05
6.34801e-05
6.0326991e-05
5.7376826e-05
5.4611861e-05
5.2016282e-05
4.9576012e-05
4.7278442e-05
4.5112235e-05
4.3067173e-05
4.1134119e-05
3.9304814e-05
3.7571675e-05
3.5927827e-05
3.4367051e-05
3.2883657e-05
3.147246e-05
3.0128695e-05
2.884801e-05
2.7626491e-05
2.6460458e-05
2.534648e-05
2.4281454e-05
2.32625e-05
2.2286954e-05
2.1352351e-05
2.0456397e-05
1.9596998e-05
1.8772216e-05
1.79802e-05
1.7219232e-05
1.6487731e-05
1.5784213e-05
1.5107296e-05
1.4455681e-05
1.3828159e-05
1.3223634e-05
1.264104e-05
1.2079365e-05
1.1537686e-05
1.1015124e-05
1.0510861e-05
1.0024119e-05
9.5541761e-06
9.1003681e-06
8.6620452e-06
8.2385953e-06
7.8294511e-06
7.4340744e-06
7.0519506e-06
6.6826053e-06
6.3255934e-06
5.9803653e-06
5.6468774e-06
5.3330125e-06
5.0468165e-06
4.7867887e-06
4.5495267e-06
4.3324981e-06
4.13332e-06
3.9499692e-06
3.780694e-06
3.6239698e-06
3.4784685e-06
3.3430326e-06
3.2166378e-06
3.0983648e-06
2.9873896e-06
2.8829448e-06
2.7843395e-06
2.6908069e-06
2.6017995e-06
2.5159851e-06
2.4339632e-06
2.3492307e-06
2.2775811e-06
2.1725569e-06
0.007844253
0.0077252241
0.0076580574
0.0076230303
0.0076014523
0.0075863381
0.0075750678
0.007566396
0.0075595962
0.0075541989
0.0075498877
0.0075464461
0.0075437282
0.0075416429
0.0075401499
0.007539258
0.0075390703
0.0075397447
0.0075419309
0.0075459452
0.0075559777
0.0075765974
0.0075902091
0.0096388607
0.028849749
0.0017426949
0.004798406
0.0003479819
0.0017859747
0.00017099794
0.0010159624
0.00010789526
0.00067652968
0.00051234834
0.00048928049
0.00040773077
0.00037094355
0.00032572206
0.0002939903
0.00026462286
0.00024038395
0.00021915836
0.00020077073
0.00018463253
0.00017039702
0.00015776214
0.00014648819
0.00013637909
0.00012727363
0.00011903848
0.00011156188
0.0001047497
9.8522417e-05
9.2812202e-05
8.756115e-05
8.2719546e-05
7.8244177e-05
7.4097474e-05
7.0246753e-05
6.6663367e-05
6.3322092e-05
6.0200777e-05
5.7279864e-05
5.4541847e-05
5.1971128e-05
4.9553812e-05
4.727746e-05
4.5130885e-05
4.3104003e-05
4.1187795e-05
3.9374107e-05
3.7655456e-05
3.6025053e-05
3.4476757e-05
3.300495e-05
3.1604512e-05
3.0270736e-05
2.8999324e-05
2.778641e-05
2.6628358e-05
2.5521779e-05
2.4463606e-05
2.3450996e-05
2.2481314e-05
2.1552123e-05
2.0661158e-05
1.9806348e-05
1.8985778e-05
1.8197617e-05
1.7440166e-05
1.6711863e-05
1.6011239e-05
1.5336929e-05
1.4687646e-05
1.4062196e-05
1.3459493e-05
1.2878484e-05
1.2318165e-05
1.1777624e-05
1.1255991e-05
1.0752454e-05
1.0266245e-05
9.7966467e-06
9.343002e-06
8.904666e-06
8.4810324e-06
8.0715388e-06
7.675651e-06
7.2928585e-06
6.9226905e-06
6.5647051e-06
6.2183581e-06
5.8836035e-06
5.5683457e-06
5.2806962e-06
5.0192151e-06
4.7805145e-06
4.5620653e-06
4.3614883e-06
4.1767619e-06
4.0061356e-06
3.8480859e-06
3.7012849e-06
3.5645754e-06
3.4369328e-06
3.3174375e-06
3.2052646e-06
3.0996463e-06
2.9998899e-06
2.905226e-06
2.8151048e-06
2.7281837e-06
2.645069e-06
2.559192e-06
2.486528e-06
2.3800349e-06
0.0078370737
0.0077175309
0.0076500514
0.0076148514
0.0075931634
0.0075779705
0.0075666403
0.0075579216
0.0075510838
0.0075456552
0.0075413174
0.0075378525
0.0075351136
0.0075330082
0.007531495
0.0075305815
0.0075303683
0.0075310113
0.0075331507
0.0075371047
0.0075469924
0.0075674801
0.0075800277
0.0096250098
0.028274921
0.0017267712
0.0047050127
0.00034434082
0.0017556712
0.00016953657
0.0010003249
0.00010777802
0.000666962
0.00050591814
0.00048285871
0.00040277314
0.00036644564
0.00032197852
0.00029069708
0.00026177891
0.0002378889
0.00021697004
0.00019884136
0.00018292761
0.00016888673
0.00015642197
0.00014529749
0.00013532038
0.00012633204
0.00011820124
0.00011081797
0.00010408957
9.7937754e-05
9.2295713e-05
8.7106423e-05
8.2320916e-05
7.7896622e-05
7.3796526e-05
6.9988423e-05
6.6444081e-05
6.3138642e-05
6.0050271e-05
5.7159686e-05
5.4449631e-05
5.1904722e-05
4.9511257e-05
4.725697e-05
4.5130828e-05
4.3122884e-05
4.1224239e-05
3.942685e-05
3.7723335e-05
3.6106993e-05
3.4571764e-05
3.3112104e-05
3.1722959e-05
3.0399683e-05
2.9138033e-05
2.7934192e-05
2.6784569e-05
2.5685821e-05
2.4634916e-05
2.3629046e-05
2.266561e-05
2.1742201e-05
2.085658e-05
2.0006701e-05
1.9190672e-05
1.8406685e-05
1.765306e-05
1.6928253e-05
1.6230813e-05
1.5559389e-05
1.4912709e-05
1.4289592e-05
1.3688967e-05
1.3109788e-05
1.2551066e-05
1.2011895e-05
1.1491417e-05
1.0988827e-05
1.0503365e-05
1.003432e-05
9.5810418e-06
9.1428903e-06
8.7192655e-06
8.30961e-06
7.9133941e-06
7.5301113e-06
7.1592945e-06
6.8005052e-06
6.4532047e-06
6.1173448e-06
5.8008479e-06
5.5118865e-06
5.2490815e-06
5.0090612e-06
4.7893007e-06
4.5874255e-06
4.4014165e-06
4.2295257e-06
4.0702308e-06
3.9222051e-06
3.784292e-06
3.6554673e-06
3.5348113e-06
3.4214989e-06
3.3147617e-06
3.2139062e-06
3.1181604e-06
3.0269723e-06
2.9389899e-06
2.8548258e-06
2.7678498e-06
2.6942091e-06
2.5863032e-06
0.0078266919
0.0077064065
0.0076384748
0.0076030251
0.007581178
0.0075658714
0.007554455
0.0075456687
0.0075387766
0.0075333033
0.0075289279
0.0075254306
0.0075226627
0.0075205307
0.0075189914
0.0075180511
0.0075178077
0.0075184146
0.0075205021
0.0075243906
0.0075341211
0.0075544778
0.0075658122
0.0096051915
0.027689773
0.0017104456
0.0046087428
0.00034055536
0.001724304
0.0001680001
0.00098409191
0.00010761444
0.00065700391
0.00049917971
0.00047616283
0.00039758122
0.00036174174
0.00031805185
0.00028724091
0.00025878799
0.00023526104
0.00021466079
0.00019680147
0.00018112121
0.00016728291
0.00015499529
0.00014402652
0.00013418699
0.00012532077
0.00011729882
0.00011001297
0.00010337207
9.7299099e-05
9.1728325e-05
8.6603637e-05
8.1876838e-05
7.7506029e-05
7.3454768e-05
6.9691349e-05
6.6187972e-05
6.2920158e-05
5.9866399e-05
5.7007703e-05
5.432707e-05
5.1809343e-05
4.9441018e-05
4.7210008e-05
4.5105442e-05
4.3117514e-05
4.1237453e-05
3.945733e-05
3.7769866e-05
3.6168453e-05
3.4647118e-05
3.320039e-05
3.1823286e-05
3.0511223e-05
2.9260015e-05
2.8065896e-05
2.6925325e-05
2.5835001e-05
2.4791933e-05
2.3793349e-05
2.2836683e-05
2.1919558e-05
2.1039764e-05
2.019528e-05
1.938424e-05
1.8604857e-05
1.7855473e-05
1.7134562e-05
1.644069e-05
1.5772524e-05
1.5128807e-05
1.4508372e-05
1.3910158e-05
1.3333136e-05
1.2776325e-05
1.2238829e-05
1.1719801e-05
1.1218444e-05
1.0734005e-05
1.0265783e-05
9.8131318e-06
9.3754179e-06
8.9520477e-06
8.542469e-06
8.1461568e-06
7.7626089e-06
7.3913623e-06
7.0319818e-06
6.6839347e-06
6.3471703e-06
6.0296248e-06
5.7395265e-06
5.4755569e-06
5.2343625e-06
5.0134244e-06
4.8103739e-06
4.6231959e-06
4.4501453e-06
4.2897026e-06
4.1405429e-06
4.0015107e-06
3.8715828e-06
3.7498401e-06
3.6354577e-06
3.5276672e-06
3.4257744e-06
3.3290054e-06
3.2368063e-06
3.1478166e-06
3.0626545e-06
2.9746329e-06
2.9000601e-06
2.7908073e-06
0.0078128292
0.0076915515
0.0076230154
0.0075872317
0.007565172
0.0075497136
0.0075381822
0.0075293057
0.0075223412
0.0075168086
0.0075123836
0.0075088438
0.0075060386
0.0075038726
0.007502301
0.0075013281
0.0075010491
0.0075016149
0.0075036447
0.007507462
0.0075170215
0.0075372484
0.0075472059
0.0095789137
0.027088007
0.0016935367
0.0045084526
0.00033657526
0.0016914799
0.00016636234
0.00096705102
0.00010738538
0.00064651968
0.00049203474
0.00046909829
0.000392078
0.00035676213
0.00031388178
0.00028356785
0.00025560208
0.00023245713
0.00021219153
0.00019461558
0.00017918092
0.00016555587
0.0001534548
0.00014265008
0.00013295558
0.00012421816
0.00011631108
0.00010912809
0.00010257962
9.6589987e-05
9.1094588e-05
8.6038264e-05
8.1373634e-05
7.7059498e-05
7.306002e-05
6.9344013e-05
6.5884133e-05
6.26563e-05
5.9639349e-05
5.6814593e-05
5.4165302e-05
5.1676555e-05
4.9335057e-05
4.7128913e-05
4.5047417e-05
4.3080916e-05
4.122077e-05
3.9459171e-05
3.778895e-05
3.6203597e-05
3.4697226e-05
3.326445e-05
3.1900356e-05
3.0600428e-05
2.9360541e-05
2.8176984e-05
2.7046265e-05
2.596513e-05
2.4930631e-05
2.3940035e-05
2.299081e-05
2.2080612e-05
2.1207262e-05
2.0368768e-05
1.9563286e-05
1.8789055e-05
1.8044439e-05
1.7327931e-05
1.6638118e-05
1.5973681e-05
1.5333382e-05
1.4716066e-05
1.4120689e-05
1.3546232e-05
1.2991727e-05
1.2456289e-05
1.1939081e-05
1.1439314e-05
1.0956246e-05
1.0489181e-05
1.0037482e-05
9.6005209e-06
9.1777106e-06
8.7685046e-06
8.3723832e-06
7.9888488e-06
7.6174424e-06
7.2577328e-06
6.9091934e-06
6.5717714e-06
6.2534107e-06
5.9623893e-06
5.6974497e-06
5.455259e-06
5.2333062e-06
5.0292301e-06
4.841021e-06
4.6669383e-06
4.505466e-06
4.355282e-06
4.215233e-06
4.0842974e-06
3.9615576e-06
3.8461891e-06
3.7374244e-06
3.6345691e-06
3.5368476e-06
3.4437049e-06
3.3537725e-06
3.2676744e-06
3.1786713e-06
3.1032199e-06
2.9926992e-06
0.0077951365
0.0076725909
0.0076032816
0.0075670708
0.0075447392
0.0075290867
0.0075174082
0.0075084165
0.0075013598
0.0074957517
0.0074912638
0.0074876703
0.0074848184
0.0074826102
0.0074809992
0.0074799874
0.0074796669
0.007480186
0.0074821519
0.0074858916
0.0074952653
0.0075153636
0.0075237639
0.0095455645
0.026463949
0.0016758761
0.004403041
0.00033235019
0.0016568123
0.00016459632
0.00094899119
0.00010706995
0.00063537327
0.00048438362
0.00046156973
0.00038618524
0.00035143606
0.00030940684
0.00027962278
0.00025217196
0.00022943275
0.000209522
0.00019224698
0.00017707316
0.00016367474
0.00015177202
0.00014114184
0.00013160171
0.00012300146
0.00011521679
0.00010814346
0.00010169361
9.5792935e-05
9.0378048e-05
8.5394794e-05
8.0796656e-05
7.6543175e-05
7.2599156e-05
6.8933968e-05
6.5520744e-05
6.2335829e-05
5.9358423e-05
5.6570162e-05
5.3954601e-05
5.1497073e-05
4.9184503e-05
4.7005198e-05
4.4948631e-05
4.3005307e-05
4.1166729e-05
3.9425217e-05
3.7773717e-05
3.6205825e-05
3.4715748e-05
3.3298184e-05
3.19483e-05
3.0661649e-05
2.9434171e-05
2.8262211e-05
2.7142334e-05
2.6071334e-05
2.5046307e-05
2.4064563e-05
2.3123606e-05
2.222113e-05
2.1354986e-05
2.0523211e-05
1.9723988e-05
1.8955584e-05
1.8216383e-05
1.7504903e-05
1.6819747e-05
1.6159619e-05
1.5523295e-05
1.4909637e-05
1.4317615e-05
1.3746224e-05
1.3194509e-05
1.2661597e-05
1.214666e-05
1.1648922e-05
1.1167647e-05
1.0702149e-05
1.0251799e-05
9.8159743e-06
9.3940959e-06
8.9856233e-06
8.5900421e-06
8.2068599e-06
7.8356224e-06
7.4759024e-06
7.1271799e-06
6.7894e-06
6.4705077e-06
6.1788226e-06
5.9131493e-06
5.6701781e-06
5.447408e-06
5.2424879e-06
5.053415e-06
4.8784547e-06
4.7160962e-06
4.5650211e-06
4.4240794e-06
4.2922522e-06
4.1686238e-06
4.0523711e-06
3.9427281e-06
3.8390007e-06
3.7404127e-06
3.646408e-06
3.5556118e-06
3.4686528e-06
3.3787457e-06
3.3024809e-06
3.1907882e-06
0.0077731967
0.0076490758
0.007578805
0.0075420628
0.007519393
0.007503499
0.0074916376
0.0074825028
0.0074753315
0.0074696299
0.0074650641
0.0074614046
0.0074584953
0.007456236
0.0074545776
0.0074535199
0.0074531514
0.0074536176
0.0074555124
0.0074591677
0.0074683391
0.0074883108
0.0074949543
0.0095044184
0.025812561
0.0016573092
0.0042914521
0.00032782955
0.0016199209
0.00016267414
0.00092970221
0.0001066453
0.00062342795
0.00047612511
0.0004534807
0.00037982325
0.00034569146
0.00030456412
0.00027534921
0.00024844701
0.00022614205
0.00020661056
0.00018965762
0.00017476301
0.00016160737
0.00014991723
0.0001394742
0.00013009969
0.0001216467
0.00011399352
0.00010703806
0.00010069426
9.4889321e-05
8.956113e-05
8.4656614e-05
8.0130172e-05
7.5942141e-05
7.205801e-05
6.8447737e-05
6.5084973e-05
6.194651e-05
5.9011943e-05
5.6263251e-05
5.3684294e-05
5.1260676e-05
4.897956e-05
4.6829468e-05
4.4800064e-05
4.2882024e-05
4.1067002e-05
3.9347454e-05
3.7716452e-05
3.6167704e-05
3.4695517e-05
3.3294682e-05
3.1960449e-05
3.0688447e-05
2.9474683e-05
2.8315567e-05
2.7207719e-05
2.6147989e-05
2.513352e-05
2.4161665e-05
2.3229971e-05
2.2336168e-05
2.1478143e-05
2.0653963e-05
1.9861842e-05
1.9100073e-05
1.8367066e-05
1.7661361e-05
1.6981585e-05
1.6326458e-05
1.5694778e-05
1.5085423e-05
1.4497379e-05
1.3929656e-05
1.3381312e-05
1.2851487e-05
1.2339364e-05
1.1844178e-05
1.1365204e-05
1.0901765e-05
1.0453239e-05
1.0019012e-05
9.5985123e-06
9.1912059e-06
8.7965847e-06
8.4141618e-06
8.043488e-06
7.6841406e-06
7.3356068e-06
6.9978297e-06
6.6787468e-06
6.3867106e-06
6.120588e-06
5.8770962e-06
5.6537472e-06
5.4482021e-06
5.2584673e-06
5.0828162e-06
4.9197446e-06
4.7679396e-06
4.6262554e-06
4.4936768e-06
4.3692912e-06
4.252278e-06
4.141873e-06
4.0373836e-06
3.9380333e-06
3.8432659e-06
3.7517015e-06
3.6639729e-06
3.5732564e-06
3.4962575e-06
3.3835093e-06
0.0077465261
0.007620486
0.0075490418
0.007511651
0.0074885685
0.0074723798
0.0074602952
0.0074509859
0.0074436749
0.0074378594
0.007433199
0.0074294595
0.007426481
0.0074241604
0.0074224457
0.0074213342
0.0074209103
0.0074213165
0.0074231327
0.0074266959
0.007435647
0.0074554947
0.0074601601
0.0094546437
0.025129487
0.0016376973
0.0041726825
0.00032296249
0.0015804337
0.00016056693
0.00090897525
0.0001060865
0.00061054644
0.00046715647
0.00044473363
0.00037291087
0.00033945488
0.00029928925
0.00027068917
0.00024437513
0.00022253778
0.00020341413
0.00018680804
0.00017221418
0.0001593202
0.00014785931
0.00013761823
0.00012842254
0.00012012864
0.0001126176
0.00010578963
9.9560594e-05
9.3859338e-05
8.86251e-05
8.3805967e-05
7.9357328e-05
7.5240373e-05
7.1421325e-05
6.7870777e-05
6.4562935e-05
6.1475074e-05
5.8587212e-05
5.5881697e-05
5.334272e-05
5.0956174e-05
4.8709478e-05
4.6591387e-05
4.459177e-05
4.2701487e-05
4.0912355e-05
3.9216979e-05
3.7608563e-05
3.6080937e-05
3.4628518e-05
3.3246194e-05
3.1929305e-05
3.0673563e-05
2.947505e-05
2.8330242e-05
2.7235822e-05
2.6188696e-05
2.5186061e-05
2.4225318e-05
2.3304057e-05
2.2420048e-05
2.1571217e-05
2.0755665e-05
1.9971637e-05
1.9217456e-05
1.8491559e-05
1.7792512e-05
1.7118964e-05
1.6469659e-05
1.5843412e-05
1.5239122e-05
1.4655791e-05
1.4092445e-05
1.3548157e-05
1.3022082e-05
1.2513414e-05
1.2021401e-05
1.1545329e-05
1.108453e-05
1.0638392e-05
1.0206308e-05
9.7877165e-06
9.3820897e-06
8.9889265e-06
8.6077462e-06
8.2381053e-06
7.8795861e-06
7.5316834e-06
7.1943386e-06
6.8754719e-06
6.5834574e-06
6.3172253e-06
6.0735237e-06
5.8498808e-06
5.6439729e-06
5.4538183e-06
5.2777006e-06
5.1141239e-06
4.9617825e-06
4.8195364e-06
4.6863755e-06
4.5613913e-06
4.4437665e-06
4.33274e-06
4.2276213e-06
4.127635e-06
4.0322251e-06
3.9400084e-06
3.8516211e-06
3.7602095e-06
3.682573e-06
3.5689109e-06
0.0077145763
0.0075862309
0.0075133748
0.0074752034
0.007451624
0.0074350805
0.0074227274
0.0074132081
0.0074057291
0.0073997767
0.0073950028
0.0073911674
0.0073881064
0.007385713
0.0073839321
0.0073827578
0.0073822704
0.0073826088
0.0073843378
0.0073878005
0.0073965116
0.0074162389
0.00741868
0.0093953099
0.024411127
0.0016169202
0.004045796
0.00031769803
0.0015379899
0.00015824489
0.00088660431
0.00010536664
0.00059659175
0.00045737405
0.00043523033
0.00036536585
0.00033265184
0.00029351661
0.00026558348
0.00023990293
0.00021857135
0.00019988833
0.00018365747
0.00016938906
0.00015677842
0.00014556591
0.00013554377
0.00012654205
0.00011842082
0.00011106413
0.0001043747
9.8270476e-05
9.2682034e-05
8.7550092e-05
8.2823989e-05
7.846018e-05
7.4420774e-05
7.0672789e-05
6.7187505e-05
6.3939722e-05
6.0907243e-05
5.8070539e-05
5.541236e-05
5.2917252e-05
5.0571422e-05
4.8362568e-05
4.6279693e-05
4.431289e-05
4.2453218e-05
4.0692671e-05
3.9024013e-05
3.7440595e-05
3.5936376e-05
3.4505892e-05
3.3144139e-05
3.1846553e-05
3.0608937e-05
2.9427451e-05
2.8298645e-05
2.721927e-05
2.6186294e-05
2.5196972e-05
2.4248754e-05
2.3339281e-05
2.2466367e-05
2.1627977e-05
2.082225e-05
2.0047465e-05
1.9301978e-05
1.8584256e-05
1.7892891e-05
1.7226559e-05
1.6584027e-05
1.5964132e-05
1.5365792e-05
1.4788029e-05
1.4229887e-05
1.3690455e-05
1.3168903e-05
1.2664439e-05
1.2176323e-05
1.1703853e-05
1.1246375e-05
1.0803284e-05
1.0373983e-05
9.957919e-06
9.5545737e-06
9.1634529e-06
8.7840829e-06
8.4160263e-06
8.0588714e-06
7.7121208e-06
7.3757148e-06
7.0575445e-06
6.7659924e-06
6.5000527e-06
6.2565096e-06
6.0329107e-06
5.8269513e-06
5.6366646e-06
5.4603467e-06
5.2965127e-06
5.1438657e-06
5.0012732e-06
4.8677318e-06
4.7423384e-06
4.6242804e-06
4.5128008e-06
4.4072122e-06
4.3067412e-06
4.2108333e-06
4.1181038e-06
4.0291912e-06
3.9372224e-06
3.8590648e-06
3.7446596e-06
0.0076767363
0.0075456523
0.0074711152
0.0074320138
0.0074078425
0.0073908766
0.0073782036
0.0073684342
0.0073607553
0.0073546401
0.0073497312
0.0073457822
0.0073426236
0.0073401445
0.0073382861
0.007337039
0.0073364789
0.0073367408
0.0073383729
0.0073417259
0.0073501753
0.0073697869
0.0073697302
0.0093253959
0.023654734
0.0015948807
0.0039099447
0.00031198543
0.0014922461
0.00015567745
0.0008623888
0.00010445694
0.00058142858
0.00044667432
0.00042487287
0.00035710559
0.00032520741
0.00028717994
0.00025997217
0.00023497616
0.00021419326
0.00019598778
0.00018016413
0.000166249
0.00015394616
0.00014300362
0.00013321957
0.00012442894
0.00011649571
0.0001093072
0.00010276882
9.6800741e-05
9.1335445e-05
8.6315243e-05
8.1690825e-05
7.7419802e-05
7.3465279e-05
6.9795133e-05
6.6381388e-05
6.3199493e-05
6.0227817e-05
5.7447324e-05
5.48412e-05
5.2394376e-05
5.0093401e-05
4.7926274e-05
4.5882269e-05
4.3951722e-05
4.2125906e-05
4.0397009e-05
3.8757968e-05
3.7202292e-05
3.5724083e-05
3.4318003e-05
3.2979167e-05
3.1703117e-05
3.0485751e-05
2.9323318e-05
2.8212447e-05
2.7149963e-05
2.6132903e-05
2.5158581e-05
2.4224507e-05
2.3328371e-05
2.2468038e-05
2.1641516e-05
2.0846985e-05
2.0082761e-05
1.9347235e-05
1.8638908e-05
1.7956401e-05
1.7298418e-05
1.6663751e-05
1.6051262e-05
1.5459892e-05
1.4888682e-05
1.4336695e-05
1.380304e-05
1.32869e-05
1.2787503e-05
1.230412e-05
1.1836064e-05
1.1382691e-05
1.0943409e-05
1.0517631e-05
1.0104813e-05
9.7044475e-06
9.3160475e-06
8.9391472e-06
8.5733163e-06
8.2181495e-06
7.8731585e-06
7.5382824e-06
7.2213693e-06
6.9307953e-06
6.6656191e-06
6.422666e-06
6.199508e-06
5.993863e-06
5.8037825e-06
5.6275785e-06
5.4637792e-06
5.3110989e-06
5.1684149e-06
5.0347318e-06
4.9091537e-06
4.7908739e-06
4.679141e-06
4.5732717e-06
4.4724963e-06
4.3762622e-06
4.2831861e-06
4.1939076e-06
4.101546e-06
4.0230067e-06
3.9080623e-06
0.007632334
0.0074980254
0.0074215038
0.007381304
0.0073564336
0.0073389686
0.0073259179
0.0073158532
0.0073079383
0.0073016309
0.0072965631
0.0072924802
0.007289207
0.0072866276
0.0072846789
0.0072833479
0.0072827045
0.0072828802
0.0072844049
0.0072876381
0.0072958021
0.007315304
0.0073124454
0.0092438
0.02285853
0.0015715102
0.003764398
0.00030577482
0.001442884
0.00015283363
0.00083613742
0.00010332715
0.00056492561
0.00043495548
0.00041356502
0.00034804829
0.00031704723
0.00028021312
0.00025379526
0.00022954036
0.00020935366
0.00019166668
0.00017628572
0.0001627548
0.00015078692
0.00014013834
0.00013061372
0.00012205321
0.00011432508
0.00010732014
0.00010094672
9.5127449e-05
8.9796827e-05
8.4898903e-05
8.0385835e-05
7.6216486e-05
7.2355041e-05
6.8770311e-05
6.5435125e-05
6.2325636e-05
5.9420829e-05
5.6702206e-05
5.4153423e-05
5.1759831e-05
4.950835e-05
4.7387307e-05
4.5386271e-05
4.3495841e-05
4.1707525e-05
4.001372e-05
3.8407553e-05
3.6882703e-05
3.5433428e-05
3.4054531e-05
3.2741252e-05
3.148925e-05
3.0294528e-05
2.9153432e-05
2.8062675e-05
2.7019164e-05
2.602001e-05
2.5062595e-05
2.4144489e-05
2.3263443e-05
2.241737e-05
2.160433e-05
2.0822545e-05
2.0070373e-05
1.9346244e-05
1.8648695e-05
1.7976379e-05
1.732803e-05
1.6702469e-05
1.6098585e-05
1.5515342e-05
1.4951804e-05
1.4407056e-05
1.3880225e-05
1.3370514e-05
1.2877167e-05
1.2399471e-05
1.1936753e-05
1.1488384e-05
1.1053783e-05
1.0632375e-05
1.0223628e-05
9.8270422e-06
9.4421418e-06
9.0684693e-06
8.7056022e-06
8.3531424e-06
8.0106114e-06
7.6779477e-06
7.3629405e-06
7.0739416e-06
6.8100748e-06
6.5682127e-06
6.3459564e-06
6.1410514e-06
5.9515713e-06
5.775847e-06
5.6124232e-06
5.460028e-06
5.3175503e-06
5.1840051e-06
5.0585052e-06
4.9402517e-06
4.8285e-06
4.7225726e-06
4.6217046e-06
4.525347e-06
4.43212e-06
4.3426634e-06
4.2501032e-06
4.171347e-06
4.0561048e-06
0.007580639
0.0074425618
0.007363714
0.0073222258
0.0072965353
0.0072784851
0.0072649912
0.0072545802
0.0072463886
0.007239856
0.0072346019
0.0072303625
0.0072269554
0.0072242592
0.007222206
0.0072207782
0.0072200401
0.0072201186
0.007221524
0.0072246262
0.0072324788
0.0072518785
0.0072458811
0.0091493505
0.022021829
0.0015467751
0.0036085796
0.00029901794
0.0013896215
0.00014968246
0.00080767355
0.00010194602
0.00054695868
0.00042211979
0.00040121437
0.00033811468
0.00030809902
0.00027255153
0.00024699388
0.00022354184
0.00020400328
0.00018687958
0.00017198013
0.00015886729
0.00014726415
0.00013693586
0.00012769407
0.0001193846
0.00011188035
0.00010507592
9.8882798e-05
9.3226249e-05
8.8042999e-05
8.3278968e-05
7.8887908e-05
7.4830037e-05
7.1070715e-05
6.7579764e-05
6.4330893e-05
6.1301015e-05
5.8469785e-05
5.581929e-05
5.3333697e-05
5.0998814e-05
4.8801966e-05
4.6731835e-05
4.4778312e-05
4.2932281e-05
4.1185507e-05
3.9530615e-05
3.7960937e-05
3.647034e-05
3.5053251e-05
3.3704625e-05
3.2419841e-05
3.1194683e-05
3.002527e-05
2.8908053e-05
2.7839839e-05
2.6817623e-05
2.5838596e-05
2.4900214e-05
2.4000116e-05
2.3136114e-05
2.230618e-05
2.1508425e-05
2.0741122e-05
2.0002673e-05
1.929155e-05
1.8606328e-05
1.7945697e-05
1.7308425e-05
1.6693363e-05
1.609943e-05
1.5525616e-05
1.497101e-05
1.4434719e-05
1.3915894e-05
1.3413757e-05
1.292757e-05
1.2456638e-05
1.2000305e-05
1.1557955e-05
1.1129023e-05
1.0712945e-05
1.0309201e-05
9.9173045e-06
9.5367888e-06
9.1672062e-06
8.8081431e-06
8.4592096e-06
8.1199379e-06
7.7902662e-06
7.4779069e-06
7.1911669e-06
6.9292354e-06
6.6890394e-06
6.4682147e-06
6.2645392e-06
6.0761133e-06
5.9012907e-06
5.7386357e-06
5.5868932e-06
5.4449664e-06
5.3118826e-06
5.1867658e-06
5.0688262e-06
4.9573282e-06
4.8516012e-06
4.7508872e-06
4.6546417e-06
4.5614923e-06
4.4720768e-06
4.3795445e-06
4.300764e-06
4.185506e-06
0.0075208659
0.0073784127
0.0072968548
0.0072538643
0.0072272176
0.0072084847
0.0071944742
0.0071836593
0.0071751451
0.0071683501
0.0071628791
0.0071584575
0.0071548949
0.0071520635
0.0071498896
0.0071483507
0.0071475047
0.0071474739
0.007148747
0.0071517059
0.0071592186
0.0071785256
0.0071690169
0.0090408198
0.021145158
0.0015206858
0.0034421129
0.00029166933
0.0013322272
0.00014619364
0.00077684231
0.00010028195
0.0005274151
0.00040807664
0.00038773505
0.00032723028
0.00029829456
0.00026413374
0.00023951181
0.00021692909
0.00019809457
0.00018158247
0.00016720645
0.0001545483
0.00014334211
0.00013336263
0.00012442903
0.00011639328
0.00010913328
0.00010254774
9.6551569e-05
9.1072889e-05
8.6050824e-05
8.1433331e-05
7.7175884e-05
7.3240177e-05
6.959284e-05
6.6204795e-05
6.3050702e-05
6.0108303e-05
5.7357981e-05
5.4782454e-05
5.2366449e-05
5.009627e-05
4.7959679e-05
4.5945748e-05
4.4044717e-05
4.224778e-05
4.0546982e-05
3.8935196e-05
3.7405977e-05
3.5953397e-05
3.4572066e-05
3.3257106e-05
3.2004047e-05
3.0808811e-05
2.9667643e-05
2.8577106e-05
2.7534111e-05
2.6535749e-05
2.55793e-05
2.4662299e-05
2.3782461e-05
2.2937665e-05
2.2125945e-05
2.1345473e-05
2.0594572e-05
1.9871695e-05
1.9175359e-05
1.8504183e-05
1.7856897e-05
1.7232303e-05
1.6629288e-05
1.6046802e-05
1.5483865e-05
1.4939592e-05
1.4413118e-05
1.3903615e-05
1.3410329e-05
1.2932541e-05
1.2469577e-05
1.2020797e-05
1.1585604e-05
1.1163446e-05
1.0753773e-05
1.0356081e-05
9.9698939e-06
9.5947576e-06
9.2302349e-06
8.8759223e-06
8.5314387e-06
8.1963286e-06
7.8705299e-06
7.5616581e-06
7.2779516e-06
7.0186656e-06
6.7807886e-06
6.5619976e-06
6.3601087e-06
6.1732539e-06
5.9998141e-06
5.8383768e-06
5.6877069e-06
5.5467248e-06
5.4144729e-06
5.2900883e-06
5.1727926e-06
5.0618608e-06
4.9566313e-06
4.8563548e-06
4.7604928e-06
4.6676839e-06
4.5785622e-06
4.4863191e-06
4.4077368e-06
4.2927888e-06
0.0074521789
0.0073046745
0.0072199758
0.0071752428
0.0071474866
0.0071279619
0.007113352
0.0071020687
0.0070931802
0.0070860809
0.0070803585
0.007075726
0.0070719835
0.007068996
0.0070666833
0.0070650174
0.007064049
0.0070638951
0.0070650214
0.0070678235
0.0070749655
0.0070941909
0.007080762
0.0089169413
0.020230361
0.0014933059
0.0032648751
0.00028368769
0.0012705371
0.00014233837
0.00074351947
9.830393e-05
0.00050619904
0.00039274644
0.00037305145
0.00031532838
0.00028757231
0.00025490381
0.00023129749
0.00020965453
0.0001915834
0.00017573426
0.00016192627
0.00014976184
0.00013898697
0.00012938672
0.00012078842
0.00011305066
0.00010605673
9.9709792e-05
9.3928434e-05
8.8643875e-05
8.3797835e-05
7.9340471e-05
7.5229122e-05
7.1427079e-05
6.7902348e-05
6.4627044e-05
6.1576856e-05
5.8730426e-05
5.6068923e-05
5.3575755e-05
5.1236252e-05
4.9037257e-05
4.696701e-05
4.5015003e-05
4.3171856e-05
4.1429101e-05
3.9779086e-05
3.8214953e-05
3.6730502e-05
3.5320026e-05
3.3978335e-05
3.2700732e-05
3.1482913e-05
3.0320947e-05
2.9211217e-05
2.8150412e-05
2.7135553e-05
2.6163836e-05
2.5232638e-05
2.4339583e-05
2.3482463e-05
2.2659235e-05
2.1868e-05
2.1106994e-05
2.0374599e-05
1.9669319e-05
1.8989724e-05
1.8334479e-05
1.7702357e-05
1.70922e-05
1.6502933e-05
1.5933539e-05
1.5383073e-05
1.4850677e-05
1.4335515e-05
1.3836786e-05
1.3353759e-05
1.2885739e-05
1.2432072e-05
1.199214e-05
1.1565361e-05
1.1151201e-05
1.0749127e-05
1.0358649e-05
9.9793053e-06
9.6106542e-06
9.2522711e-06
8.9037631e-06
8.5647596e-06
8.234818e-06
7.9138771e-06
7.609432e-06
7.3296271e-06
7.0737827e-06
6.8389579e-06
6.6228773e-06
6.4234016e-06
6.2387e-06
6.0671852e-06
5.9074721e-06
5.7583491e-06
5.6187571e-06
5.4877561e-06
5.3644989e-06
5.2482211e-06
5.1382101e-06
5.0338152e-06
4.9342983e-06
4.8391285e-06
4.7469593e-06
4.6584192e-06
4.566763e-06
4.4886331e-06
4.3743669e-06
0.0073736991
0.0072203954
0.0071320748
0.0070853297
0.0070562926
0.0070358536
0.0070205515
0.0070087272
0.0069994066
0.006991956
0.0069859435
0.0069810678
0.0069771182
0.0069739512
0.0069714794
0.0069696686
0.0069685613
0.0069682694
0.0069692327
0.0069718634
0.0069786011
0.0069977586
0.0069799632
0.0087764308
0.019280667
0.0014647637
0.0030770579
0.00027503768
0.0012044764
0.0001380904
0.00070762236
9.5982524e-05
0.00048323842
0.00037606557
0.00035710272
0.00030235374
0.00027588074
0.0002448141
0.00022230652
0.00020167674
0.00018443099
0.00016929855
0.00015610536
0.00014447559
0.00013416815
0.00012497916
0.00011674473
0.00010933055
0.00010262573
9.6538208e-05
9.0990558e-05
8.5917327e-05
8.1263035e-05
7.6980211e-05
7.3028211e-05
6.9372045e-05
6.5981211e-05
6.2829107e-05
5.9892537e-05
5.7151117e-05
5.4586867e-05
5.2183938e-05
4.9928315e-05
4.7807425e-05
4.5810023e-05
4.392606e-05
4.2146566e-05
4.0463438e-05
3.8869354e-05
3.7357748e-05
3.5922683e-05
3.4558695e-05
3.3260811e-05
3.2024529e-05
3.0845725e-05
2.9720629e-05
2.8645775e-05
2.7617985e-05
2.6634404e-05
2.569234e-05
2.4789276e-05
2.392293e-05
2.3091185e-05
2.2292075e-05
2.1523779e-05
2.0784601e-05
2.0072986e-05
1.9387497e-05
1.872676e-05