/*--------------------------------*- C++ -*----------------------------------*\
| =========                 |                                                 |
| \\      /  F ield         | OpenFOAM: The Open Source CFD Toolbox           |
|  \\    /   O peration     | Version:  2206                                  |
|   \\  /    A nd           | Website:  www.openfoam.com                      |
|    \\/     M anipulation  |                                                 |
\*---------------------------------------------------------------------------*/
FoamFile
{
    version     2.0;
    format      ascii;
    arch        "LSB;label=32;scalar=64";
    class       volScalarField;
    location    "1400";
    object      k;
}
// * * * * * * * * * * * * * * * * * * * * * * * * * * * * * * * * * * * * * //

dimensions      [0 2 -2 0 0 0 0];

internalField   nonuniform List<scalar> 
13056
(
0.00012952623
0.00012008712
0.00011669714
0.00011498879
0.00011391118
0.00011315437
0.00011259307
0.00011216275
0.00011182502
0.00011155514
0.00011133632
0.00011115675
0.00011100791
0.00011088344
0.00011077855
0.00011068962
0.00011061357
0.00011054895
0.00011049154
0.00011045036
0.00011038122
0.00011050372
0.00010963381
0.00011389057
1.7787639e-05
2.7001815e-06
5.3740743e-06
9.2381026e-07
2.7716385e-06
5.7380661e-07
1.8989398e-06
4.1800441e-07
1.4456908e-06
1.1985432e-06
1.1632865e-06
1.0287919e-06
9.6593965e-07
8.8499029e-07
8.2623327e-07
7.6978445e-07
7.2168155e-07
6.7819408e-07
6.3939227e-07
6.0435205e-07
5.725931e-07
5.4366068e-07
5.171899e-07
4.9287428e-07
4.7045642e-07
4.497191e-07
4.3047617e-07
4.1256767e-07
3.9585592e-07
3.8022123e-07
3.6555975e-07
3.5178089e-07
3.3880439e-07
3.2655931e-07
3.1498301e-07
3.0401974e-07
2.9361963e-07
2.8373836e-07
2.743363e-07
2.6537735e-07
2.568289e-07
2.4866156e-07
2.4084867e-07
2.3336593e-07
2.2619115e-07
2.1930436e-07
2.1268729e-07
2.0632286e-07
2.0019541e-07
1.9429064e-07
1.8859531e-07
1.8309725e-07
1.777851e-07
1.7264841e-07
1.6767779e-07
1.6286422e-07
1.5819911e-07
1.5367473e-07
1.4928378e-07
1.4501945e-07
1.4087537e-07
1.3684554e-07
1.3292449e-07
1.2910714e-07
1.2538846e-07
1.2176378e-07
1.1822877e-07
1.1477931e-07
1.1141154e-07
1.0812178e-07
1.0490657e-07
1.0176281e-07
9.8687394e-08
9.5677279e-08
9.2729729e-08
8.9842086e-08
8.7011839e-08
8.423657e-08
8.1514009e-08
7.884209e-08
7.6218696e-08
7.3641785e-08
7.1109462e-08
6.8619881e-08
6.6171217e-08
6.3761776e-08
6.1389935e-08
5.905321e-08
5.6752512e-08
5.4545225e-08
5.249423e-08
5.0596409e-08
4.8834019e-08
4.7194427e-08
4.5664981e-08
4.4234787e-08
4.2894215e-08
4.1634713e-08
4.044869e-08
3.9329419e-08
3.8270818e-08
3.7267289e-08
3.6313686e-08
3.5405039e-08
3.4536753e-08
3.3703292e-08
3.2900819e-08
3.2118066e-08
3.1361221e-08
3.0569807e-08
2.9892953e-08
2.8886547e-08
0.00012951531
0.00012006848
0.00011667559
0.00011496572
0.00011388714
0.00011312963
0.00011256782
0.0001121371
0.00011179905
0.00011152891
0.00011130989
0.00011113015
0.00011098116
0.00011085657
0.00011075158
0.00011066256
0.00011058643
0.00011052174
0.00011046427
0.00011042304
0.00011035384
0.00011047642
0.00010960584
0.00011386625
1.7762617e-05
2.6752222e-06
5.2607531e-06
9.1215714e-07
2.7166342e-06
5.6599306e-07
1.863344e-06
4.1331724e-07
1.4200084e-06
1.1788075e-06
1.143555e-06
1.0120916e-06
9.5025603e-07
8.7101955e-07
8.1334115e-07
7.5800383e-07
7.1080094e-07
6.6813225e-07
6.3004645e-07
5.9564767e-07
5.6446293e-07
5.3604815e-07
5.1004594e-07
4.8615636e-07
4.6412738e-07
4.4374627e-07
4.2483075e-07
4.072241e-07
3.9079145e-07
3.7541553e-07
3.6099456e-07
3.4743977e-07
3.346725e-07
3.2262317e-07
3.112304e-07
3.0043952e-07
2.9020161e-07
2.804732e-07
2.7121544e-07
2.6239291e-07
2.5397361e-07
2.459287e-07
2.3823202e-07
2.3085974e-07
2.2379007e-07
2.1700341e-07
2.1048183e-07
2.0420856e-07
1.9816821e-07
1.9234676e-07
1.8673122e-07
1.813096e-07
1.7607077e-07
1.7100445e-07
1.6610144e-07
1.6135286e-07
1.5675028e-07
1.5228609e-07
1.4795314e-07
1.4374472e-07
1.3965457e-07
1.356768e-07
1.3180604e-07
1.2803727e-07
1.2436558e-07
1.2078634e-07
1.1729532e-07
1.1388846e-07
1.1056196e-07
1.0731221e-07
1.0413578e-07
1.0102966e-07
9.7990767e-08
9.5016112e-08
9.2103e-08
8.9248816e-08
8.6451089e-08
8.3707435e-08
8.1015619e-08
7.8373605e-08
7.5779306e-08
7.3230711e-08
7.0725951e-08
6.8263207e-08
6.5840678e-08
6.3456696e-08
6.1109659e-08
5.8797127e-08
5.6519984e-08
5.4334914e-08
5.2304207e-08
5.0424997e-08
4.8679779e-08
4.7056055e-08
4.5541316e-08
4.4124784e-08
4.2796935e-08
4.1549308e-08
4.0374396e-08
3.9265544e-08
3.8216737e-08
3.7222435e-08
3.6277554e-08
3.5377174e-08
3.4516753e-08
3.3690814e-08
3.289556e-08
3.2119847e-08
3.1369773e-08
3.0585545e-08
2.9914664e-08
2.8917789e-08
0.00012948017
0.00012000972
0.00011660798
0.00011489349
0.00011381194
0.00011305233
0.00011248895
0.00011205702
0.00011171801
0.0001114471
0.00011122745
0.00011104719
0.00011089776
0.0001107728
0.00011066749
0.00011057819
0.00011050183
0.00011043693
0.00011037927
0.00011033789
0.00011026848
0.0001103913
0.00010951876
0.00011378939
1.7740782e-05
2.6502651e-06
5.1474452e-06
9.0041531e-07
2.6614481e-06
5.5810242e-07
1.8275585e-06
4.0856072e-07
1.3941484e-06
1.1588669e-06
1.1236682e-06
9.9522612e-07
9.3442874e-07
8.569034e-07
8.0031375e-07
7.460909e-07
6.9979366e-07
6.5794767e-07
6.2058209e-07
5.8682836e-07
5.5622132e-07
5.2832738e-07
5.0279676e-07
4.7933602e-07
4.5769854e-07
4.3767612e-07
4.1909032e-07
4.0178772e-07
3.8563626e-07
3.7052107e-07
3.5634249e-07
3.4301355e-07
3.3045719e-07
3.1860524e-07
3.0739755e-07
2.9678052e-07
2.8670623e-07
2.7713205e-07
2.680199e-07
2.5933505e-07
2.5104611e-07
2.4312481e-07
2.3554548e-07
2.2828475e-07
2.2132126e-07
2.1463576e-07
2.0821067e-07
2.0202953e-07
1.9607724e-07
1.9034005e-07
1.8480518e-07
1.7946089e-07
1.7429625e-07
1.6930115e-07
1.6446658e-07
1.597838e-07
1.5524455e-07
1.5084134e-07
1.4656715e-07
1.4241539e-07
1.3837993e-07
1.3445496e-07
1.3063521e-07
1.2691575e-07
1.2329174e-07
1.1975866e-07
1.1631232e-07
1.1294875e-07
1.0966422e-07
1.0645515e-07
1.033182e-07
1.0025038e-07
9.7248676e-08
9.4310147e-08
9.1432139e-08
8.8612078e-08
8.5847532e-08
8.3136154e-08
8.0475744e-08
7.7864298e-08
7.5299755e-08
7.2780139e-08
7.0303607e-08
6.7868366e-08
6.5472643e-08
6.3114792e-08
6.0793235e-08
5.8505575e-08
5.625267e-08
5.4090493e-08
5.2080716e-08
5.022072e-08
4.8493242e-08
4.6885921e-08
4.5386393e-08
4.3984001e-08
4.2669328e-08
4.1434008e-08
4.0270618e-08
3.9172577e-08
3.8133938e-08
3.7149225e-08
3.6213408e-08
3.5321628e-08
3.4469391e-08
3.3651284e-08
3.2863548e-08
3.2095169e-08
3.1352155e-08
3.0575419e-08
2.9910766e-08
2.8923811e-08
0.00012941974
0.000119909
0.00011649218
0.00011476982
0.00011368322
0.00011292003
0.00011235397
0.00011191997
0.00011157933
0.00011130711
0.00011108637
0.00011090523
0.00011075505
0.00011062946
0.00011052361
0.00011043385
0.00011035708
0.00011029182
0.00011023385
0.00011019222
0.00011012244
0.00011024567
0.0001093698
0.00011365756
1.7722183e-05
2.6250011e-06
5.0326628e-06
8.8844205e-07
2.6053514e-06
5.5003406e-07
1.7911061e-06
4.0365844e-07
1.3677626e-06
1.1384481e-06
1.1033568e-06
9.7796413e-07
9.1824162e-07
8.4244767e-07
7.8697163e-07
7.3388088e-07
6.8850696e-07
6.4749851e-07
6.1086692e-07
5.7777045e-07
5.4775225e-07
5.2038928e-07
4.9533951e-07
4.7231613e-07
4.51078e-07
4.314215e-07
4.1317215e-07
3.9617984e-07
3.8031538e-07
3.6546637e-07
3.5153527e-07
3.3843697e-07
3.2609603e-07
3.144457e-07
3.0342709e-07
2.9298772e-07
2.8308064e-07
2.7366412e-07
2.6470083e-07
2.5615675e-07
2.4800114e-07
2.4020626e-07
2.3274699e-07
2.2560041e-07
2.1874558e-07
2.1216362e-07
2.0583732e-07
1.9975053e-07
1.9388844e-07
1.8823755e-07
1.8278535e-07
1.7752032e-07
1.7243173e-07
1.6750967e-07
1.6274528e-07
1.5813001e-07
1.5365574e-07
1.4931512e-07
1.4510127e-07
1.4100772e-07
1.3702843e-07
1.3315772e-07
1.2939041e-07
1.2572165e-07
1.2214671e-07
1.1866112e-07
1.1526079e-07
1.119418e-07
1.087005e-07
1.0553336e-07
1.0243711e-07
9.9408817e-08
9.6445501e-08
9.3544278e-08
9.0702539e-08
8.7917753e-08
8.5187527e-08
8.2509553e-08
7.9881666e-08
7.7301893e-08
7.4768206e-08
7.2278658e-08
6.9831438e-08
6.7424777e-08
6.505693e-08
6.2726277e-08
6.0431263e-08
5.8169534e-08
5.5941926e-08
5.3803672e-08
5.1815798e-08
4.9975923e-08
4.8267036e-08
4.6676915e-08
4.5193349e-08
4.3805805e-08
4.2504975e-08
4.1282595e-08
4.0131326e-08
3.9044667e-08
3.8016739e-08
3.7042133e-08
3.6115878e-08
3.5233173e-08
3.4389578e-08
3.3579745e-08
3.2799954e-08
3.2039328e-08
3.1303779e-08
3.0534966e-08
2.9876906e-08
2.890042e-08
0.00012933238
0.00011976344
0.00011632485
0.00011459114
0.00011349725
0.00011272889
0.00011215896
0.00011172198
0.00011137899
0.00011110487
0.00011088258
0.00011070015
0.0001105489
0.0001104224
0.00011031577
0.00011022533
0.00011014798
0.00011008221
0.00011002377
0.00010998179
0.00010991149
0.00011003528
0.00010915465
0.00011346701
1.7706804e-05
2.5991453e-06
4.9150152e-06
8.7610025e-07
2.5476524e-06
5.416901e-07
1.7535301e-06
3.9853439e-07
1.3405156e-06
1.1172857e-06
1.0823606e-06
9.6008108e-07
9.0148487e-07
8.2746335e-07
7.7313999e-07
7.2121293e-07
6.7679162e-07
6.3664601e-07
6.0077137e-07
5.6835262e-07
5.389418e-07
5.1212661e-07
4.8757302e-07
4.6500101e-07
4.4417508e-07
4.2489637e-07
4.0699442e-07
3.9032256e-07
3.7475455e-07
3.6018052e-07
3.4650513e-07
3.3364518e-07
3.2152688e-07
3.1008497e-07
2.9926185e-07
2.8900619e-07
2.7927205e-07
2.700186e-07
2.6120931e-07
2.528109e-07
2.4479326e-07
2.3712925e-07
2.2979427e-07
2.2276588e-07
2.1602358e-07
2.0954889e-07
2.0332494e-07
1.9733591e-07
1.915673e-07
1.8600589e-07
1.8063942e-07
1.7545659e-07
1.7044689e-07
1.6560062e-07
1.6090908e-07
1.5636389e-07
1.5195711e-07
1.4768151e-07
1.4353036e-07
1.394973e-07
1.3557642e-07
1.3176215e-07
1.2804939e-07
1.2443341e-07
1.2090954e-07
1.1747342e-07
1.1412103e-07
1.1084852e-07
1.0765229e-07
1.0452891e-07
1.0147514e-07
9.8488112e-08
9.5564901e-08
9.2702675e-08
8.9898868e-08
8.7150994e-08
8.4456702e-08
8.1813724e-08
7.9219931e-08
7.6673384e-08
7.4172086e-08
7.1714125e-08
6.9297718e-08
6.6921126e-08
6.4582632e-08
6.228064e-08
6.0013621e-08
5.7779268e-08
5.557839e-08
5.3465451e-08
5.1500788e-08
4.9682253e-08
4.7993094e-08
4.6421238e-08
4.4954633e-08
4.3582875e-08
4.2296776e-08
4.1088173e-08
3.9949819e-08
3.8875295e-08
3.7858794e-08
3.6894977e-08
3.5978935e-08
3.5105929e-08
3.4271574e-08
3.3470592e-08
3.2699304e-08
3.1946978e-08
3.1219425e-08
3.0459092e-08
2.9808099e-08
2.8842794e-08
0.00012921583
0.00011956916
0.00011610149
0.00011435263
0.00011324901
0.00011247374
0.00011189866
0.0001114577
0.00011111156
0.00011083491
0.00011061056
0.00011042641
0.00011027372
0.00011014601
0.00011003834
0.000109947
0.00010986887
0.00010980242
0.00010974336
0.0001097009
0.0001096299
0.00010975445
0.00010886749
0.00011321264
1.7694862e-05
2.5724364e-06
4.7931997e-06
8.6325778e-07
2.4876922e-06
5.3297498e-07
1.7143915e-06
3.9311227e-07
1.3120829e-06
1.0951208e-06
1.0604265e-06
9.413575e-07
8.8395362e-07
8.1176532e-07
7.586475e-07
7.0792912e-07
6.6450087e-07
6.2525348e-07
5.9016767e-07
5.5845506e-07
5.2967735e-07
5.0343321e-07
4.7939698e-07
4.572957e-07
4.3689974e-07
4.1801516e-07
4.004757e-07
3.8413827e-07
3.6887967e-07
3.5459271e-07
3.4118431e-07
3.2857325e-07
3.1668748e-07
3.054633e-07
2.9484442e-07
2.8478071e-07
2.7522731e-07
2.6614431e-07
2.5749602e-07
2.4924992e-07
2.4137657e-07
2.3384944e-07
2.2664448e-07
2.1973977e-07
2.1311523e-07
2.0675282e-07
2.0063602e-07
1.9474937e-07
1.8907868e-07
1.83611e-07
1.7833435e-07
1.7323768e-07
1.6831069e-07
1.6354388e-07
1.5892875e-07
1.544571e-07
1.5012113e-07
1.4591379e-07
1.4182846e-07
1.3785895e-07
1.3399944e-07
1.3024448e-07
1.2658908e-07
1.230286e-07
1.1955848e-07
1.1617443e-07
1.1287251e-07
1.0964895e-07
1.0650024e-07
1.0342298e-07
1.0041403e-07
9.7470546e-08
9.4589682e-08
9.176865e-08
8.9004935e-08
8.6296099e-08
8.3639831e-08
8.1033908e-08
7.8476237e-08
7.5964916e-08
7.349798e-08
7.1073554e-08
6.8689886e-08
6.6345267e-08
6.4038008e-08
6.1766543e-08
5.9529368e-08
5.7324223e-08
5.5151894e-08
5.3066031e-08
5.1126226e-08
4.9330565e-08
4.7662565e-08
4.6110313e-08
4.4661923e-08
4.3307131e-08
4.2036872e-08
4.0843094e-08
3.9718647e-08
3.8657196e-08
3.7653016e-08
3.6700838e-08
3.5795821e-08
3.493329e-08
3.4108921e-08
3.3317507e-08
3.2555415e-08
3.1812066e-08
3.1093166e-08
3.0342005e-08
2.9698668e-08
2.8745425e-08
0.00012906732
0.00011932131
0.00011581649
0.00011404826
0.00011293221
0.00011214813
0.00011156646
0.00011112042
0.00011077026
0.00011049038
0.00011026339
0.00011007705
0.00010992253
0.00010979326
0.00010968426
0.00010959179
0.00010951265
0.00010944533
0.00010938549
0.00010934241
0.00010927052
0.00010939602
0.00010850102
0.00011288811
1.7686822e-05
2.5446388e-06
4.666001e-06
8.4978731e-07
2.4248437e-06
5.2379515e-07
1.6732678e-06
3.8731508e-07
1.2821496e-06
1.0716999e-06
1.0373078e-06
9.2157839e-07
8.6544719e-07
7.9517168e-07
7.4332564e-07
6.9387379e-07
6.514899e-07
6.1318589e-07
5.7892938e-07
5.4795909e-07
5.1984714e-07
4.9420362e-07
4.7071165e-07
4.4910566e-07
4.2916219e-07
4.1069246e-07
3.9353461e-07
3.775493e-07
3.6261656e-07
3.4863195e-07
3.355048e-07
3.2315597e-07
3.1151524e-07
3.0052051e-07
2.9011692e-07
2.8025559e-07
2.7089276e-07
2.6198951e-07
2.5351104e-07
2.4542561e-07
2.377045e-07
2.3032182e-07
2.2325411e-07
2.1647995e-07
2.0997977e-07
2.0373592e-07
1.9773231e-07
1.9195382e-07
1.8638659e-07
1.8101799e-07
1.758363e-07
1.7083073e-07
1.6599121e-07
1.6130847e-07
1.567742e-07
1.5238038e-07
1.4811939e-07
1.4398434e-07
1.3996875e-07
1.3606657e-07
1.3227211e-07
1.2858005e-07
1.249855e-07
1.2148392e-07
1.1807084e-07
1.1474208e-07
1.1149378e-07
1.0832226e-07
1.0522405e-07
1.0219587e-07
9.9234597e-08
9.6337485e-08
9.3501729e-08
9.0724602e-08
8.800364e-08
8.5336454e-08
8.2720781e-08
8.0154439e-08
7.763538e-08
7.5161736e-08
7.273158e-08
7.0343073e-08
6.7994497e-08
6.5684176e-08
6.341045e-08
6.1171785e-08
5.8966704e-08
5.6792996e-08
5.4651426e-08
5.2594773e-08
5.0681825e-08
4.8910896e-08
4.7265788e-08
4.5734757e-08
4.4306099e-08
4.2969697e-08
4.1716618e-08
4.0538929e-08
3.9429584e-08
3.8382341e-08
3.7391558e-08
3.6452043e-08
3.5559026e-08
3.4707904e-08
3.3894416e-08
3.3113432e-08
3.2361369e-08
3.1627811e-08
3.0918353e-08
3.0177193e-08
2.9542219e-08
2.8602091e-08
0.00012888356
0.0001190141
0.00011546311
0.00011367083
0.00011253935
0.00011174432
0.00011115448
0.00011070212
0.00011034699
0.00011006309
0.00010983282
0.00010964377
0.00010948697
0.00010935577
0.00010924513
0.00010915123
0.00010907085
0.00010900246
0.00010894163
0.00010889779
0.0001088248
0.00010895148
0.00010804653
0.00011248583
1.7683424e-05
2.5155455e-06
4.5322965e-06
8.3556657e-07
2.3585134e-06
5.1405917e-07
1.6297541e-06
3.81065e-07
1.2504114e-06
1.0467756e-06
1.0127645e-06
9.0053331e-07
8.4576921e-07
7.7750386e-07
7.2700875e-07
6.7889364e-07
6.3761586e-07
6.0030977e-07
5.6693139e-07
5.3674709e-07
5.0934029e-07
4.8433307e-07
4.6141781e-07
4.4033674e-07
4.2087291e-07
4.0284302e-07
3.8608982e-07
3.7047797e-07
3.5589088e-07
3.4222706e-07
3.2939835e-07
3.1732781e-07
3.0594718e-07
2.9519605e-07
2.8502105e-07
2.7537462e-07
2.662142e-07
2.5750191e-07
2.4920386e-07
2.4128917e-07
2.3372987e-07
2.2650073e-07
2.1957893e-07
2.129436e-07
2.0657567e-07
2.0045796e-07
1.9457477e-07
1.8891138e-07
1.8345428e-07
1.7819116e-07
1.7311059e-07
1.6820205e-07
1.6345573e-07
1.5886257e-07
1.5441448e-07
1.5010364e-07
1.4592261e-07
1.4186467e-07
1.379235e-07
1.3409319e-07
1.303682e-07
1.2674331e-07
1.2321376e-07
1.1977513e-07
1.1642305e-07
1.1315343e-07
1.0996251e-07
1.0684667e-07
1.0380256e-07
1.0082694e-07
9.7916787e-08
9.5069397e-08
9.2282036e-08
8.9552037e-08
8.6876991e-08
8.4254561e-08
8.1682533e-08
7.9158775e-08
7.6681279e-08
7.424822e-08
7.1857707e-08
6.9507944e-08
6.7197248e-08
6.4923975e-08
6.2686502e-08
6.0483324e-08
5.8312996e-08
5.6173358e-08
5.4065152e-08
5.2040228e-08
5.0156494e-08
4.8412484e-08
4.6792308e-08
4.5284405e-08
4.3877263e-08
4.2560926e-08
4.1326605e-08
4.0166492e-08
3.9073655e-08
3.8041951e-08
3.7065828e-08
3.6140178e-08
3.5260309e-08
3.4421693e-08
3.3620135e-08
3.2850592e-08
3.2109535e-08
3.1386723e-08
3.0687632e-08
2.9957442e-08
2.9331662e-08
2.840588e-08
0.00012866078
0.00011864085
0.00011503359
0.00011321201
0.00011206172
0.00011125337
0.00011065357
0.00011019354
0.00010983233
0.00010954355
0.00010930929
0.00010911693
0.00010895736
0.00010882382
0.00010871117
0.00010861554
0.00010853366
0.00010846395
0.00010840193
0.00010835717
0.00010828284
0.00010841093
0.00010749393
0.00011199705
1.7685713e-05
2.4849843e-06
4.3910691e-06
8.2047893e-07
2.2881465e-06
5.0367799e-07
1.5834656e-06
3.7428364e-07
1.2165759e-06
1.020108e-06
9.8656417e-07
8.7801752e-07
8.2472856e-07
7.5858746e-07
7.095348e-07
6.6283836e-07
6.2273844e-07
5.8649383e-07
5.5405041e-07
5.2470298e-07
4.9804725e-07
4.7371788e-07
4.5141713e-07
4.3089552e-07
4.1194299e-07
3.9438204e-07
3.7806037e-07
3.6284685e-07
3.486285e-07
3.3530693e-07
3.227967e-07
3.1102319e-07
2.9992021e-07
2.8942916e-07
2.7949825e-07
2.7008135e-07
2.6113714e-07
2.5262884e-07
2.4452358e-07
2.3679135e-07
2.29405e-07
2.2234001e-07
2.1557422e-07
2.0908736e-07
2.0286089e-07
1.9687812e-07
1.9112379e-07
1.8558358e-07
1.8024437e-07
1.7509419e-07
1.701219e-07
1.6531729e-07
1.6067082e-07
1.5617366e-07
1.5181795e-07
1.4759608e-07
1.4350081e-07
1.3952559e-07
1.3566427e-07
1.319111e-07
1.2826068e-07
1.2470794e-07
1.2124824e-07
1.1787727e-07
1.1459077e-07
1.1138475e-07
1.0825556e-07
1.0519967e-07
1.0221381e-07
9.9294814e-08
9.6439745e-08
9.3645967e-08
9.0910811e-08
8.8231677e-08
8.5606212e-08
8.3032136e-08
8.0507289e-08
7.8029588e-08
7.5597076e-08
7.3207966e-08
7.0860413e-08
6.8552662e-08
6.6283068e-08
6.4050026e-08
6.1851948e-08
5.9687364e-08
5.755486e-08
5.5452334e-08
5.3380504e-08
5.1390217e-08
4.9538415e-08
4.7823852e-08
4.6230962e-08
4.4748386e-08
4.3364819e-08
4.207048e-08
4.0856734e-08
3.9715912e-08
3.8641203e-08
3.7626573e-08
3.6666566e-08
3.5756168e-08
3.4890768e-08
3.4065919e-08
3.3277502e-08
3.2520565e-08
3.1791637e-08
3.108067e-08
3.0393012e-08
2.9674906e-08
2.9059277e-08
2.8149255e-08
0.00012839478
0.00011819402
0.00011451913
0.00011266235
0.0001114895
0.00011066514
0.0001100534
0.00010958415
0.00010921566
0.00010892102
0.00010868197
0.00010848565
0.00010832276
0.0001081864
0.00010807134
0.00010797364
0.00010788994
0.00010781866
0.00010775521
0.00010770935
0.00010763341
0.0001077632
0.0001068318
0.00011141189
1.7695086e-05
2.4528261e-06
4.2414284e-06
8.044146e-07
2.2132361e-06
4.9256571e-07
1.5340434e-06
3.668926e-07
1.1803666e-06
9.9146741e-07
9.5848495e-07
8.5383412e-07
8.0214123e-07
7.3825391e-07
6.9074689e-07
6.4556204e-07
6.0672118e-07
5.7161013e-07
5.401661e-07
5.1171325e-07
4.8586067e-07
4.6225633e-07
4.4061303e-07
4.2069009e-07
4.0228483e-07
3.8522591e-07
3.6936631e-07
3.5457939e-07
3.4075601e-07
3.2780112e-07
3.1563216e-07
3.0417699e-07
2.9337163e-07
2.831594e-07
2.7349022e-07
2.6431947e-07
2.5560717e-07
2.4731772e-07
2.3941931e-07
2.3188289e-07
2.2468217e-07
2.177934e-07
2.1119512e-07
2.0486769e-07
1.9879316e-07
1.9295535e-07
1.8733947e-07
1.8193165e-07
1.7671916e-07
1.7169038e-07
1.6683455e-07
1.6214172e-07
1.5760266e-07
1.5320881e-07
1.4895253e-07
1.4482644e-07
1.4082351e-07
1.3693739e-07
1.3316211e-07
1.2949208e-07
1.2592206e-07
1.2244713e-07
1.1906277e-07
1.157648e-07
1.1254909e-07
1.0941176e-07
1.0634925e-07
1.0335815e-07
1.0043525e-07
9.7577506e-08
9.4782039e-08
9.2046295e-08
8.9367675e-08
8.674365e-08
8.4171931e-08
8.1650298e-08
7.9176648e-08
7.6748954e-08
7.4365309e-08
7.2023972e-08
6.9723145e-08
6.7461117e-08
6.5236286e-08
6.3047089e-08
6.0891975e-08
5.8769511e-08
5.6678322e-08
5.461636e-08
5.2584323e-08
5.0631974e-08
4.8815191e-08
4.7132941e-08
4.5570011e-08
4.4115257e-08
4.2757601e-08
4.1487453e-08
4.0296346e-08
3.917676e-08
3.8122019e-08
3.7126202e-08
3.6183966e-08
3.5290391e-08
3.4440957e-08
3.3631307e-08
3.2857404e-08
3.2114394e-08
3.139887e-08
3.0700992e-08
3.0025975e-08
2.9321217e-08
2.8716822e-08
2.782416e-08
0.00012808098
0.00011766525
0.00011390999
0.00011201139
0.00011081173
0.00010996839
0.00010934246
0.00010886227
0.00010848515
0.00010818356
0.00010793882
0.0001077378
0.00010757096
0.00010743127
0.00010731336
0.00010721319
0.00010712735
0.0001070542
0.00010698905
0.00010694188
0.00010686404
0.00010699584
0.00010604746
0.00011071936
1.7713338e-05
2.4189967e-06
4.0826394e-06
7.8727227e-07
2.1333354e-06
4.8064063e-07
1.4811621e-06
3.5881458e-07
1.1415279e-06
9.6063835e-07
9.2831907e-07
8.2779734e-07
7.7783333e-07
7.1634318e-07
6.704957e-07
6.2692536e-07
5.8943346e-07
5.555359e-07
5.2516272e-07
4.9766854e-07
4.7267697e-07
4.4985009e-07
4.2891196e-07
4.0963131e-07
3.9181333e-07
3.7529328e-07
3.5992975e-07
3.4560091e-07
3.3220175e-07
3.1964077e-07
3.0783846e-07
2.9672539e-07
2.8623991e-07
2.7632742e-07
2.6693966e-07
2.5803361e-07
2.4957073e-07
2.4151671e-07
2.3384085e-07
2.2651514e-07
2.195142e-07
2.1281512e-07
2.0639718e-07
2.0024144e-07
1.9433055e-07
1.8864889e-07
1.8318218e-07
1.7791703e-07
1.7284112e-07
1.6794323e-07
1.6321295e-07
1.5864069e-07
1.542175e-07
1.4993511e-07
1.4578614e-07
1.4176344e-07
1.3786022e-07
1.3407033e-07
1.30388e-07
1.2680781e-07
1.233247e-07
1.1993389e-07
1.1663102e-07
1.1341204e-07
1.1027294e-07
1.0720998e-07
1.0421968e-07
1.0129876e-07
9.8444119e-08
9.565278e-08
9.2921965e-08
9.0249196e-08
8.7631955e-08
8.5067786e-08
8.2554469e-08
8.008985e-08
7.7671889e-08
7.5298616e-08
7.296818e-08
7.0678892e-08
6.8429001e-08
6.6216848e-08
6.4040875e-08
6.1899563e-08
5.9791404e-08
5.7715007e-08
5.5669032e-08
5.3651496e-08
5.1663076e-08
4.9752358e-08
4.7974046e-08
4.6327319e-08
4.4797338e-08
4.3373199e-08
4.2044069e-08
4.0800565e-08
3.9634406e-08
3.8538234e-08
3.7505517e-08
3.6530464e-08
3.5607845e-08
3.4732852e-08
3.3901061e-08
3.3108213e-08
3.2350359e-08
3.1622752e-08
3.0922059e-08
3.0238665e-08
2.9577639e-08
2.888764e-08
2.8295695e-08
2.7422175e-08
0.00012771445
0.00011704543
0.00011319546
0.00011124763
0.00011001643
0.00010915075
0.00010850815
0.0001080151
0.00010762782
0.00010731805
0.00010706664
0.00010686008
0.00010668862
0.000106545
0.00010642373
0.00010632068
0.00010623232
0.00010615697
0.00010608983
0.00010604112
0.00010596105
0.0001060952
0.000105127
0.00010990748
1.7742715e-05
2.383492e-06
3.9141589e-06
7.689615e-07
2.048075e-06
4.6782676e-07
1.42454e-06
3.499748e-07
1.0998328e-06
9.2742565e-07
8.958783e-07
7.9973717e-07
7.516453e-07
6.9270756e-07
6.4864285e-07
6.0679875e-07
5.7075337e-07
5.3815621e-07
5.0893163e-07
4.8246593e-07
4.5839841e-07
4.3640617e-07
4.162253e-07
3.9763458e-07
3.8044759e-07
3.6450666e-07
3.4967639e-07
3.3584009e-07
3.2289713e-07
3.1075986e-07
2.9935204e-07
2.8860709e-07
2.784659e-07
2.6887607e-07
2.597913e-07
2.511703e-07
2.4297607e-07
2.3517566e-07
2.2773959e-07
2.2064093e-07
2.1385532e-07
2.0736073e-07
2.0113724e-07
1.9516663e-07
1.8943225e-07
1.8391904e-07
1.7861328e-07
1.7350208e-07
1.6857359e-07
1.6381701e-07
1.5922231e-07
1.5478026e-07
1.5048224e-07
1.4632029e-07
1.4228728e-07
1.3837636e-07
1.3458095e-07
1.3089514e-07
1.2731335e-07
1.2383038e-07
1.2044133e-07
1.1714161e-07
1.1392699e-07
1.1079358e-07
1.0773751e-07
1.0475516e-07
1.0184318e-07
9.8998399e-08
9.6217817e-08
9.3498569e-08
9.0837968e-08
8.8233619e-08
8.568309e-08
8.3184008e-08
8.0734225e-08
7.8331659e-08
7.5974335e-08
7.3660351e-08
7.1387913e-08
6.9155386e-08
6.6961075e-08
6.4803374e-08
6.2680776e-08
6.0591807e-08
5.8535008e-08
5.6509028e-08
5.4512573e-08
5.2543727e-08
5.0603143e-08
4.8738132e-08
4.7002106e-08
4.5394445e-08
4.3900716e-08
4.2510277e-08
4.1212562e-08
3.9998415e-08
3.8859754e-08
3.7789401e-08
3.6780981e-08
3.5828844e-08
3.4927888e-08
3.4073419e-08
3.3261125e-08
3.2486849e-08
3.174674e-08
3.103617e-08
3.0351883e-08
2.9684512e-08
2.9038971e-08
2.8365288e-08
2.7787136e-08
2.6934726e-08
0.00012729003
0.00011632474
0.000112364
0.00011035865
0.00010909062
0.00010819886
0.0001075368
0.00010702875
0.00010662962
0.00010631033
0.00010605112
0.00010583812
0.00010566125
0.00010551306
0.00010538789
0.00010528146
0.00010519016
0.00010511225
0.00010504279
0.00010499229
0.00010490963
0.0001050465
0.00010405536
0.0001089633
1.7785961e-05
2.3463985e-06
3.7356811e-06
7.4940575e-07
1.9571845e-06
4.5405593e-07
1.363953e-06
3.403031e-07
1.0550922e-06
8.9166177e-07
8.6100107e-07
7.6950552e-07
7.2343744e-07
6.6721659e-07
6.2506552e-07
5.8506646e-07
5.5057153e-07
5.193675e-07
4.9137455e-07
4.6601197e-07
4.4293598e-07
4.2183964e-07
4.0247186e-07
3.8462217e-07
3.6811312e-07
3.5279456e-07
3.3853752e-07
3.2523081e-07
3.1277851e-07
3.0109703e-07
2.9011367e-07
2.7976491e-07
2.6999431e-07
2.6075188e-07
2.5199339e-07
2.436794e-07
2.3577457e-07
2.2824741e-07
2.2106974e-07
2.1421583e-07
2.0766235e-07
2.0138824e-07
1.9537444e-07
1.8960354e-07
1.8405956e-07
1.7872812e-07
1.7359606e-07
1.6865105e-07
1.6388172e-07
1.5927772e-07
1.5482946e-07
1.5052807e-07
1.4636529e-07
1.423335e-07
1.3842586e-07
1.3463577e-07
1.3095696e-07
1.2738374e-07
1.2391075e-07
1.2053299e-07
1.1724578e-07
1.1404469e-07
1.1092567e-07
1.0788497e-07
1.0491889e-07
1.0202393e-07
9.9196896e-08
9.6434714e-08
9.3734511e-08
9.109353e-08
8.8509185e-08
8.5979174e-08
8.3501156e-08
8.1072846e-08
7.8692177e-08
7.6357142e-08
7.4065841e-08
7.1816439e-08
6.9607208e-08
6.7436574e-08
6.5302897e-08
6.3204633e-08
6.1140327e-08
5.9108555e-08
5.7107912e-08
5.5137093e-08
5.319485e-08
5.1279337e-08
4.939119e-08
4.7576331e-08
4.588675e-08
4.4322021e-08
4.286815e-08
4.1514777e-08
4.0251629e-08
3.9069798e-08
3.796142e-08
3.6919512e-08
3.5937872e-08
3.5011002e-08
3.4133938e-08
3.3302117e-08
3.2511341e-08
3.1757571e-08
3.103706e-08
3.034531e-08
2.967915e-08
2.9029483e-08
2.8401056e-08
2.7745391e-08
2.7182499e-08
2.6353341e-08
0.00012680236
0.00011549274
0.00011140331
0.00010933117
0.00010802042
0.00010709843
0.00010641383
0.00010588839
0.00010547553
0.0001051452
0.00010487698
0.00010465651
0.00010447339
0.00010431991
0.0001041902
0.00010407987
0.00010398517
0.0001039043
0.00010383216
0.00010377958
0.00010369393
0.00010383393
0.00010281644
0.00010787305
1.7846363e-05
2.3079185e-06
3.547189e-06
7.2854631e-07
1.8605172e-06
4.3927039e-07
1.2992511e-06
3.2973641e-07
1.0071669e-06
8.5321617e-07
8.2356136e-07
7.3698385e-07
6.9309694e-07
6.3976344e-07
5.9966213e-07
5.6163196e-07
5.2879599e-07
4.9908206e-07
4.7240776e-07
4.4822662e-07
4.2621304e-07
4.0607701e-07
3.8758112e-07
3.7052632e-07
3.5474471e-07
3.4009418e-07
3.2645262e-07
3.1371469e-07
3.017895e-07
2.905978e-07
2.8007065e-07
2.7014781e-07
2.6077572e-07
2.5190693e-07
2.4349944e-07
2.3551581e-07
2.2792244e-07
2.2068942e-07
2.1378995e-07
2.0719958e-07
2.0089612e-07
1.9485953e-07
1.8907167e-07
1.8351597e-07
1.7817724e-07
1.7304175e-07
1.68097e-07
1.6333121e-07
1.5873356e-07
1.542942e-07
1.5000395e-07
1.4585439e-07
1.4183762e-07
1.3794636e-07
1.3417412e-07
1.3051458e-07
1.2696175e-07
1.235102e-07
1.2015483e-07
1.1689085e-07
1.1371378e-07
1.106194e-07
1.0760383e-07
1.046635e-07
1.0179486e-07
9.8994564e-08
9.6259557e-08
9.3586902e-08
9.0973845e-08
8.8417749e-08
8.5916139e-08
8.346681e-08
8.1067522e-08
7.8716084e-08
7.6410515e-08
7.4148892e-08
7.1929393e-08
6.9750258e-08
6.760983e-08
6.5506597e-08
6.3438987e-08
6.1405515e-08
5.9404786e-08
5.7435433e-08
5.5496104e-08
5.3585547e-08
5.1702563e-08
4.9845384e-08
4.8014625e-08
4.6254707e-08
4.4616052e-08
4.3098422e-08
4.1688293e-08
4.0375615e-08
3.9150433e-08
3.8004109e-08
3.6929018e-08
3.5918388e-08
3.4966204e-08
3.4067136e-08
3.3216372e-08
3.2409486e-08
3.1642412e-08
3.0911235e-08
3.0212321e-08
2.9541315e-08
2.8895138e-08
2.826499e-08
2.7655436e-08
2.7019621e-08
2.6473573e-08
2.5669975e-08
0.00012624604
0.00011453853
0.00011030039
0.00010815119
0.0001067912
0.00010583437
0.0001051238
0.00010457834
0.00010414969
0.00010380666
0.00010352806
0.000103299
0.00010310869
0.00010294911
0.0001028142
0.00010269938
0.00010260076
0.00010251649
0.00010244127
0.0001023863
0.00010229723
0.00010244082
0.00010139324
0.0001066222
1.7927776e-05
2.2684027e-06
3.3490113e-06
7.0634699e-07
1.7580809e-06
4.23426e-07
1.2303778e-06
3.1822204e-07
9.5598224e-07
8.1200675e-07
7.8347946e-07
7.0209257e-07
6.6054648e-07
6.1027262e-07
5.7235955e-07
5.3642435e-07
5.0535816e-07
4.7723366e-07
4.5196724e-07
4.2904803e-07
4.0816982e-07
3.8906051e-07
3.714972e-07
3.5529296e-07
3.4029003e-07
3.2635485e-07
3.1337257e-07
3.012441e-07
2.8988389e-07
2.7921731e-07
2.6917944e-07
2.597135e-07
2.5076902e-07
2.4230124e-07
2.3427057e-07
2.2664165e-07
2.193828e-07
2.1246575e-07
2.0586522e-07
1.9955808e-07
1.9352336e-07
1.8774213e-07
1.8219724e-07
1.7687301e-07
1.7175507e-07
1.6683043e-07
1.6208725e-07
1.5751438e-07
1.5310158e-07
1.488395e-07
1.4471945e-07
1.4073343e-07
1.3687399e-07
1.331342e-07
1.2950791e-07
1.2598913e-07
1.2257217e-07
1.1925188e-07
1.1602341e-07
1.1288222e-07
1.0982406e-07
1.068449e-07
1.0394108e-07
1.0110918e-07
9.834584e-08
9.5647884e-08
9.3012395e-08
9.0436579e-08
8.7917819e-08
8.5453604e-08
8.3041576e-08
8.0679638e-08
7.8365657e-08
7.6097545e-08
7.3873411e-08
7.1691425e-08
6.9549848e-08
6.7447001e-08
6.5381303e-08
6.3351312e-08
6.1355525e-08
5.9392526e-08
5.7460981e-08
5.5559586e-08
5.3687046e-08
5.1842168e-08
5.0023805e-08
4.8230271e-08
4.6462163e-08
4.4762273e-08
4.3179311e-08
4.1713214e-08
4.0350961e-08
3.9082842e-08
3.7899244e-08
3.6791825e-08
3.5753218e-08
3.4776881e-08
3.3857005e-08
3.2988441e-08
3.216654e-08
3.1387031e-08
3.0645984e-08
2.9939621e-08
2.9264435e-08
2.8616223e-08
2.7992009e-08
2.7383313e-08
2.6794507e-08
2.6180494e-08
2.5652979e-08
2.4877396e-08
0.00012561575
0.00011345082
0.00010904179
0.00010680414
0.00010538769
0.00010439097
0.00010365066
0.0001030823
0.00010263558
0.00010227801
0.00010198754
0.00010174866
0.00010155012
0.00010138358
0.00010124271
0.00010112276
0.00010101967
0.00010093151
0.00010085276
0.00010079508
0.00010070212
0.00010084977
9.976811e-05
0.00010519563
1.8034623e-05
2.2283918e-06
3.1418821e-06
6.8279986e-07
1.6500694e-06
4.0649613e-07
1.1573931e-06
3.0572136e-07
9.0154423e-07
7.6801299e-07
7.4073466e-07
6.6480205e-07
6.2575438e-07
5.7870917e-07
5.431214e-07
5.0940613e-07
4.8022005e-07
4.5378408e-07
4.3001488e-07
4.0843835e-07
3.8876887e-07
3.7075317e-07
3.5418368e-07
3.3888627e-07
3.2471391e-07
3.1154204e-07
2.9926353e-07
2.8778588e-07
2.770292e-07