/*--------------------------------*- C++ -*----------------------------------*\
| =========                 |                                                 |
| \\      /  F ield         | OpenFOAM: The Open Source CFD Toolbox           |
|  \\    /   O peration     | Version:  2206                                  |
|   \\  /    A nd           | Website:  www.openfoam.com                      |
|    \\/     M anipulation  |                                                 |
\*---------------------------------------------------------------------------*/
FoamFile
{
    version     2.0;
    format      ascii;
    arch        "LSB;label=32;scalar=64";
    class       volScalarField;
    location    "1400";
    object      nut;
}
// * * * * * * * * * * * * * * * * * * * * * * * * * * * * * * * * * * * * * //

dimensions      [0 2 -1 0 0 0 0];

internalField   nonuniform List<scalar> 
13056
(
6.5445624e-09
5.6978253e-09
5.4233399e-09
5.287715e-09
5.2024424e-09
5.1428287e-09
5.0988191e-09
5.0651926e-09
5.0388534e-09
5.017816e-09
5.0007379e-09
4.986674e-09
4.9749345e-09
4.9649986e-09
4.9564515e-09
4.9489554e-09
4.9421598e-09
4.9358235e-09
4.9291263e-09
4.9226775e-09
4.9096549e-09
4.9069818e-09
4.8191227e-09
4.0867381e-09
3.168416e-11
1.2344063e-11
1.7414949e-11
7.2201595e-12
1.2506398e-11
5.6903026e-12
1.0351785e-11
4.8566959e-12
9.0322069e-12
8.2237408e-12
8.1021136e-12
7.6192316e-12
7.3828958e-12
7.066699e-12
6.8280918e-12
6.5906819e-12
6.3814266e-12
6.1861509e-12
6.0065632e-12
5.8396397e-12
5.6841151e-12
5.538632e-12
5.4020961e-12
5.2735625e-12
5.1522206e-12
5.0373733e-12
4.9284091e-12
4.8247909e-12
4.7260485e-12
4.6317645e-12
4.5415715e-12
4.4551442e-12
4.372188e-12
4.2924377e-12
4.2156561e-12
4.1416284e-12
4.0701592e-12
4.0010731e-12
3.9342113e-12
3.8694261e-12
3.8065815e-12
3.745554e-12
3.6862296e-12
3.6285031e-12
3.5722765e-12
3.5174617e-12
3.4639768e-12
3.4117431e-12
3.3606874e-12
3.3107424e-12
3.2618447e-12
3.213935e-12
3.1669571e-12
3.1208585e-12
3.0755928e-12
3.0311132e-12
2.9873737e-12
2.9443331e-12
2.9019517e-12
2.8601915e-12
2.8190164e-12
2.7783915e-12
2.738285e-12
2.6986666e-12
2.6595051e-12
2.6207704e-12
2.5824347e-12
2.5444701e-12
2.5068503e-12
2.4695486e-12
2.4325398e-12
2.395801e-12
2.3593074e-12
2.3230338e-12
2.2869569e-12
2.2510528e-12
2.215298e-12
2.1796685e-12
2.1441406e-12
2.1086919e-12
2.0732976e-12
2.0379323e-12
2.0025708e-12
1.9671869e-12
1.9317526e-12
1.89624e-12
1.8606199e-12
1.8248476e-12
1.7889285e-12
1.7537768e-12
1.7204708e-12
1.6890675e-12
1.6593732e-12
1.6312628e-12
1.604597e-12
1.5792544e-12
1.5551251e-12
1.5321088e-12
1.5101148e-12
1.4890608e-12
1.4688704e-12
1.4494708e-12
1.4307927e-12
1.4127655e-12
1.3953215e-12
1.3783694e-12
1.3618483e-12
1.3455378e-12
1.3295769e-12
1.3126796e-12
1.2980535e-12
1.2759962e-12
6.5445569e-09
5.6970869e-09
5.4223644e-09
5.2866208e-09
5.2012732e-09
5.141607e-09
5.0975587e-09
5.0639027e-09
5.0375407e-09
5.0164853e-09
4.999393e-09
4.985318e-09
4.9735701e-09
4.9636282e-09
4.9550776e-09
4.9475806e-09
4.9407877e-09
4.9344586e-09
4.9277772e-09
4.9213528e-09
4.9083927e-09
4.9058012e-09
4.8183181e-09
4.0861277e-09
3.2213425e-11
1.2225218e-11
1.6999673e-11
7.1093294e-12
1.2209433e-11
5.5809566e-12
1.0113225e-11
4.7517697e-12
8.8309991e-12
8.0488156e-12
7.9268807e-12
7.4582108e-12
7.2268344e-12
6.9192501e-12
6.6862873e-12
6.4548274e-12
6.2505343e-12
6.0598711e-12
5.8844064e-12
5.7212446e-12
5.5691449e-12
5.4267951e-12
5.2931329e-12
5.167242e-12
5.0483357e-12
4.9357377e-12
4.8288545e-12
4.7271646e-12
4.6302116e-12
4.53759e-12
4.448943e-12
4.3639546e-12
4.2823384e-12
4.2038367e-12
4.1282189e-12
4.0552762e-12
3.9848183e-12
3.9166745e-12
3.8506905e-12
3.7867223e-12
3.7246376e-12
3.6643159e-12
3.6056463e-12
3.5485259e-12
3.4928594e-12
3.4385605e-12
3.3855495e-12
3.3337494e-12
3.2830885e-12
3.2335011e-12
3.1849248e-12
3.1373018e-12
3.0905768e-12
3.0446981e-12
2.9996202e-12
2.955297e-12
2.9116831e-12
2.8687377e-12
2.8264216e-12
2.7846972e-12
2.7435285e-12
2.7028807e-12
2.6627221e-12
2.6230223e-12
2.5837501e-12
2.544875e-12
2.506369e-12
2.4682037e-12
2.4303522e-12
2.3927874e-12
2.3554831e-12
2.3184157e-12
2.2815593e-12
2.2448876e-12
2.208376e-12
2.1719991e-12
2.1357318e-12
2.0995483e-12
2.0634229e-12
2.0273308e-12
1.9912449e-12
1.9551369e-12
1.9189783e-12
1.8827394e-12
1.8463882e-12
1.8098924e-12
1.7732177e-12
1.7363131e-12
1.6991792e-12
1.6627571e-12
1.6281677e-12
1.5954782e-12
1.5644955e-12
1.5350974e-12
1.5071462e-12
1.4805214e-12
1.4551139e-12
1.4308238e-12
1.4075606e-12
1.3852422e-12
1.3637919e-12
1.3431362e-12
1.323205e-12
1.3039259e-12
1.2852294e-12
1.2670199e-12
1.2492336e-12
1.2316342e-12
1.2143716e-12
1.1960508e-12
1.1801501e-12
1.156117e-12
6.5444925e-09
5.694777e-09
5.4193344e-09
5.2832302e-09
5.1976545e-09
5.1378285e-09
5.0936622e-09
5.0599162e-09
5.0334837e-09
5.0123724e-09
4.995235e-09
4.9811236e-09
4.9693462e-09
4.9593809e-09
4.9508122e-09
4.9433024e-09
4.9365027e-09
4.9301735e-09
4.9235038e-09
4.9171041e-09
4.9042148e-09
4.9017337e-09
4.8146787e-09
4.084081e-09
3.2770849e-11
1.2106384e-11
1.6586299e-11
6.9980901e-12
1.1912902e-11
5.4712352e-12
9.8745918e-12
4.6468452e-12
8.6294622e-12
7.8732381e-12
7.7512133e-12
7.2966058e-12
7.0702552e-12
6.7712167e-12
6.5439112e-12
6.3183792e-12
6.1190477e-12
5.9329915e-12
5.7616503e-12
5.6022512e-12
5.4535799e-12
5.3143687e-12
5.1835868e-12
5.0603465e-12
4.9438851e-12
4.8335469e-12
4.7287562e-12
4.6290074e-12
4.5338576e-12
4.4429133e-12
4.3558282e-12
4.2722956e-12
4.1920375e-12
4.1148035e-12
4.0403697e-12
3.9685332e-12
3.899109e-12
3.8319313e-12
3.76685e-12
3.7037249e-12
3.6424274e-12
3.5828403e-12
3.5248555e-12
3.4683729e-12
3.4132995e-12
3.3595513e-12
3.3070506e-12
3.255722e-12
3.2054958e-12
3.1563077e-12
3.1080968e-12
3.0608063e-12
3.0143822e-12
2.9687739e-12
2.9239367e-12
2.8798253e-12
2.8363953e-12
2.7936063e-12
2.7514198e-12
2.7097986e-12
2.6687072e-12
2.6281111e-12
2.5879789e-12
2.5482806e-12
2.5089848e-12
2.4700613e-12
2.4314819e-12
2.3932185e-12
2.3552437e-12
2.3175304e-12
2.280052e-12
2.2427846e-12
2.2057019e-12
2.1687771e-12
2.131985e-12
2.0952996e-12
2.058695e-12
2.0221444e-12
1.9856213e-12
1.9491e-12
1.9125521e-12
1.8759479e-12
1.8392576e-12
1.8024499e-12
1.7654912e-12
1.728347e-12
1.6909812e-12
1.6533401e-12
1.6154231e-12
1.5781891e-12
1.5427871e-12
1.5092921e-12
1.477512e-12
1.4473267e-12
1.4185993e-12
1.3912105e-12
1.3650514e-12
1.3400227e-12
1.3160339e-12
1.2930028e-12
1.2708527e-12
1.2495098e-12
1.2289035e-12
1.2089606e-12
1.1896103e-12
1.1707554e-12
1.1523306e-12
1.1340925e-12
1.1161961e-12
1.0971971e-12
1.0806982e-12
1.0557725e-12
6.5443732e-09
5.6908243e-09
5.4141546e-09
5.2774362e-09
5.1914717e-09
5.1313735e-09
5.0870061e-09
5.0531063e-09
5.0265534e-09
5.0053461e-09
4.9881311e-09
4.9739564e-09
4.9621272e-09
4.9521195e-09
4.9435168e-09
4.9359805e-09
4.9291621e-09
4.9228231e-09
4.9161569e-09
4.9097762e-09
4.896953e-09
4.8945972e-09
4.8079454e-09
4.0804437e-09
3.3367067e-11
1.198619e-11
1.6169528e-11
6.8852546e-12
1.161304e-11
5.3599912e-12
9.6328642e-12
4.540933e-12
8.4250534e-12
7.6948044e-12
7.5729148e-12
7.1324047e-12
6.9112199e-12
6.6207763e-12
6.3992214e-12
6.1796782e-12
5.9853784e-12
5.8039901e-12
5.6368329e-12
5.481253e-12
5.3360647e-12
5.2000441e-12
5.072193e-12
4.951652e-12
4.8376827e-12
4.7296503e-12
4.6269972e-12
4.5292336e-12
4.4359303e-12
4.3467061e-12
4.2612252e-12
4.1791904e-12
4.1003322e-12
4.0244076e-12
3.9511994e-12
3.8805108e-12
3.8121623e-12
3.7459927e-12
3.6818566e-12
3.6196177e-12
3.559151e-12
3.5003426e-12
3.4430875e-12
3.3872884e-12
3.3328548e-12
3.279705e-12
3.2277632e-12
3.1769562e-12
3.1272159e-12
3.0784797e-12
3.0306881e-12
2.9837859e-12
2.9377201e-12
2.8924415e-12
2.8479062e-12
2.8040701e-12
2.7608894e-12
2.7183248e-12
2.6763383e-12
2.6348936e-12
2.5939556e-12
2.5534906e-12
2.5134673e-12
2.4738564e-12
2.4346269e-12
2.3957488e-12
2.3571943e-12
2.3189353e-12
2.280945e-12
2.243196e-12
2.2056622e-12
2.1683194e-12
2.1311417e-12
2.0941021e-12
2.0571754e-12
2.0203354e-12
1.9835563e-12
1.9468112e-12
1.9100734e-12
1.8733169e-12
1.8365133e-12
1.7996327e-12
1.7626452e-12
1.7255191e-12
1.6882207e-12
1.6507155e-12
1.6129673e-12
1.5749221e-12
1.5365799e-12
1.4989101e-12
1.4630774e-12
1.4291621e-12
1.3969731e-12
1.3663918e-12
1.3372822e-12
1.3095251e-12
1.2830123e-12
1.2576444e-12
1.2333309e-12
1.2099897e-12
1.1875439e-12
1.1659194e-12
1.1450455e-12
1.1248483e-12
1.1052568e-12
1.0861731e-12
1.0675315e-12
1.0490866e-12
1.030995e-12
1.0118006e-12
9.9513616e-13
9.6999926e-13
6.5442064e-09
5.6851173e-09
5.4066764e-09
5.2690717e-09
5.1825466e-09
5.1220556e-09
5.077398e-09
5.0432762e-09
5.0165495e-09
4.9952033e-09
4.977876e-09
4.9636092e-09
4.9517042e-09
4.941634e-09
4.93298e-09
4.9254026e-09
4.9185531e-09
4.9121936e-09
4.9055221e-09
4.8991548e-09
4.886393e-09
4.884178e-09
4.7979055e-09
4.0751e-09
3.4013147e-11
1.1863386e-11
1.5744511e-11
6.7697096e-12
1.1306354e-11
5.2461464e-12
9.3852184e-12
4.433106e-12
8.2153835e-12
7.5114313e-12
7.3899144e-12
6.9637048e-12
6.747896e-12
6.4662033e-12
6.2505675e-12
6.0371516e-12
5.8480202e-12
5.6714227e-12
5.5085665e-12
5.3569144e-12
5.2153117e-12
5.0825787e-12
4.9577502e-12
4.8399959e-12
4.7286023e-12
4.6229557e-12
4.5225171e-12
4.4268128e-12
4.3354278e-12
4.2479933e-12
4.1641844e-12
4.0837135e-12
4.0063197e-12
3.9317679e-12
3.8598478e-12
3.7903686e-12
3.7231566e-12
3.6580555e-12
3.5949243e-12
3.5336311e-12
3.4740546e-12
3.4160845e-12
3.3596187e-12
3.3045628e-12
3.2508291e-12
3.1983381e-12
3.1470163e-12
3.0967927e-12
3.0476009e-12
2.9993801e-12
2.9520725e-12
2.9056242e-12
2.8599838e-12
2.8151031e-12
2.7709397e-12
2.7274503e-12
2.6845923e-12
2.6423274e-12
2.6006184e-12
2.5594297e-12
2.5187271e-12
2.4784776e-12
2.4386507e-12
2.3992175e-12
2.3601477e-12
2.3214119e-12
2.2829826e-12
2.2448325e-12
2.2069349e-12
2.1692632e-12
2.1317915e-12
2.0944962e-12
2.0573515e-12
2.0203309e-12
1.9834097e-12
1.9465621e-12
1.9097626e-12
1.8729848e-12
1.8362023e-12
1.7993898e-12
1.7625195e-12
1.7255619e-12
1.6884878e-12
1.6512664e-12
1.6138648e-12
1.5762496e-12
1.5383856e-12
1.5002205e-12
1.4617563e-12
1.423965e-12
1.388017e-12
1.3539958e-12
1.3217116e-12
1.2910466e-12
1.2618653e-12
1.2340489e-12
1.207489e-12
1.1820866e-12
1.1577509e-12
1.1343998e-12
1.1119563e-12
1.0903462e-12
1.0694985e-12
1.0493394e-12
1.0297978e-12
1.0107759e-12
9.9220836e-13
9.738514e-13
9.5586005e-13
9.3679169e-13
9.2024622e-13
8.953385e-13
6.5440043e-09
5.6775068e-09
5.3967001e-09
5.2579122e-09
5.1706388e-09
5.1096237e-09
5.0645788e-09
5.0301609e-09
5.003202e-09
4.9816704e-09
4.9641927e-09
4.9498027e-09
4.9377958e-09
4.9276411e-09
4.9189172e-09
4.9112827e-09
4.9043886e-09
4.8979973e-09
4.891311e-09
4.8849507e-09
4.8722453e-09
4.870188e-09
4.7842702e-09
4.0678929e-09
3.4721949e-11
1.1736844e-11
1.5306817e-11
6.6504158e-12
1.0989606e-11
5.1286919e-12
9.1290141e-12
4.3224996e-12
7.9982052e-12
7.3211472e-12
7.2002571e-12
6.7887039e-12
6.5785488e-12
6.3058613e-12
6.0963844e-12
5.8893066e-12
5.705543e-12
5.533918e-12
5.3755331e-12
5.227967e-12
5.0900983e-12
4.9607922e-12
4.8391177e-12
4.7242747e-12
4.6155749e-12
4.5124267e-12
4.4143102e-12
4.3207684e-12
4.2314008e-12
4.1458515e-12
4.063807e-12
3.9849895e-12
3.9091472e-12
3.8360529e-12
3.7655035e-12
3.6973148e-12
3.6313185e-12
3.5673639e-12
3.5053147e-12
3.4450432e-12
3.3864321e-12
3.3293746e-12
3.2737721e-12
3.2195332e-12
3.1665729e-12
3.1148142e-12
3.0641861e-12
3.0146196e-12
2.9660505e-12
2.9184197e-12
2.8716713e-12
2.8257529e-12
2.7806146e-12
2.7362097e-12
2.692497e-12
2.6494345e-12
2.6069807e-12
2.5650984e-12
2.5237515e-12
2.4829054e-12
2.4425267e-12
2.4025833e-12
2.3630456e-12
2.3238854e-12
2.2850731e-12
2.2465802e-12
2.20838e-12
2.1704456e-12
2.1327513e-12
2.0952709e-12
2.0579793e-12
2.0208535e-12
1.9838686e-12
1.9469986e-12
1.9102195e-12
1.8735063e-12
1.8368343e-12
1.8001779e-12
1.7635117e-12
1.7268113e-12
1.6900498e-12
1.6531991e-12
1.616231e-12
1.5791164e-12
1.5418237e-12
1.5043215e-12
1.4665766e-12
1.4285391e-12
1.3902135e-12
1.3525686e-12
1.3167707e-12
1.2829054e-12
1.2507841e-12
1.2202895e-12
1.1912863e-12
1.1636561e-12
1.1372907e-12
1.1120909e-12
1.0879659e-12
1.0648337e-12
1.0426171e-12
1.0212418e-12
1.0006371e-12
9.8072923e-13
9.6144748e-13
9.4269488e-13
9.2440661e-13
9.0634306e-13
8.8865575e-13
8.6993211e-13
8.5369707e-13
8.2930972e-13
6.5437855e-09
5.6678067e-09
5.3839761e-09
5.243677e-09
5.1554482e-09
5.0937641e-09
5.048225e-09
5.0134292e-09
4.986174e-09
4.9644057e-09
4.9467359e-09
4.9321881e-09
4.9200507e-09
4.9097872e-09
4.9009729e-09
4.8932639e-09
4.8863102e-09
4.8798745e-09
4.873163e-09
4.8668029e-09
4.8541482e-09
4.8522669e-09
4.7666766e-09
4.0586248e-09
3.5508539e-11
1.1605581e-11
1.4852435e-11
6.5264105e-12
1.065981e-11
5.0066895e-12
8.8617938e-12
4.2083126e-12
7.7714122e-12
7.1220911e-12
7.0021021e-12
6.6056995e-12
6.4015402e-12
6.1382026e-12
5.9351913e-12
5.7347297e-12
5.5565923e-12
5.3901767e-12
5.2364841e-12
5.093209e-12
4.9592662e-12
4.8335669e-12
4.7152158e-12
4.6034439e-12
4.4975894e-12
4.3970835e-12
4.3014263e-12
4.2101782e-12
4.1229537e-12
4.0394105e-12
3.9592466e-12
3.8821949e-12
3.8080128e-12
3.7364815e-12
3.6674055e-12
3.6006071e-12
3.5359243e-12
3.4732119e-12
3.4123383e-12
3.3531806e-12
3.2956256e-12
3.2395703e-12
3.1849196e-12
3.1315853e-12
3.0794854e-12
3.0285455e-12
2.9786971e-12
2.9298736e-12
2.8820129e-12
2.835058e-12
2.7889547e-12
2.7436525e-12
2.6991032e-12
2.6552615e-12
2.6120876e-12
2.5695409e-12
2.5275814e-12
2.4861729e-12
2.4452804e-12
2.4048705e-12
2.3649111e-12
2.3253708e-12
2.286221e-12
2.2474345e-12
2.2089828e-12
2.1708381e-12
2.1329745e-12
2.0953663e-12
2.0579883e-12
2.0208155e-12
1.9838235e-12
1.9469902e-12
1.9102915e-12
1.8737025e-12
1.8372001e-12
1.8007604e-12
1.7643596e-12
1.7279733e-12
1.6915773e-12
1.6551485e-12
1.6186614e-12
1.5820894e-12
1.5454061e-12
1.5085839e-12
1.4715935e-12
1.4344056e-12
1.3969896e-12
1.3592987e-12
1.32134e-12
1.2840731e-12
1.2486528e-12
1.215165e-12
1.1834228e-12
1.1533089e-12
1.1246887e-12
1.0974439e-12
1.0714665e-12
1.0466574e-12
1.022926e-12
1.0001902e-12
9.7837294e-13
9.5740032e-13
9.3720156e-13
9.1770359e-13
8.988362e-13
8.8050389e-13
8.6264262e-13
8.4501868e-13
8.2777868e-13
8.0955153e-13
7.9375821e-13
7.7008712e-13
6.5435785e-09
5.6557968e-09
5.3682076e-09
5.2260318e-09
5.1366172e-09
5.0741032e-09
5.027951e-09
4.9926865e-09
4.9650638e-09
4.9430017e-09
4.9250935e-09
4.9103498e-09
4.8980499e-09
4.887651e-09
4.8787235e-09
4.8709206e-09
4.8638907e-09
4.8573966e-09
4.8506483e-09
4.8442806e-09
4.8316703e-09
4.8299852e-09
4.744692e-09
4.0470587e-09
3.6390715e-11
1.1468777e-11
1.4377801e-11
6.3968132e-12
1.0314251e-11
4.8792757e-12
8.5812944e-12
4.0898093e-12
7.5330482e-12
6.9125208e-12
6.7937301e-12
6.4130953e-12
6.2153346e-12
5.9617733e-12
5.7655968e-12
5.572092e-12
5.3998941e-12
5.2389763e-12
5.0902445e-12
4.9515096e-12
4.8217258e-12
4.6998516e-12
4.5850292e-12
4.476522e-12
4.3736963e-12
4.2760067e-12
4.1829744e-12
4.094178e-12
4.009248e-12
3.9278558e-12
3.8497122e-12
3.7745607e-12
3.7021687e-12
3.6323263e-12
3.5648456e-12
3.4995561e-12
3.4363025e-12
3.3749449e-12
3.3153573e-12
3.2574215e-12
3.2010286e-12
3.1460799e-12
3.0924837e-12
3.0401555e-12
2.9890161e-12
2.9389943e-12
2.8900241e-12
2.8420414e-12
2.7949865e-12
2.7488044e-12
2.703443e-12
2.6588538e-12
2.6149903e-12
2.5718088e-12
2.5292712e-12
2.4873383e-12
2.4459715e-12
2.405136e-12
2.3647982e-12
2.3249258e-12
2.2854878e-12
2.2464542e-12
2.2077973e-12
2.1694912e-12
2.1315082e-12
2.0938218e-12
2.056407e-12
2.019239e-12
1.9822939e-12
1.9455475e-12
1.9089765e-12
1.8725599e-12
1.8362746e-12
1.8000969e-12
1.7640048e-12
1.7279756e-12
1.6919868e-12
1.6560153e-12
1.6200383e-12
1.5840342e-12
1.5479792e-12
1.5118483e-12
1.4756171e-12
1.4392601e-12
1.4027502e-12
1.3660605e-12
1.3291635e-12
1.2920154e-12
1.2546263e-12
1.2179411e-12
1.1830958e-12
1.1501762e-12
1.1189969e-12
1.0894408e-12
1.0613742e-12
1.0346789e-12
1.0092474e-12
9.849809e-13
9.6178913e-13
9.3959016e-13
9.1830732e-13
8.9786706e-13
8.7819915e-13
8.5923125e-13
8.4089403e-13
8.2309388e-13
8.0576782e-13
7.8868933e-13
7.719991e-13
7.5437542e-13
7.3911527e-13
7.1629403e-13
6.5434247e-09
5.641225e-09
5.3490528e-09
5.2045912e-09
5.1137333e-09
5.0502095e-09
5.0033118e-09
4.9674773e-09
4.9394077e-09
4.9169884e-09
4.8987902e-09
4.8838082e-09
4.8713104e-09
4.8607461e-09
4.8516801e-09
4.8437618e-09
4.8366371e-09
4.8300691e-09
4.823271e-09
4.8168872e-09
4.804314e-09
4.8028469e-09
4.7178167e-09
4.0329184e-09
3.7389683e-11
1.1325823e-11
1.3879847e-11
6.2608351e-12
9.9505185e-12
4.7456678e-12
8.2854734e-12
3.9663224e-12
7.2813275e-12
6.6908304e-12
6.5735594e-12
6.2094157e-12
6.0185125e-12
5.7752269e-12
5.5863109e-12
5.4001598e-12
5.2342654e-12
5.0791812e-12
4.9357226e-12
4.8018182e-12
4.6764646e-12
4.5586696e-12
4.4476151e-12
4.3425981e-12
4.2430144e-12
4.1483436e-12
4.0581289e-12
3.9719679e-12
3.8895079e-12
3.8104353e-12
3.7344736e-12
3.6613781e-12
3.5909265e-12
3.5229181e-12
3.4571734e-12
3.3935296e-12
3.3318378e-12
3.2719646e-12
3.2137892e-12
3.1571988e-12
3.1020891e-12
3.0483656e-12
2.9959407e-12
2.9447333e-12
2.8946678e-12
2.8456759e-12
2.7976945e-12
2.7506621e-12
2.7045216e-12
2.6592202e-12
2.6147082e-12
2.5709389e-12
2.5278678e-12
2.4854531e-12
2.4436582e-12
2.4024458e-12
2.3617786e-12
2.3216234e-12
2.2819481e-12
2.2427216e-12
2.2039143e-12
2.1654975e-12
2.1274448e-12
2.0897313e-12
2.0523306e-12
2.0152172e-12
1.9783676e-12
1.9417579e-12
1.9053654e-12
1.8691671e-12
1.8331409e-12
1.7972667e-12
1.761523e-12
1.7258871e-12
1.6903383e-12
1.6548553e-12
1.6194171e-12
1.5840018e-12
1.5485884e-12
1.5131568e-12
1.4776851e-12
1.44215e-12
1.4065291e-12
1.3707992e-12
1.3349356e-12
1.2989141e-12
1.2627097e-12
1.2262824e-12
1.1896448e-12
1.153722e-12
1.1196259e-12
1.0874403e-12
1.0569825e-12
1.0281355e-12
1.0007664e-12
9.7475801e-13
9.5000321e-13
9.2640378e-13
9.0387009e-13
8.8232073e-13
8.6167959e-13
8.418738e-13
8.2283391e-13
8.0448863e-13
7.8676977e-13
7.6958602e-13
7.5287571e-13
7.3642042e-13
7.2035429e-13
7.0341053e-13
6.887481e-13
6.6686857e-13
6.543383e-09
5.6238095e-09
5.3261269e-09
5.1789207e-09
5.0863314e-09
5.021597e-09
4.9738057e-09
4.9372882e-09
4.9086834e-09
4.8858362e-09
4.8672905e-09
4.8520228e-09
4.8392876e-09
4.8285248e-09
4.8192921e-09
4.8112341e-09
4.8039943e-09
4.797335e-09
4.7904725e-09
4.7840627e-09
4.7715184e-09
4.7702932e-09
4.6854882e-09
4.0158887e-09
3.8530911e-11
1.1176372e-11
1.3356082e-11
6.1177914e-12
9.5665601e-12
4.6051733e-12
7.9725491e-12
3.8372587e-12
7.0146671e-12
6.4555774e-12
6.3401718e-12
5.9933299e-12
5.8097926e-12
5.5773436e-12
5.3961643e-12
5.2178131e-12
5.0586308e-12
4.9097583e-12
4.7719246e-12
4.643178e-12
4.5225607e-12
4.409132e-12
4.3021151e-12
4.2008432e-12
4.1047424e-12
4.0133192e-12
3.9261396e-12
3.8428216e-12
3.7630301e-12
3.6864672e-12
3.6128701e-12
3.5420063e-12
3.4736644e-12
3.4076538e-12
3.3438036e-12
3.2819589e-12
3.2219783e-12
3.1637345e-12
3.1071131e-12
3.0520062e-12
2.9983149e-12
2.9459489e-12
2.8948252e-12
2.8448663e-12
2.7960002e-12
2.748162e-12
2.7012915e-12
2.6553302e-12
2.6102234e-12
2.5659212e-12
2.5223758e-12
2.4795431e-12
2.4373804e-12
2.395848e-12
2.354911e-12
2.314534e-12
2.2746813e-12
2.2353214e-12
2.1964235e-12
2.1579583e-12
2.1198975e-12
2.0822138e-12
2.0448821e-12
2.0078788e-12
1.9711788e-12
1.934758e-12
1.898594e-12
1.8626643e-12
1.8269473e-12
1.7914213e-12
1.7560655e-12
1.7208612e-12
1.685788e-12
1.6508246e-12
1.6159517e-12
1.5811495e-12
1.5463983e-12
1.5116781e-12
1.4769692e-12
1.4422532e-12
1.4075101e-12
1.3727186e-12
1.3378585e-12
1.3029084e-12
1.2678464e-12
1.2326505e-12
1.1972989e-12
1.1617548e-12
1.1260332e-12
1.0910353e-12
1.0578428e-12
1.0265375e-12
9.9693933e-13
9.6893194e-13
9.4238372e-13
9.1717841e-13
8.9320997e-13
8.7038107e-13
8.4860296e-13
8.2779506e-13
8.0788215e-13
7.8879235e-13
7.7045724e-13
7.528069e-13
7.3577456e-13
7.1927156e-13
7.0323775e-13
6.874636e-13
6.7207619e-13
6.5586757e-13
6.418489e-13
6.2097463e-13
6.5435362e-09
5.6032426e-09
5.2990058e-09
5.1485405e-09
5.0538975e-09
4.987728e-09
4.9388779e-09
4.9015516e-09
4.8723129e-09
4.848959e-09
4.8300019e-09
4.8143958e-09
4.8013794e-09
4.790381e-09
4.7809502e-09
4.7727259e-09
4.7653479e-09
4.758578e-09
4.7516351e-09
4.7451884e-09
4.7326634e-09
4.7317062e-09
4.6470854e-09
3.9956162e-09
3.9845222e-11
1.1020418e-11
1.2804702e-11
5.9671188e-12
9.1607511e-12
4.4572024e-12
7.6410559e-12
3.702107e-12
6.731732e-12
6.2055212e-12
6.0923493e-12
5.7636849e-12
5.5880626e-12
5.3670603e-12
5.1941347e-12
5.0240705e-12
4.8720465e-12
4.7297996e-12
4.5979764e-12
4.4747468e-12
4.3592021e-12
4.2504551e-12
4.147773e-12
4.0505265e-12
3.9581745e-12
3.870251e-12
3.7863466e-12
3.7061007e-12
3.6291967e-12
3.5553533e-12
3.4843223e-12
3.415884e-12
3.3498388e-12
3.2860063e-12
3.2242252e-12
3.164349e-12
3.1062437e-12
3.0497892e-12
2.9948771e-12
2.9414056e-12
2.8892809e-12
2.8384176e-12
2.788737e-12
2.740166e-12
2.6926364e-12
2.6460866e-12
2.6004598e-12
2.5557004e-12
2.5117569e-12
2.4685816e-12
2.4261296e-12
2.3843589e-12
2.3432291e-12
2.3027027e-12
2.2627467e-12
2.2233275e-12
2.1844114e-12
2.1459684e-12
2.1079697e-12
2.0703872e-12
2.0331945e-12
1.9963655e-12
1.9598767e-12
1.9237059e-12
1.8878295e-12
1.8522245e-12
1.81687e-12
1.7817449e-12
1.7468288e-12
1.7121016e-12
1.6775435e-12
1.6431373e-12
1.608864e-12
1.5747037e-12
1.5406386e-12
1.5066503e-12
1.4727207e-12
1.4388312e-12
1.404964e-12
1.3711025e-12
1.3372281e-12
1.3033219e-12
1.2693654e-12
1.2353396e-12
1.2012247e-12
1.1670016e-12
1.1326508e-12
1.0981392e-12
1.0634836e-12
1.029557e-12
9.9740651e-13
9.6711111e-13
9.3849416e-13
9.1144013e-13
8.8581921e-13
8.6151656e-13
8.3842752e-13
8.1645607e-13
7.9551473e-13
7.7552407e-13
7.5641008e-13
7.3810218e-13
7.205333e-13
7.0363519e-13
6.8734277e-13
6.7157032e-13
6.5625948e-13
6.4121015e-13
6.2654208e-13
6.1110889e-13
5.9776714e-13
5.7794213e-13
6.5439981e-09
5.5791944e-09
5.2672292e-09
5.1129285e-09
5.0158715e-09
4.9480168e-09
4.8979243e-09
4.859649e-09
4.8296669e-09
4.805719e-09
4.7862795e-09
4.7702765e-09
4.7569303e-09
4.7456554e-09
4.7359917e-09
4.7275715e-09
4.7200299e-09
4.713128e-09
4.7060866e-09
4.6995908e-09
4.6870744e-09
4.6864134e-09
4.6019336e-09
3.9717087e-09
4.1370175e-11
1.0858397e-11
1.2224713e-11
5.8083978e-12
8.7319862e-12
4.3012839e-12
7.2899151e-12
3.5604512e-12
6.4314928e-12
5.939672e-12
5.8291219e-12
5.5195487e-12
5.3524204e-12
5.1435078e-12
4.9793834e-12
4.818123e-12
4.6737319e-12
4.5385519e-12
4.4131512e-12
4.2958233e-12
4.1857116e-12
4.0819851e-12
3.9839571e-12
3.891038e-12
3.8027208e-12
3.718569e-12
3.6381988e-12
3.5612721e-12
3.4874921e-12
3.416595e-12
3.3483479e-12
3.2825448e-12
3.2189982e-12
3.157539e-12
3.0980157e-12
3.0402907e-12
2.9842382e-12
2.9297455e-12
2.8767107e-12
2.8250381e-12
2.7746396e-12
2.7254351e-12
2.6773505e-12
2.6303172e-12
2.584271e-12
2.5391541e-12
2.494913e-12
2.4514956e-12
2.4088532e-12
2.3669412e-12
2.3257171e-12
2.2851415e-12
2.2451766e-12
2.205787e-12
2.1669417e-12
2.1286091e-12
2.0907577e-12
2.0533593e-12
2.0163866e-12
1.9798136e-12
1.9436151e-12
1.9077671e-12
1.8722472e-12
1.837035e-12
1.8021081e-12
1.7674452e-12
1.7330267e-12
1.6988329e-12
1.6648449e-12
1.6310439e-12
1.5974116e-12
1.5639322e-12
1.5305879e-12
1.4973606e-12
1.4642338e-12
1.4311906e-12
1.3982144e-12
1.3652884e-12
1.3323964e-12
1.2995232e-12
1.2666525e-12
1.2337669e-12
1.20085e-12
1.167885e-12
1.1348544e-12
1.1017412e-12
1.0685286e-12
1.0351868e-12
1.001734e-12
9.6901168e-13
9.3802769e-13
9.0885792e-13
8.8132976e-13
8.5532897e-13
8.30728e-13
8.0741395e-13
7.8528395e-13
7.6424373e-13
7.4420743e-13
7.2509718e-13
7.0684051e-13
6.8936845e-13
6.7261561e-13
6.5651565e-13
6.4100547e-13
6.2600263e-13
6.1145072e-13
5.9715953e-13
5.8324134e-13
5.6861319e-13
5.5597244e-13
5.3722713e-13
6.5449231e-09
5.5513175e-09
5.2303051e-09
5.071525e-09
4.9716532e-09
4.9018353e-09
4.8502963e-09
4.8109171e-09
4.7800704e-09
4.7554318e-09
4.7354316e-09
4.7189673e-09
4.7052374e-09
4.6936408e-09
4.683706e-09
4.6750569e-09
4.6673239e-09
4.6602663e-09
4.6531064e-09
4.6465479e-09
4.6340282e-09
4.6336938e-09
4.5493087e-09
3.9437381e-09
4.3151822e-11
1.0691328e-11
1.1616086e-11
5.6413814e-12
8.2797862e-12
4.1370856e-12
6.9185214e-12
3.4119863e-12
6.1132979e-12
5.6573527e-12
5.5498271e-12
5.260265e-12
5.102225e-12
4.9060588e-12
4.7512993e-12
4.5993757e-12
4.4631089e-12
4.3354546e-12
4.2169054e-12
4.1058807e-12
4.0015791e-12
3.9032282e-12
3.8101895e-12
3.7219152e-12
3.637934e-12
3.5578406e-12
3.4812779e-12
3.4079317e-12
3.3375259e-12
3.2698149e-12
3.2045823e-12
3.1416363e-12
3.0808025e-12
3.0219233e-12
2.9648578e-12
2.9094779e-12
2.8556663e-12
2.803318e-12
2.7523382e-12
2.7026378e-12
2.6541346e-12
2.606754e-12
2.560427e-12
2.5150896e-12
2.470682e-12
2.4271502e-12
2.3844445e-12
2.3425162e-12
2.3013199e-12
2.2608139e-12
2.2209588e-12
2.1817177e-12
2.1430553e-12
2.1049386e-12
2.0673391e-12
2.030227e-12
1.9935731e-12
1.957351e-12
1.9215355e-12
1.8861021e-12
1.8510278e-12
1.8162898e-12
1.7818678e-12
1.7477424e-12
1.7138932e-12
1.6803004e-12
1.6469456e-12
1.6138109e-12
1.5808787e-12
1.5481316e-12
1.5155529e-12
1.4831281e-12
1.450841e-12
1.4186748e-12
1.3866146e-12
1.354645e-12
1.3227509e-12
1.2909173e-12
1.2591293e-12
1.2273737e-12
1.1956357e-12
1.1638999e-12
1.1321517e-12
1.1003763e-12
1.0685583e-12
1.0366831e-12
1.004736e-12
9.7269043e-13
9.405658e-13
9.0916835e-13
8.7946316e-13
8.5152261e-13
8.2517884e-13
8.0031934e-13
7.7681943e-13
7.5456859e-13
7.3346624e-13
7.134203e-13
6.9434694e-13
6.7617021e-13
6.5881953e-13
6.4222787e-13
6.2633179e-13
6.1106719e-13
5.9637319e-13
5.8217088e-13
5.6840601e-13
5.5489864e-13
5.4175348e-13
5.2795232e-13
5.1603016e-13
4.9838541e-13
6.5465187e-09
5.5192544e-09
5.1877161e-09
5.0237392e-09
4.9206076e-09
4.848519e-09
4.7953085e-09
4.7546543e-09
4.7228096e-09
4.697374e-09
4.6767269e-09
4.6597304e-09
4.6455579e-09
4.63359e-09
4.6233419e-09
4.6144283e-09
4.606473e-09
4.5992337e-09
4.5919336e-09
4.5852974e-09
4.5727611e-09
4.5727856e-09
4.4884456e-09
3.9112406e-09
4.5246929e-11
1.0520987e-11
1.0979921e-11
5.4660299e-12
7.8044198e-12
3.96444e-12
6.5268422e-12
3.2565412e-12
5.7769577e-12
5.3582715e-12
5.2541809e-12
4.9855177e-12
4.8371577e-12
4.6543851e-12
4.509553e-12
4.3674991e-12
4.2398506e-12
4.1201846e-12
4.0089215e-12
3.9046081e-12
3.8065008e-12
3.7138879e-12
3.6261816e-12
3.5428776e-12
3.4635421e-12
3.387802e-12
3.3153287e-12
3.2458326e-12
3.1790594e-12
3.1147829e-12
3.0528036e-12
2.9929448e-12
2.9350457e-12
2.8789612e-12
2.8245612e-12
2.7717276e-12
2.7203523e-12
2.6703384e-12
2.6215984e-12
2.5740502e-12
2.5276179e-12
2.4822327e-12
2.4378309e-12
2.3943535e-12
2.3517451e-12
2.3099562e-12
2.2689408e-12
2.2286538e-12
2.1890533e-12
2.1501008e-12
2.1117599e-12
2.0739966e-12
2.0367783e-12
2.0000745e-12
1.9638589e-12
1.9281042e-12
1.8927834e-12
1.8578721e-12
1.823347e-12
1.7891858e-12
1.755367e-12
1.7218698e-12
1.6886754e-12
1.6557663e-12
1.6231234e-12
1.5907287e-12
1.5585655e-12
1.526617e-12
1.4948674e-12
1.4633008e-12
1.4319019e-12
1.4006576e-12
1.3695532e-12
1.3385736e-12
1.3077051e-12
1.2769339e-12
1.2462466e-12
1.2156295e-12
1.1850695e-12
1.1545549e-12
1.1240726e-12
1.0936089e-12
1.0631511e-12
1.0326863e-12
1.002201e-12
9.7168252e-13
9.4111864e-13
9.1048544e-13
8.798032e-13
8.4984008e-13
8.2151492e-13
7.9489635e-13
7.6982196e-13
7.4618152e-13
7.2385375e-13
7.0273109e-13
6.8271571e-13
6.6371813e-13
6.4565701e-13
6.2845866e-13
6.1205475e-13
5.963805e-13
5.8137472e-13
5.669758e-13
5.5312535e-13
5.3974821e-13
5.2679251e-13
5.1408886e-13
5.0173436e-13
4.8877643e-13
4.7758574e-13
4.6105555e-13
6.5490606e-09
5.4826451e-09
5.1389274e-09
4.968957e-09
4.8620741e-09
4.7873761e-09
4.7322468e-09
4.6901302e-09
4.6571417e-09
4.6307929e-09
4.6094047e-09
4.5917987e-09
4.5771193e-09
4.5647261e-09
4.5541189e-09
4.5449015e-09
4.5366905e-09
4.5292413e-09
4.5217771e-09
4.5150467e-09
4.5024793e-09
4.5028971e-09
4.4185501e-09
3.8737175e-09
4.7725782e-11
1.0350144e-11
1.0318616e-11
5.2825535e-12
7.3070349e-12
3.783374e-12
6.1155279e-12
3.0941043e-12
5.422839e-12
5.0426044e-12
4.9423585e-12
4.6954056e-12
4.5572929e-12
4.3885239e-12
4.2541598e-12
4.1224879e-12
4.0039369e-12
3.8927102e-12
3.7891591e-12
3.6919582e-12
3.6004244e-12
3.5139088e-12
3.4318758e-12
3.3538665e-12
3.2794861e-12
3.2083949e-12
3.1402938e-12
3.0749189e-12
3.0120389e-12
2.9514474e-12
2.8929627e-12
2.8364239e-12
2.7816846e-12
2.7286123e-12
2.6770886e-12
2.6270058e-12
2.5782652e-12
2.5307786e-12
2.4844664e-12
2.4392534e-12
2.3950706e-12
2.3518551e-12
2.309549e-12
2.2680984e-12
2.2274528e-12
2.187567e-12
2.148399e-12
2.1099078e-12
2.0720549e-12
2.0348052e-12
1.9981256e-12
1.9619849e-12
1.9263535e-12
1.8912036e-12
1.8565113e-12
1.8222518e-12
1.7884003e-12
1.7549346e-12
1.7218335e-12
1.6890766e-12
1.6566445e-12
1.6245182e-12
1.5926807e-12
1.561116e-12
1.5298069e-12
1.4987369e-12
1.4678908e-12
1.4372537e-12
1.4068111e-12
1.3765487e-12
1.3464527e-12
1.3165114e-12
1.2867116e-12
1.2570397e-12
1.2274834e-12
1.1980307e-12
1.1686693e-12
1.1393873e-12
1.110173e-12
1.0810164e-12
1.0519057e-12
1.0228291e-12
9.9377562e-13
9.6473399e-13
9.3569255e-13
9.0664062e-13
8.7756781e-13
8.4845299e-13
8.1931685e-13
7.9088679e-13
7.6403247e-13
7.388186e-13
7.1508889e-13
6.9273597e-13
6.7164252e-13
6.5170445e-13
6.3282719e-13
6.1492431e-13
5.9791733e-13
5.8173522e-13
5.663122e-13
5.5158608e-13
5.3749817e-13
5.2398965e-13
5.1100478e-13
4.9847242e-13
4.8634324e-13
4.7445865e-13
4.6290818e-13
4.5080536e-13
4.4035542e-13
4.2494865e-13
6.5529124e-09
5.441139e-09
5.0833971e-09
4.9065521e-09
4.7953774e-09
4.7176993e-09
4.6603814e-09
4.6165983e-09
4.582307e-09
4.554919e-09
4.5326879e-09
4.5143887e-09
4.4991327e-09
4.4862557e-09
4.4752399e-09
4.4656766e-09
4.4571738e-09
4.449484e-09
4.44183e-09
4.4349875e-09
4.4223733e-09
4.4232201e-09
4.3388119e-09
3.8306378e-09
5.0675701e-11
1.0182869e-11
9.636027e-12
5.091463e-12
6.7897891e-12
3.5941427e-12
5.6860271e-12
2.9248562e-12
5.0519671e-12
4.7110857e-12
4.6150828e-12
4.3905243e-12
4.2631761e-12
4.1089509e-12
3.9855488e-12
3.8647273e-12
3.7557172e-12
3.6533503e-12
3.557911e-12
3.4682019e-12
3.3836018e-12
3.303526e-12
3.227493e-12
3.1550905e-12
3.0859639e-12
3.0198079e-12
2.9563539e-12
2.8953647e-12
2.8366322e-12
2.7799711e-12