/*--------------------------------*- C++ -*----------------------------------*\
| =========                 |                                                 |
| \\      /  F ield         | OpenFOAM: The Open Source CFD Toolbox           |
|  \\    /   O peration     | Version:  2206                                  |
|   \\  /    A nd           | Website:  www.openfoam.com                      |
|    \\/     M anipulation  |                                                 |
\*---------------------------------------------------------------------------*/
FoamFile
{
    version     2.0;
    format      ascii;
    arch        "LSB;label=32;scalar=64";
    class       volScalarField;
    location    "1400";
    object      p;
}
// * * * * * * * * * * * * * * * * * * * * * * * * * * * * * * * * * * * * * //

dimensions      [0 2 -2 0 0 0 0];

internalField   nonuniform List<scalar> 
13056
(
0.011728715
0.011835164
0.01205645
0.012335799
0.012676587
0.013078028
0.013536893
0.014052352
0.014625984
0.015261086
0.01596266
0.016737897
0.017596693
0.018553172
0.019626024
0.020845198
0.022245424
0.023906432
0.025876945
0.02846795
0.031544658
0.036928023
0.041905655
0.082888444
0.052101407
0.0015192742
0.00079273898
0.001881817
0.0023983972
0.0028204264
0.0030858614
0.0032765847
0.0034158963
0.0035133003
0.0035815028
0.0036301541
0.0036648731
0.0036892043
0.0037055965
0.0037160668
0.0037219816
0.0037242311
0.0037235501
0.00372056
0.0037156645
0.0037091386
0.0037012679
0.0036922493
0.0036822608
0.0036714244
0.0036598179
0.0036475326
0.0036346358
0.0036211865
0.0036072443
0.0035928333
0.0035779681
0.0035626771
0.0035469804
0.0035308913
0.0035144237
0.0034975949
0.0034803982
0.003462824
0.0034448777
0.003426557
0.0034078598
0.0033887802
0.0033693165
0.0033494675
0.0033292082
0.0033085197
0.003287395
0.0032658201
0.0032437784
0.0032212574
0.0031982355
0.0031747054
0.0031506426
0.0031260006
0.0031007644
0.0030749092
0.0030484045
0.0030212217
0.0029933284
0.0029646932
0.0029352854
0.0029050512
0.0028739389
0.0028419087
0.0028089104
0.0027748885
0.0027397893
0.0027035463
0.0026661045
0.0026273873
0.0025872948
0.0025457526
0.0025026678
0.0024579386
0.0024114599
0.0023631098
0.0023127713
0.0022603
0.0022055242
0.0021482892
0.0020884103
0.002025695
0.0019599254
0.0018908934
0.0018183397
0.0017419882
0.0016619472
0.001578746
0.0014942263
0.0014106672
0.0013287083
0.0012482348
0.0011692648
0.0010918351
0.0010159933
0.00094181522
0.00086941963
0.00079895586
0.00073060175
0.00066460099
0.00060128692
0.00054107251
0.00048459195
0.00043248326
0.00038630968
0.0003464648
0.00031898003
0.00029672523
0.00043882987
-0.00039254405
0.011728715
0.011835164
0.01205645
0.012335799
0.012676587
0.013078028
0.013536894
0.014052352
0.014625984
0.015261086
0.01596266
0.016737898
0.017596694
0.018553172
0.019626025
0.0208452
0.022245425
0.023906435
0.025876949
0.028467955
0.031544665
0.036928037
0.041905701
0.082883212
0.052113192
0.0015268957
0.00079473487
0.001882682
0.0023989252
0.0028207994
0.0030861438
0.0032768088
0.0034160797
0.0035134539
0.0035816339
0.0036302675
0.0036649725
0.0036892922
0.0037056749
0.0037161372
0.0037220452
0.0037242889
0.0037236028
0.0037206084
0.003715709
0.0037091796
0.0037013059
0.0036922846
0.0036822936
0.003671455
0.0036598466
0.0036475594
0.003634661
0.0036212102
0.0036072666
0.0035928543
0.003577988
0.0035626958
0.0035469982
0.0035309081
0.0035144396
0.00349761
0.0034804125
0.0034628376
0.0034448906
0.0034265693
0.0034078715
0.0033887913
0.0033693272
0.0033494777
0.0033292179
0.003308529
0.0032874038
0.0032658285
0.0032437864
0.0032212651
0.0031982428
0.0031747125
0.0031506493
0.003126007
0.0031007705
0.0030749151
0.0030484101
0.003021227
0.0029933335
0.0029646981
0.0029352901
0.0029050556
0.0028739431
0.0028419128
0.0028089143
0.0027748923
0.0027397929
0.0027035497
0.0026661078
0.0026273904
0.0025872977
0.0025457554
0.0025026705
0.0024579412
0.0024114623
0.0023631121
0.0023127735
0.002260302
0.0022055262
0.0021482911
0.0020884121
0.0020256967
0.0019599269
0.0018908949
0.0018183411
0.0017419895
0.0016619485
0.0015787472
0.0014942274
0.0014106683
0.0013287093
0.0012482357
0.0011692656
0.0010918359
0.001015994
0.00094181598
0.00086942035
0.00079895656
0.00073060242
0.00066460163
0.00060128754
0.00054107311
0.00048459253
0.00043248382
0.00038631023
0.00034646534
0.00031898059
0.00029672582
0.00043883048
-0.00039254366
0.011728715
0.011835164
0.01205645
0.012335799
0.012676587
0.013078028
0.013536894
0.014052353
0.014625984
0.015261086
0.015962661
0.016737898
0.017596694
0.018553173
0.019626026
0.020845201
0.022245427
0.023906437
0.025876952
0.028467961
0.031544673
0.036928052
0.04190574
0.08287834
0.052129264
0.0015339803
0.00079693279
0.001883693
0.0023995423
0.0028212354
0.0030864738
0.0032770708
0.0034162941
0.0035136335
0.0035817871
0.0036304002
0.0036650887
0.003689395
0.0037057665
0.0037162195
0.0037221196
0.0037243564
0.0037236645
0.0037206649
0.003715761
0.0037092276
0.0037013503
0.0036923259
0.0036823321
0.0036714909
0.0036598801
0.0036475908
0.0036346905
0.0036212379
0.0036072926
0.0035928789
0.0035780112
0.0035627177
0.0035470189
0.0035309277
0.0035144582
0.0034976277
0.0034804293
0.0034628536
0.0034449058
0.0034265837
0.0034078853
0.0033888044
0.0033693396
0.0033494895
0.0033292292
0.0033085398
0.0032874141
0.0032658383
0.0032437958
0.0032212741
0.0031982514
0.0031747207
0.0031506571
0.0031260145
0.0031007777
0.0030749219
0.0030484166
0.0030212333
0.0029933395
0.0029647038
0.0029352956
0.0029050609
0.0028739481
0.0028419176
0.0028089188
0.0027748966
0.002739797
0.0027035536
0.0026661115
0.002627394
0.0025873012
0.0025457587
0.0025026736
0.0024579442
0.0024114651
0.0023631147
0.0023127761
0.0022603045
0.0022055285
0.0021482933
0.0020884142
0.0020256987
0.0019599288
0.0018908967
0.0018183427
0.001741991
0.0016619499
0.0015787486
0.0014942287
0.0014106695
0.0013287104
0.0012482368
0.0011692667
0.0010918369
0.001015995
0.00094181686
0.0008694212
0.00079895737
0.0007306032
0.00066460238
0.00060128826
0.00054107381
0.00048459321
0.00043248448
0.00038631088
0.00034646598
0.00031898123
0.00029672646
0.00043883118
-0.00039254322
0.011728715
0.011835164
0.01205645
0.012335799
0.012676587
0.013078028
0.013536894
0.014052353
0.014625985
0.015261087
0.015962661
0.016737899
0.017596695
0.018553174
0.019626027
0.020845202
0.022245429
0.02390644
0.025876956
0.028467967
0.031544681
0.036928066
0.04190578
0.08287361
0.052147066
0.0015390072
0.00079897533
0.0018846728
0.0024001405
0.002821658
0.0030867937
0.0032773248
0.0034165018
0.0035138075
0.0035819356
0.0036305288
0.0036652013
0.0036894946
0.0037058553
0.0037162993
0.0037221917
0.0037244219
0.0037237243
0.0037207197
0.0037158114
0.0037092742
0.0037013934
0.0036923659
0.0036823693
0.0036715256
0.0036599126
0.0036476213
0.003634719
0.0036212647
0.0036073179
0.0035929027
0.0035780337
0.003562739
0.003547039
0.0035309468
0.0035144763
0.0034976448
0.0034804455
0.003462869
0.0034449204
0.0034265977
0.0034078986
0.0033888171
0.0033693517
0.0033495011
0.0033292402
0.0033085503
0.0032874241
0.0032658479
0.0032438049
0.0032212828
0.0031982597
0.0031747286
0.0031506648
0.0031260218
0.0031007846
0.0030749286
0.003048423
0.0030212394
0.0029933453
0.0029647094
0.0029353009
0.0029050659
0.002873953
0.0028419222
0.0028089232
0.0027749008
0.0027398011
0.0027035575
0.0026661152
0.0026273975
0.0025873045
0.0025457619
0.0025026766
0.002457947
0.0024114679
0.0023631173
0.0023127785
0.0022603068
0.0022055307
0.0021482954
0.0020884162
0.0020257005
0.0019599306
0.0018908983
0.0018183443
0.0017419925
0.0016619513
0.0015787499
0.0014942299
0.0014106706
0.0013287115
0.0012482379
0.0011692677
0.0010918378
0.0010159959
0.00094181772
0.00086942202
0.00079895816
0.00073060396
0.00066460311
0.00060128896
0.00054107449
0.00048459387
0.00043248512
0.0003863115
0.00034646659
0.00031898185
0.00029672707
0.00043883187
-0.00039254281
0.011728715
0.011835164
0.01205645
0.012335799
0.012676588
0.013078028
0.013536894
0.014052353
0.014625985
0.015261087
0.015962661
0.016737899
0.017596696
0.018553175
0.019626028
0.020845204
0.022245431
0.023906443
0.02587696
0.028467974
0.031544689
0.036928081
0.041905825
0.082868482
0.052165967
0.0015447938
0.00080106747
0.0018856822
0.0024007569
0.0028220934
0.0030871233
0.0032775864
0.0034167159
0.0035139868
0.0035820886
0.0036306613
0.0036653174
0.0036895972
0.0037059468
0.0037163815
0.0037222659
0.0037244894
0.0037237859
0.0037207761
0.0037158633
0.0037093221
0.0037014378
0.0036924071
0.0036824077
0.0036715614
0.003659946
0.0036476526
0.0036347484
0.0036212924
0.0036073439
0.0035929272
0.0035780568
0.0035627609
0.0035470597
0.0035309664
0.0035144949
0.0034976624
0.0034804623
0.0034628849
0.0034449356
0.0034266121
0.0034079123
0.0033888301
0.0033693642
0.0033495129
0.0033292515
0.0033085611
0.0032874344
0.0032658577
0.0032438143
0.0032212918
0.0031982683
0.0031747368
0.0031506726
0.0031260293
0.0031007918
0.0030749354
0.0030484295
0.0030212456
0.0029933513
0.0029647151
0.0029353063
0.0029050712
0.002873958
0.002841927
0.0028089278
0.0027749052
0.0027398052
0.0027035614
0.002666119
0.0026274012
0.0025873079
0.0025457651
0.0025026797
0.00245795
0.0024114707
0.00236312
0.0023127811
0.0022603092
0.002205533
0.0021482976
0.0020884182
0.0020257025
0.0019599324
0.0018909001
0.0018183459
0.0017419941
0.0016619528
0.0015787512
0.0014942312
0.0014106718
0.0013287127
0.0012482389
0.0011692687
0.0010918388
0.0010159968
0.00094181861
0.00086942287
0.00079895897
0.00073060473
0.00066460386
0.00060128968
0.00054107518
0.00048459454
0.00043248578
0.00038631215
0.00034646723
0.0003189825
0.00029672769
0.00043883258
-0.0003925424
0.011728715
0.011835164
0.01205645
0.012335799
0.012676588
0.013078028
0.013536894
0.014052353
0.014625985
0.015261087
0.015962662
0.0167379
0.017596696
0.018553176
0.01962603
0.020845206
0.022245434
0.023906446
0.025876964
0.028467981
0.031544699
0.036928098
0.041905876
0.082862775
0.052185662
0.0015521054
0.00080330151
0.001886757
0.0024014134
0.0028225571
0.0030874744
0.0032778651
0.0034169439
0.0035141777
0.0035822515
0.0036308023
0.0036654409
0.0036897065
0.0037060443
0.003716469
0.003722345
0.0037245612
0.0037238514
0.0037208362
0.0037159186
0.0037093732
0.0037014851
0.003692451
0.0036824485
0.0036715996
0.0036599817
0.003647686
0.0036347798
0.0036213218
0.0036073717
0.0035929534
0.0035780815
0.0035627842
0.0035470818
0.0035309873
0.0035145147
0.0034976812
0.0034804801
0.0034629018
0.0034449517
0.0034266274
0.0034079268
0.003388844
0.0033693774
0.0033495255
0.0033292636
0.0033085725
0.0032874454
0.0032658682
0.0032438243
0.0032213014
0.0031982774
0.0031747455
0.0031506809
0.0031260372
0.0031007994
0.0030749427
0.0030484365
0.0030212523
0.0029933577
0.0029647212
0.0029353122
0.0029050767
0.0028739633
0.0028419321
0.0028089326
0.0027749098
0.0027398096
0.0027035657
0.002666123
0.002627405
0.0025873116
0.0025457686
0.002502683
0.0024579532
0.0024114737
0.0023631229
0.0023127838
0.0022603118
0.0022055355
0.0021482999
0.0020884204
0.0020257046
0.0019599344
0.0018909019
0.0018183477
0.0017419957
0.0016619543
0.0015787527
0.0014942325
0.0014106731
0.0013287139
0.0012482401
0.0011692698
0.0010918398
0.0010159978
0.00094181955
0.00086942377
0.00079895984
0.00073060556
0.00066460466
0.00060129045
0.00054107593
0.00048459526
0.00043248648
0.00038631283
0.0003464679
0.00031898318
0.00029672835
0.00043883333
-0.00039254196
0.011728715
0.011835164
0.01205645
0.012335799
0.012676588
0.013078029
0.013536894
0.014052353
0.014625985
0.015261088
0.015962662
0.016737901
0.017596697
0.018553177
0.019626032
0.020845208
0.022245437
0.023906451
0.02587697
0.02846799
0.031544712
0.036928119
0.041905935
0.082856392
0.052206405
0.0015601221
0.00080570681
0.0018879134
0.0024021198
0.0028230561
0.0030878521
0.0032781649
0.0034171892
0.0035143831
0.0035824269
0.0036309541
0.0036655739
0.0036898241
0.0037061492
0.0037165632
0.0037224301
0.0037246385
0.003723922
0.0037209009
0.0037159781
0.0037094281
0.003701536
0.0036924982
0.0036824925
0.0036716406
0.00366002
0.0036477219
0.0036348135
0.0036213535
0.0036074015
0.0035929815
0.003578108
0.0035628092
0.0035471055
0.0035310097
0.003514536
0.0034977014
0.0034804993
0.0034629201
0.003444969
0.0034266439
0.0034079425
0.003388859
0.0033693916
0.0033495391
0.0033292765
0.0033085849
0.0032874572
0.0032658795
0.0032438351
0.0032213116
0.0031982873
0.0031747549
0.0031506899
0.0031260458
0.0031008076
0.0030749505
0.003048444
0.0030212594
0.0029933645
0.0029647277
0.0029353184
0.0029050827
0.002873969
0.0028419375
0.0028089379
0.0027749148
0.0027398144
0.0027035702
0.0026661274
0.0026274091
0.0025873155
0.0025457724
0.0025026866
0.0024579566
0.0024114769
0.002363126
0.0023127867
0.0022603146
0.0022055381
0.0021483024
0.0020884228
0.0020257068
0.0019599365
0.0018909039
0.0018183496
0.0017419975
0.001661956
0.0015787542
0.001494234
0.0014106745
0.0013287152
0.0012482413
0.001169271
0.001091841
0.0010159989
0.00094182057
0.00086942474
0.00079896077
0.00073060646
0.00066460552
0.00060129128
0.00054107672
0.00048459604
0.00043248723
0.00038631357
0.00034646863
0.00031898392
0.00029672906
0.00043883414
-0.00039254148
0.011728715
0.011835164
0.01205645
0.012335799
0.012676588
0.013078029
0.013536895
0.014052354
0.014625986
0.015261088
0.015962663
0.016737902
0.017596699
0.018553179
0.019626034
0.020845211
0.022245441
0.023906456
0.025876977
0.028468002
0.031544727
0.036928146
0.041906003
0.082849191
0.052228466
0.0015687118
0.00080831322
0.0018891667
0.0024028856
0.0028235971
0.0030882616
0.00327849
0.0034174551
0.0035146059
0.0035826169
0.0036311187
0.003665718
0.0036899516
0.0037062628
0.0037166653
0.0037225224
0.0037247223
0.0037239985
0.003720971
0.0037160426
0.0037094876
0.0037015911
0.0036925494
0.0036825402
0.003671685
0.0036600616
0.0036477609
0.00363485
0.0036213879
0.0036074338
0.003593012
0.0035781368
0.0035628364
0.0035471312
0.0035310341
0.003514559
0.0034977233
0.0034805201
0.0034629398
0.0034449878
0.0034266618
0.0034079596
0.0033888752
0.0033694071
0.0033495539
0.0033292906
0.0033085983
0.00328747
0.0032658917
0.0032438468
0.0032213228
0.0031982979
0.0031747651
0.0031506996
0.0031260551
0.0031008165
0.003074959
0.0030484521
0.0030212672
0.002993372
0.0029647348
0.0029353252
0.0029050892
0.0028739752
0.0028419434
0.0028089435
0.0027749202
0.0027398195
0.0027035751
0.0026661321
0.0026274136
0.0025873198
0.0025457764
0.0025026905
0.0024579603
0.0024114804
0.0023631293
0.0023127899
0.0022603176
0.0022055409
0.0021483051
0.0020884253
0.0020257092
0.0019599387
0.0018909061
0.0018183516
0.0017419994
0.0016619577
0.0015787559
0.0014942356
0.001410676
0.0013287166
0.0012482427
0.0011692722
0.0010918422
0.001016
0.00094182167
0.0008694258
0.00079896177
0.00073060742
0.00066460645
0.00060129218
0.00054107759
0.00048459688
0.00043248805
0.00038631437
0.00034646941
0.00031898472
0.00029672983
0.00043883502
-0.00039254096
0.011728715
0.011835164
0.01205645
0.0123358
0.012676588
0.013078029
0.013536895
0.014052354
0.014625987
0.015261089
0.015962664
0.016737903
0.0175967
0.018553181
0.019626036
0.020845215
0.022245445
0.023906463
0.025876986
0.028468016
0.031544746
0.036928179
0.041906084
0.08284099
0.052252073
0.0015780356
0.00081115871
0.0018905354
0.0024037221
0.0028241879
0.0030887088
0.003278845
0.0034177455
0.0035148491
0.0035828245
0.0036312984
0.0036658754
0.0036900908
0.003706387
0.0037167768
0.0037226231
0.0037248139
0.003724082
0.0037210476
0.0037161131
0.0037095527
0.0037016513
0.0036926053
0.0036825922
0.0036717336
0.003660107
0.0036478034
0.0036348899
0.0036214254
0.0036074691
0.0035930453
0.0035781682
0.0035628661
0.0035471593
0.0035310607
0.0035145843
0.0034977472
0.0034805428
0.0034629614
0.0034450083
0.0034266813
0.0034079781
0.0033888929
0.003369424
0.0033495699
0.0033293059
0.003308613
0.0032874839
0.003265905
0.0032438595
0.003221335
0.0031983095
0.0031747762
0.0031507103
0.0031260653
0.0031008262
0.0030749683
0.003048461
0.0030212757
0.0029933801
0.0029647426
0.0029353326
0.0029050963
0.002873982
0.0028419499
0.0028089497
0.0027749261
0.0027398252
0.0027035805
0.0026661372
0.0026274185
0.0025873245
0.0025457809
0.0025026947
0.0024579643
0.0024114843
0.0023631329
0.0023127933
0.0022603209
0.0022055441
0.002148308
0.0020884281
0.0020257119
0.0019599412
0.0018909084
0.0018183538
0.0017420014
0.0016619597
0.0015787577
0.0014942373
0.0014106776
0.0013287182
0.0012482441
0.0011692736
0.0010918435
0.0010160013
0.00094182287
0.00086942695
0.00079896288
0.00073060848
0.00066460746
0.00060129316
0.00054107854
0.0004845978
0.00043248894
0.00038631525
0.00034647027
0.00031898559
0.00029673067
0.00043883598
-0.0003925404
0.011728715
0.011835165
0.01205645
0.0123358
0.012676588
0.013078029
0.013536895
0.014052355
0.014625987
0.01526109
0.015962665
0.016737904
0.017596702
0.018553183
0.01962604
0.020845219
0.022245451
0.023906471
0.025876997
0.028468033
0.031544769
0.036928221
0.04190618
0.082831573
0.052277438
0.0015882548
0.00081428587
0.0018920398
0.0024046418
0.0028248375
0.0030892005
0.0032792353
0.0034180648
0.0035151165
0.0035830527
0.003631496
0.0036660485
0.0036902438
0.0037065234
0.0037168993
0.0037227338
0.0037249145
0.0037241739
0.0037211317
0.0037161905
0.0037096242
0.0037017175
0.0036926668
0.0036826494
0.003671787
0.0036601569
0.0036478501
0.0036349338
0.0036214666
0.003607508
0.0035930819
0.0035782027
0.0035628988
0.0035471902
0.0035310899
0.003514612
0.0034977735
0.0034805677
0.0034629851
0.0034450309
0.0034267028
0.0034079986
0.0033889124
0.0033694425
0.0033495876
0.0033293228
0.0033086291
0.0032874993
0.0032659197
0.0032438735
0.0032213483
0.0031983223
0.0031747884
0.0031507219
0.0031260764
0.0031008369
0.0030749785
0.0030484707
0.003021285
0.002993389
0.0029647511
0.0029353408
0.0029051041
0.0028739894
0.002841957
0.0028089565
0.0027749326
0.0027398314
0.0027035864
0.0026661428
0.0026274239
0.0025873296
0.0025457858
0.0025026994
0.0024579687
0.0024114885
0.0023631369
0.0023127971
0.0022603245
0.0022055475
0.0021483113
0.0020884312
0.0020257148
0.001959944
0.001890911
0.0018183562
0.0017420037
0.0016619619
0.0015787598
0.0014942392
0.0014106794
0.0013287199
0.0012482457
0.0011692752
0.0010918449
0.0010160027
0.0009418242
0.00086942821
0.00079896409
0.00073060964
0.00066460858
0.00060129423
0.00054107958
0.0004845988
0.00043248992
0.00038631621
0.00034647122
0.00031898655
0.0002967316
0.00043883703
-0.00039253977
0.011728715
0.011835165
0.012056451
0.0123358
0.012676589
0.01307803
0.013536896
0.014052355
0.014625988
0.015261091
0.015962667
0.016737906
0.017596705
0.018553187
0.019626044
0.020845225
0.022245459
0.023906481
0.02587701
0.028468055
0.031544798
0.036928273
0.041906292
0.082820681
0.052304764
0.0015995179
0.00081774115
0.0018937023
0.0024056585
0.0028255555
0.0030897441
0.0032796667
0.0034184178
0.0035154121
0.0035833049
0.0036317144
0.0036662397
0.003690413
0.0037066743
0.0037170348
0.0037228563
0.0037250257
0.0037242754
0.0037212248
0.0037162761
0.0037097032
0.0037017907
0.0036927347
0.0036827127
0.003671846
0.0036602121
0.0036479018
0.0036349823
0.0036215122
0.0036075509
0.0035931223
0.0035782409
0.0035629348
0.0035472243
0.0035311222
0.0035146426
0.0034978026
0.0034805953
0.0034630113
0.0034450558
0.0034267265
0.0034080212
0.0033889339
0.003369463
0.0033496072
0.0033293414
0.0033086468
0.0032875163
0.0032659359
0.003243889
0.0032213631
0.0031983365
0.003174802
0.0031507349
0.0031260888
0.0031008487
0.0030749898
0.0030484815
0.0030212953
0.0029933989
0.0029647605
0.0029353498
0.0029051127
0.0028739976
0.0028419649
0.002808964
0.0027749398
0.0027398382
0.0027035929
0.0026661491
0.0026274298
0.0025873353
0.0025457912
0.0025027045
0.0024579736
0.0024114931
0.0023631414
0.0023128013
0.0022603285
0.0022055513
0.0021483149
0.0020884346
0.002025718
0.001959947
0.0018909139
0.0018183589
0.0017420063
0.0016619642
0.001578762
0.0014942413
0.0014106814
0.0013287218
0.0012482475
0.0011692768
0.0010918466
0.0010160042
0.00094182566
0.00086942961
0.00079896543
0.00073061093
0.00066460982
0.00060129542
0.00054108073
0.00048459992
0.000432491
0.00038631727
0.00034647226
0.00031898761
0.00029673262
0.0004388382
-0.00039253909
0.011728715
0.011835165
0.012056451
0.0123358
0.012676589
0.01307803
0.013536897
0.014052356
0.014625989
0.015261093
0.015962669
0.016737909
0.017596708
0.01855319
0.019626049
0.020845231
0.022245467
0.023906494
0.025877026
0.028468081
0.031544832
0.036928336
0.041906424
0.082808008
0.052334236
0.0016119857
0.00082157572
0.0018955478
0.0024067873
0.0028263528
0.0030903475
0.0032801457
0.0034188096
0.0035157403
0.003583585
0.0036319568
0.0036664521
0.0036906008
0.0037068418
0.0037171852
0.0037229922
0.0037251491
0.0037243881
0.0037213281
0.0037163711
0.0037097909
0.0037018719
0.0036928102
0.0036827829
0.0036719115
0.0036602733
0.0036479592
0.0036350361
0.0036215628
0.0036075985
0.0035931672
0.0035782833
0.0035629749
0.0035472622
0.0035311581
0.0035146766
0.0034978349
0.003480626
0.0034630405
0.0034450835
0.0034267528
0.0034080462
0.0033889578
0.0033694858
0.0033496289
0.0033293621
0.0033086666
0.0032875351
0.0032659539
0.0032439062
0.0032213796
0.0031983522
0.003174817
0.0031507492
0.0031261025
0.0031008618
0.0030750023
0.0030484935
0.0030213068
0.0029934098
0.002964771
0.0029353598
0.0029051222
0.0028740068
0.0028419736
0.0028089723
0.0027749477
0.0027398458
0.0027036002
0.002666156
0.0026274364
0.0025873416
0.0025457972
0.0025027102
0.002457979
0.0024114983
0.0023631463
0.002312806
0.0022603329
0.0022055555
0.0021483188
0.0020884383
0.0020257215
0.0019599504
0.001890917
0.0018183619
0.0017420091
0.0016619669
0.0015787645
0.0014942437
0.0014106836
0.0013287238
0.0012482495
0.0011692787
0.0010918483
0.0010160059
0.00094182728
0.00086943116
0.00079896691
0.00073061235
0.00066461119
0.00060129675
0.00054108201
0.00048460116
0.00043249221
0.00038631845
0.00034647342
0.00031898878
0.00029673375
0.00043883949
-0.00039253832
0.011728715
0.011835165
0.012056451
0.012335801
0.01267659
0.013078031
0.013536897
0.014052357
0.01462599
0.015261094
0.015962671
0.016737911
0.017596711
0.018553195
0.019626055
0.020845239
0.022245478
0.023906508
0.025877046
0.028468112
0.031544874
0.036928413
0.04190658
0.082793182
0.052366019
0.0016258396
0.00082584633
0.0018976035
0.0024080452
0.0028272411
0.00309102
0.0032806794
0.0034192463
0.0035161059
0.003583897
0.0036322269
0.0036666887
0.00369081
0.0037070284
0.0037173528
0.0037231436
0.0037252867
0.0037245136
0.0037214432
0.003716477
0.0037098887
0.0037019624
0.0036928942
0.0036828611
0.0036719845
0.0036603416
0.0036480231
0.0036350961
0.0036216192
0.0036076516
0.0035932173
0.0035783305
0.0035630195
0.0035473044
0.0035311981
0.0035147145
0.0034978708
0.0034806601
0.0034630729
0.0034451143
0.0034267822
0.0034080742
0.0033889844
0.0033695111
0.0033496531
0.0033293852
0.0033086886
0.0032875561
0.003265974
0.0032439254
0.0032213979
0.0031983696
0.0031748337
0.0031507652
0.0031261178
0.0031008764
0.0030750163
0.0030485069
0.0030213195
0.002993422
0.0029647826
0.0029353709
0.0029051329
0.002874017
0.0028419833
0.0028089816
0.0027749566
0.0027398543
0.0027036083
0.0026661637
0.0026274438
0.0025873486
0.0025458038
0.0025027166
0.0024579851
0.0024115041
0.0023631518
0.0023128112
0.0022603378
0.0022055601
0.0021483233
0.0020884425
0.0020257255
0.0019599541
0.0018909206
0.0018183653
0.0017420122
0.0016619698
0.0015787673
0.0014942463
0.0014106861
0.0013287262
0.0012482517
0.0011692808
0.0010918503
0.0010160078
0.00094182909
0.00086943289
0.00079896857
0.00073061394
0.00066461272
0.00060129822
0.00054108343
0.00048460254
0.00043249355
0.00038631977
0.00034647472
0.00031899009
0.00029673502
0.00043884094
-0.00039253747
0.011728715
0.011835165
0.012056451
0.012335801
0.01267659
0.013078032
0.013536898
0.014052358
0.014625992
0.015261096
0.015962673
0.016737915
0.017596715
0.018553201
0.019626062
0.020845249
0.022245491
0.023906526
0.025877069
0.028468149
0.031544923
0.036928504
0.041906762
0.082775758
0.052400235
0.0016412843
0.0008306162
0.0018999001
0.0024094511
0.0028282339
0.0030917715
0.0032812758
0.0034197342
0.0035165145
0.0035842456
0.0036325288
0.0036669531
0.0036910438
0.0037072369
0.00371754
0.0037233128
0.0037254404
0.0037246539
0.0037215717
0.0037165953
0.0037099979
0.0037020636
0.0036929881
0.0036829485
0.0036720661
0.0036604178
0.0036480946
0.0036351632
0.0036216822
0.0036077109
0.0035932732
0.0035783833
0.0035630694
0.0035473516
0.0035312428
0.0035147569
0.003497911
0.0034806983
0.0034631091
0.0034451488
0.003426815
0.0034081054
0.0033890141
0.0033695395
0.0033496801
0.003329411
0.0033087132
0.0032875796
0.0032659964
0.0032439468
0.0032214183
0.0031983892
0.0031748524
0.003150783
0.0031261348
0.0031008927
0.0030750319
0.0030485218
0.0030213338
0.0029934356
0.0029647957
0.0029353834
0.0029051448
0.0028740283
0.0028419942
0.002808992
0.0027749665
0.0027398638
0.0027036173
0.0026661723
0.002627452
0.0025873564
0.0025458113
0.0025027237
0.0024579919
0.0024115105
0.0023631579
0.002312817
0.0022603434
0.0022055654
0.0021483282
0.0020884472
0.0020257299
0.0019599583
0.0018909245
0.001818369
0.0017420157
0.0016619731
0.0015787703
0.0014942492
0.0014106888
0.0013287288
0.0012482542
0.0011692831
0.0010918526
0.0010160099
0.00094183111
0.00086943482
0.00079897042
0.00073061572
0.00066461443
0.00060129987
0.00054108502
0.00048460408
0.00043249505
0.00038632124
0.00034647616
0.00031899156
0.00029673644
0.00043884255
-0.00039253652
0.011728715
0.011835166
0.012056452
0.012335802
0.012676591
0.013078032
0.013536899
0.01405236
0.014625994
0.015261099
0.015962676
0.016737919
0.01759672
0.018553207
0.019626071
0.02084526
0.022245506
0.023906547
0.025877096
0.028468192
0.031544981
0.036928612
0.041906975
0.082755201
0.052436955
0.0016585527
0.00083595591
0.0019024717
0.0024110259
0.0028293459
0.0030926132
0.0032819439
0.0034202807
0.0035169722
0.0035846361
0.0036328669
0.0036672492
0.0036913057
0.0037074704
0.0037177498
0.0037235023
0.0037256126
0.0037248111
0.0037217158
0.0037167278
0.0037101202
0.0037021768
0.0036930933
0.0036830465
0.0036721574
0.0036605032
0.0036481746
0.0036352383
0.0036217528
0.0036077773
0.0035933358
0.0035784424
0.0035631252
0.0035474044
0.0035312928
0.0035148043
0.003497956
0.003480741
0.0034631497
0.0034451874
0.0034268517
0.0034081404
0.0033890474
0.0033695712
0.0033497103
0.0033294398
0.0033087407
0.0032876059
0.0032660215
0.0032439708
0.0032214412
0.0031984111
0.0031748733
0.003150803
0.0031261539
0.003100911
0.0030750493
0.0030485385
0.0030213498
0.0029934509
0.0029648103
0.0029353973
0.0029051581
0.0028740411
0.0028420064
0.0028090036
0.0027749776
0.0027398744
0.0027036274
0.002666182
0.0026274612
0.0025873652
0.0025458197
0.0025027317
0.0024579994
0.0024115177
0.0023631647
0.0023128235
0.0022603495
0.0022055712
0.0021483338
0.0020884525
0.0020257349
0.001959963
0.001890929
0.0018183732
0.0017420197
0.0016619768
0.0015787738
0.0014942524
0.0014106919
0.0013287317
0.0012482569
0.0011692858
0.001091855
0.0010160123
0.00094183338
0.00086943699
0.00079897249
0.00073061771
0.00066461634
0.00060130171
0.0005410868
0.00048460581
0.00043249673
0.00038632288
0.00034647778
0.0003189932
0.00029673802
0.00043884436
-0.00039253545
0.011728715
0.011835166
0.012056452
0.012335802
0.012676592
0.013078033
0.013536901
0.014052362
0.014625996
0.015261101
0.01596268
0.016737923
0.017596726
0.018553215
0.019626081
0.020845274
0.022245523
0.023906571
0.025877128
0.028468242
0.031545048
0.036928735
0.041907224
0.082730867
0.05247618
0.0016779117
0.00084194451
0.0019053565
0.0024127933
0.0028305938
0.0030935578
0.0032826935
0.0034208939
0.0035174857
0.0035850743
0.0036332462
0.0036675815
0.0036915995
0.0037077324
0.0037179851
0.0037237149
0.0037258057
0.0037249874
0.0037218774
0.0037168765
0.0037102575
0.0037023039
0.0036932113
0.0036831563
0.0036722599
0.0036605991
0.0036482643
0.0036353225
0.003621832
0.0036078519
0.0035934061
0.0035785087
0.0035631879
0.0035474637
0.003531349
0.0035148575
0.0034980065
0.0034807889
0.0034631953
0.0034452307
0.0034268929
0.0034081796
0.0033890848
0.0033696068
0.0033497443
0.0033294722
0.0033087717
0.0032876354
0.0032660497
0.0032439977
0.0032214669
0.0031984356
0.0031748967
0.0031508254
0.0031261754
0.0031009315
0.003075069
0.0030485572
0.0030213677
0.002993468
0.0029648266
0.002935413
0.0029051731
0.0028740554
0.00284202
0.0028090167
0.0027749901
0.0027398863
0.0027036388
0.0026661928
0.0026274715
0.002587375
0.0025458291
0.0025027406
0.0024580079
0.0024115258
0.0023631724
0.0023128308
0.0022603565
0.0022055778
0.00214834
0.0020884584
0.0020257405
0.0019599683
0.0018909339
0.0018183778
0.0017420241
0.0016619809
0.0015787777
0.0014942561
0.0014106954
0.0013287349
0.00124826
0.0011692887
0.0010918578
0.0010160149
0.00094183592
0.00086943942
0.00079897482
0.00073061995
0.00066461849
0.00060130378
0.0005410888
0.00048460775
0.00043249862
0.00038632473
0.0003464796
0.00031899504
0.0002967398
0.00043884638
-0.00039253425
0.011728715
0.011835166
0.012056453
0.012335803
0.012676593
0.013078035
0.013536902
0.014052364
0.014625999
0.015261105
0.015962684
0.016737929
0.017596733
0.018553224
0.019626092
0.020845289
0.022245543
0.023906599
0.025877165
0.028468299
0.031545126
0.036928876
0.041907514
0.082701982
0.052517808
0.0016996709
0.00084867076
0.0019085973
0.0024147798
0.0028319963
0.0030946194
0.0032835359
0.0034215831
0.0035180628
0.0035855667
0.0036336725
0.0036679548
0.0036919297
0.0037080268
0.0037182495
0.0037239538
0.0037260228
0.0037251855
0.003722059
0.0037170436
0.0037104117
0.0037024468
0.0036933439
0.0036832798
0.0036723751
0.0036607068
0.0036483652
0.0036354172
0.003621921
0.0036079357
0.003593485
0.0035785833
0.0035632584
0.0035475304
0.0035314121
0.0035149173
0.0034980632
0.0034808428
0.0034632465
0.0034452794
0.0034269392
0.0034082237
0.0033891268
0.0033696469
0.0033497825
0.0033295086
0.0033088064
0.0032876686
0.0032660813
0.0032440279
0.0032214958
0.0031984633
0.0031749231
0.0031508507
0.0031261995
0.0031009545
0.003075091
0.0030485783
0.0030213878
0.0029934873
0.0029648451
0.0029354306
0.0029051899
0.0028740714
0.0028420354
0.0028090314
0.0027750041
0.0027398996