/*--------------------------------*- C++ -*----------------------------------*\
| =========                 |                                                 |
| \\      /  F ield         | OpenFOAM: The Open Source CFD Toolbox           |
|  \\    /   O peration     | Version:  2206                                  |
|   \\  /    A nd           | Website:  www.openfoam.com                      |
|    \\/     M anipulation  |                                                 |
\*---------------------------------------------------------------------------*/
FoamFile
{
    version     2.0;
    format      ascii;
    arch        "LSB;label=32;scalar=64";
    class       surfaceScalarField;
    location    "1400";
    object      phi;
}
// * * * * * * * * * * * * * * * * * * * * * * * * * * * * * * * * * * * * * //

dimensions      [0 3 -1 0 0 0 0];

oriented        oriented;

internalField   nonuniform List<scalar> 
25880
(
2.0046271e-06
2.7087961e-11
2.0045641e-06
6.2921882e-11
2.0044865e-06
7.7617094e-11
2.0043985e-06
8.7977564e-11
2.0042969e-06
1.0164307e-10
2.00418e-06
1.1692145e-10
2.0040459e-06
1.3405592e-10
2.0038919e-06
1.5398905e-10
2.0037144e-06
1.775233e-10
2.0035089e-06
2.0552271e-10
2.0032698e-06
2.3912999e-10
2.0029897e-06
2.8008292e-10
2.0026591e-06
3.3055688e-10
2.0022643e-06
3.9481662e-10
2.0017879e-06
4.7642323e-10
2.0011976e-06
5.9025293e-10
2.0004633e-06
7.3433325e-10
1.9994771e-06
9.8614535e-10
1.9982247e-06
1.2524583e-09
1.9961883e-06
2.0363977e-09
1.9936452e-06
2.5430998e-09
1.9876305e-06
6.0146564e-09
1.9855346e-06
2.0959061e-09
9.9741685e-07
9.8811778e-07
4.4035887e-09
9.9301326e-07
2.1132404e-09
2.2903483e-09
1.6006425e-09
5.1259794e-10
1.3522778e-09
2.4836473e-10
1.1993563e-09
1.5292143e-10
1.0903373e-09
1.0901906e-10
1.0070386e-09
8.3298654e-11
9.4027219e-10
6.6766433e-11
8.8510839e-10
5.5163796e-11
8.3843678e-10
4.6671615e-11
7.9819143e-10
4.0245346e-11
7.6297216e-10
3.5219273e-11
7.3178494e-10
3.1187219e-11
7.0389214e-10
2.7892804e-11
6.7873119e-10
2.5160949e-11
6.5586707e-10
2.2864118e-11
6.349577e-10
2.090937e-11
6.1572561e-10
1.9232085e-11
5.9794844e-10
1.7777173e-11
5.8144347e-10
1.6504968e-11
5.6605568e-10
1.538779e-11
5.5165709e-10
1.439859e-11
5.3813864e-10
1.3518453e-11
5.2540743e-10
1.2731213e-11
5.1338383e-10
1.2023596e-11
5.0199904e-10
1.1384784e-11
4.9119294e-10
1.0806103e-11
4.8091287e-10
1.0280076e-11
4.7111253e-10
9.8003371e-12
4.6175108e-10
9.3614438e-12
4.5279251e-10
8.9585699e-12
4.442047e-10
8.587813e-12
4.3595871e-10
8.2459874e-12
4.2802859e-10
7.9301282e-12
4.2039099e-10
7.6376e-12
4.1302478e-10
7.3662046e-12
4.0591087e-10
7.1139157e-12
3.9903203e-10
6.8788326e-12
3.9237255e-10
6.6594841e-12
3.8591788e-10
6.4546728e-12
3.7965471e-10
6.2631684e-12
3.7357087e-10
6.083841e-12
3.6765513e-10
5.9157394e-12
3.618971e-10
5.7580291e-12
3.5628725e-10
5.6098481e-12
3.5081688e-10
5.4703727e-12
3.454778e-10
5.3390766e-12
3.4026228e-10
5.2155204e-12
3.3516314e-10
5.0991358e-12
3.3017372e-10
4.9894207e-12
3.2528777e-10
4.8859553e-12
3.204994e-10
4.7883679e-12
3.1580308e-10
4.6963165e-12
3.1119376e-10
4.6093198e-12
3.066667e-10
4.5270642e-12
3.0221721e-10
4.4494923e-12
2.9784085e-10
4.3763542e-12
2.9353351e-10
4.3073391e-12
2.8929125e-10
4.2422601e-12
2.8511032e-10
4.1809388e-12
2.809871e-10
4.1232178e-12
2.7691821e-10
4.0688871e-12
2.729005e-10
4.0177101e-12
2.6893087e-10
3.9696344e-12
2.6500622e-10
3.924649e-12
2.6112362e-10
3.8826007e-12
2.5728025e-10
3.8433649e-12
2.5347339e-10
3.8068659e-12
2.4970035e-10
3.7730395e-12
2.4595852e-10
3.7418274e-12
2.4224546e-10
3.7130596e-12
2.3855878e-10
3.6866818e-12
2.3489598e-10
3.6627993e-12
2.3125461e-10
3.6413628e-12
2.2763232e-10
3.6222984e-12
2.2402671e-10
3.6056067e-12
2.2043542e-10
3.5912925e-12
2.1685606e-10
3.5793579e-12
2.1328632e-10
3.569736e-12
2.0972386e-10
3.5624598e-12
2.061662e-10
3.557665e-12
2.0261081e-10
3.5553876e-12
1.9905515e-10
3.5556612e-12
1.9549655e-10
3.5586029e-12
1.9193224e-10
3.5643045e-12
1.8835942e-10
3.5728254e-12
1.8477455e-10
3.5848664e-12
1.8117539e-10
3.5991648e-12
1.7755991e-10
3.615471e-12
1.7407561e-10
3.4843021e-12
1.7079395e-10
3.2816657e-12
1.6769542e-10
3.0985213e-12
1.6476531e-10
2.9301144e-12
1.6198977e-10
2.7755393e-12
1.5935556e-10
2.6342144e-12
1.5685073e-10
2.5048286e-12
1.5446449e-10
2.3862389e-12
1.5218703e-10
2.2774555e-12
1.5000948e-10
2.1775505e-12
1.4792372e-10
2.0857634e-12
1.4592213e-10
2.001591e-12
1.4399747e-10
1.9246562e-12
1.4214265e-10
1.8548213e-12
1.4035065e-10
1.7919999e-12
1.3861353e-10
1.7371165e-12
1.3692356e-10
1.6899708e-12
1.3526714e-10
1.6564218e-12
1.3363918e-10
1.6279605e-12
1.3198714e-10
1.6520445e-12
1.3039251e-10
1.5946285e-12
1.2857835e-10
1.8141598e-12
1.0740956e-12
2.0345005e-06
5.4654777e-11
2.0344365e-06
1.2696778e-10
2.0343574e-06
1.5663209e-10
2.0342679e-06
1.7754137e-10
2.0341644e-06
2.0511732e-10
2.0340454e-06
2.3594699e-10
2.0339089e-06
2.7052082e-10
2.0337522e-06
3.1074045e-10
2.0335715e-06
3.5822491e-10
2.0333623e-06
4.1471726e-10
2.0331189e-06
4.8252256e-10
2.0328338e-06
5.6514636e-10
2.0324974e-06
6.669767e-10
2.0320956e-06
7.9661656e-10
2.0316108e-06
9.6124831e-10
2.0310101e-06
1.1908807e-09
2.0302629e-06
1.4815292e-09
2.0292596e-06
1.9894889e-09
2.0279854e-06
2.5266755e-09
2.0259138e-06
4.1079288e-09
2.0233269e-06
5.13003e-09
2.0172092e-06
1.2132396e-08
2.0150729e-06
4.2322135e-09
1.0186849e-06
1.9845057e-06
1.3435927e-08
1.9982623e-06
6.4659992e-09
9.2602757e-09
4.8977674e-09
2.0808297e-09
4.1378099e-09
1.0083222e-09
3.669872e-09
6.2085932e-10
3.3362749e-09
4.4261623e-10
3.081384e-09
3.3818952e-10
2.877083e-09
2.7106739e-10
2.7082855e-09
2.2396137e-10
2.5654743e-09
1.8948275e-10
2.4423277e-09
1.6339198e-10
2.3345607e-09
1.4298622e-10
2.2391317e-09
1.266163e-10
2.1537833e-09
1.1324121e-10
2.0767941e-09
1.021501e-10
2.0068331e-09
9.282518e-11
1.9428533e-09
8.4889145e-11
1.8840058e-09
7.8079516e-11
1.8296103e-09
7.2172737e-11
1.7791075e-09
6.7007799e-11
1.7320231e-09
6.2472188e-11
1.6879655e-09
5.8456168e-11
1.646601e-09
5.4882937e-11
1.6076454e-09
5.1686853e-11
1.5708549e-09
4.8814032e-11
1.5360192e-09
4.6220553e-11
1.5029541e-09
4.3871193e-11
1.4714985e-09
4.1735601e-11
1.4415109e-09
3.9787934e-11
1.4128663e-09
3.8006093e-11
1.3854544e-09
3.6370488e-11
1.3591769e-09
3.4865273e-11
1.3339454e-09
3.3477514e-11
1.3096803e-09
3.2195175e-11
1.2863104e-09
3.1007556e-11
1.2637709e-09
2.9905733e-11
1.2420033e-09
2.8881479e-11
1.220955e-09
2.7927079e-11
1.200578e-09
2.7036559e-11
1.1808276e-09
2.6205058e-11
1.1616632e-09
2.542758e-11
1.1430475e-09
2.4699539e-11
1.1249461e-09
2.4017073e-11
1.1073274e-09
2.3376794e-11
1.090162e-09
2.2775202e-11
1.0734234e-09
2.2208955e-11
1.0570866e-09
2.1675914e-11
1.0411278e-09
2.1174295e-11
1.0255252e-09
2.0701792e-11
1.0102582e-09
2.0256366e-11
9.9530787e-10
1.9836313e-11
9.8065611e-10
1.9440124e-11
9.6628602e-10
1.9066409e-11
9.5218212e-10
1.8713217e-11
9.3832991e-10
1.8379273e-11
9.2471506e-10
1.8064343e-11
9.11324e-10
1.7767414e-11
8.9814412e-10
1.7487223e-11
8.8516337e-10
1.7223013e-11
8.7237025e-10
1.6974058e-11
8.5975374e-10
1.673972e-11
8.4730349e-10
1.6519146e-11
8.3500982e-10
1.6311376e-11
8.2286326e-10
1.6116197e-11
8.1085434e-10
1.5933563e-11
7.9897409e-10
1.5762854e-11
7.8721389e-10
1.5603563e-11
7.7556538e-10
1.5455383e-11
7.6402036e-10
1.5318053e-11
7.5257085e-10
1.5191337e-11
7.4120937e-10
1.5074545e-11
7.2992859e-10
1.4967456e-11
7.187209e-10
1.4870497e-11
7.0757879e-10
1.4783468e-11
6.9649502e-10
1.470607e-11
6.8546232e-10
1.4638305e-11
6.7447342e-10
1.4580192e-11
6.6352104e-10
1.453174e-11
6.525981e-10
1.4492677e-11
6.4169742e-10
1.4463138e-11
6.3081141e-10
1.4443672e-11
6.1993237e-10
1.4434428e-11
6.090525e-10
1.4435539e-11
5.9816362e-10
1.4447483e-11
5.8725729e-10
1.4470631e-11
5.7632489e-10
1.4505227e-11
5.6535564e-10
1.4554113e-11
5.5434264e-10
1.4612163e-11
5.4327974e-10
1.4678376e-11
5.3261818e-10
1.4145857e-11
5.2257668e-10
1.3323172e-11
5.1309557e-10
1.2579625e-11
5.0412977e-10
1.1895919e-11
4.9563694e-10
1.1268367e-11
4.8757654e-10
1.0694609e-11
4.7991205e-10
1.0169321e-11
4.7261043e-10
9.6878637e-12
4.6564166e-10
9.2462176e-12
4.589786e-10
8.8406162e-12
4.5259639e-10
8.467972e-12
4.4647174e-10
8.1262411e-12
4.405825e-10
7.8138933e-12
4.3490696e-10
7.530369e-12
4.2942364e-10
7.2753165e-12
4.2410827e-10
7.0524891e-12
4.1893717e-10
6.8610707e-12
4.1386874e-10
6.7248499e-12
4.0888743e-10
6.6092673e-12
4.0383246e-10
6.7070117e-12
3.9895383e-10
6.473263e-12
3.9339839e-10
7.3696015e-12
4.3536973e-12
2.0946926e-06
8.3135711e-11
2.0946264e-06
1.9315343e-10
2.0945447e-06
2.3830247e-10
2.0944522e-06
2.7011741e-10
2.0943452e-06
3.1206968e-10
2.0942222e-06
3.5897028e-10
2.0940812e-06
4.1156452e-10
2.0939191e-06
4.7274489e-10
2.0937324e-06
5.4497386e-10
2.0935162e-06
6.3090222e-10
2.0932647e-06
7.3403532e-10
2.0929701e-06
8.5970405e-10
2.0926225e-06
1.014581e-09
2.0922074e-06
1.2117486e-09
2.0917065e-06
1.4621269e-09
2.0910861e-06
1.8113506e-09
2.0903142e-06
2.253349e-09
2.0892779e-06
3.0257981e-09
2.087962e-06
3.8426424e-09
2.0858229e-06
6.2470201e-09
2.0831517e-06
7.8012275e-09
2.0768353e-06
1.8448759e-08
2.0746248e-06
6.4427328e-09
1.055519e-06
3.0036114e-06
2.3231625e-08
3.0305497e-06
1.120544e-08
2.128646e-08
8.4879782e-09
4.7982921e-09
7.1709831e-09
2.3253172e-09
6.360001e-09
1.4318415e-09
5.7818484e-09
1.0207688e-09
5.3401024e-09
7.7993556e-10
4.9860354e-09
6.2513432e-10
4.6934987e-09
5.1649813e-10
4.445999e-09
4.3698242e-10
4.2325799e-09
3.7681109e-10
4.0458151e-09
3.2975099e-10
3.8804327e-09
2.9199871e-10
3.7325207e-09
2.611532e-10
3.5990958e-09
2.3557502e-10
3.4778509e-09
2.1407007e-10
3.3669718e-09
1.9576826e-10
3.2649873e-09
1.8006398e-10
3.1707181e-09
1.6644192e-10
3.0831951e-09
1.5453084e-10
3.0015964e-09
1.4407093e-10
2.9252432e-09
1.3480934e-10
2.8535572e-09
1.2656889e-10
2.7860459e-09
1.1919821e-10
2.7222869e-09
1.1257303e-10
2.6619154e-09
1.0659206e-10
2.6046125e-09
1.0117407e-10
2.550099e-09
9.624906e-11
2.4981295e-09
9.1757436e-11
2.4484874e-09
8.7648233e-11
2.4009816e-09
8.3876274e-11
2.3554418e-09
8.0405018e-11
2.3117147e-09
7.7204631e-11
2.2696625e-09
7.4247358e-11
2.2291616e-09
7.1508525e-11
2.1900998e-09
6.8967551e-11
2.1523758e-09
6.6605463e-11
2.1158984e-09
6.4404471e-11
2.0805841e-09
6.2350797e-11
2.046356e-09
6.0433226e-11
2.0131433e-09
5.8640242e-11
1.9808816e-09
5.6961267e-11
1.9495113e-09
5.5387396e-11
1.9189772e-09
5.3910812e-11
1.889229e-09
5.252345e-11
1.8602204e-09
5.1217597e-11
1.8319079e-09
4.9988324e-11
1.8042507e-09
4.8831513e-11
1.7772107e-09
4.7741849e-11
1.7507524e-09
4.6714627e-11
1.7248428e-09
4.574592e-11
1.6994507e-09
4.4832246e-11
1.6745467e-09
4.3970402e-11
1.650104e-09
4.3155886e-11
1.6260975e-09
4.2385762e-11
1.6025024e-09
4.1659485e-11
1.5792951e-09
4.097472e-11
1.5564538e-09
4.0328558e-11
1.5339575e-09
3.9719248e-11
1.5117865e-09
3.914512e-11
1.4899215e-09
3.86047e-11
1.4683446e-09
3.8096022e-11
1.4470391e-09
3.7616873e-11
1.4259885e-09
3.7166761e-11
1.4051765e-09
3.6745579e-11
1.3845875e-09
3.6351897e-11
1.3642065e-09
3.5984549e-11
1.3440191e-09
3.5642823e-11
1.324011e-09
3.5326119e-11
1.3041684e-09
3.5033893e-11
1.2844784e-09
3.4764553e-11
1.2649283e-09
3.4517591e-11
1.2455048e-09
3.4293989e-11
1.226195e-09
3.4093289e-11
1.2069862e-09
3.3914798e-11
1.187866e-09
3.3758523e-11
1.1688217e-09
3.3624507e-11
1.1498407e-09
3.351277e-11
1.1309107e-09
3.3422687e-11
1.1120192e-09
3.3354569e-11
1.0931532e-09
3.3309681e-11
1.0742993e-09
3.3288363e-11
1.0554439e-09
3.329093e-11
1.0365729e-09
3.3318478e-11
1.0176717e-09
3.3371866e-11
9.9872525e-10
3.3451654e-11
9.7971496e-10
3.3564397e-11
9.6062885e-10
3.3698275e-11
9.4145623e-10
3.3851001e-11
9.2297915e-10
3.2622937e-11
9.0557665e-10
3.0725673e-11
8.8914535e-10
2.9010921e-11
8.7360709e-10
2.7434182e-11
8.5888851e-10
2.5986948e-11
8.4491935e-10
2.4663769e-11
8.316363e-10
2.345237e-11
8.1898211e-10
2.2342049e-11
8.0690479e-10
2.1323539e-11
7.9535725e-10
2.0388153e-11
7.8429645e-10
1.9528771e-11
7.7368202e-10
1.8740679e-11
7.6347556e-10
1.8020347e-11
7.5363945e-10
1.7366486e-11
7.4413648e-10
1.6778282e-11
7.3492458e-10
1.626439e-11
7.2596272e-10
1.5822926e-11
7.1717883e-10
1.5508744e-11
7.0854595e-10
1.5242148e-11
6.9978551e-10
1.5467455e-11
6.9133104e-10
1.4927733e-11
6.8170007e-10
1.700057e-11
1.0032764e-11
2.1861004e-06
1.1298643e-10
2.186031e-06
2.6254335e-10
2.1859453e-06
3.2394727e-10
2.1858483e-06
3.6720173e-10
2.1857361e-06
4.2422785e-10
2.1856071e-06
4.8797756e-10
2.1854592e-06
5.5946268e-10
2.1852893e-06
6.4261401e-10
2.1850935e-06
7.4077783e-10
2.1848669e-06
8.5755582e-10
2.1846032e-06
9.9771044e-10
2.1842944e-06
1.1684844e-09
2.18393e-06
1.3789427e-09
2.1834949e-06
1.6468596e-09
2.18297e-06
1.9870675e-09
2.1823198e-06
2.4615674e-09
2.181511e-06
3.0620933e-09
2.1804253e-06
4.111555e-09
2.1790467e-06
5.2212505e-09
2.1768062e-06
8.4875224e-09
2.1740085e-06
1.0598932e-08
2.1673938e-06
2.5063371e-08
2.1650727e-06
8.7639064e-09
1.1087744e-06
4.0599097e-06
3.4370367e-08
4.1049537e-06
1.6615076e-08
3.9041751e-08
1.2586062e-08
8.8273065e-09
1.0633278e-08
4.2781016e-09
9.4306917e-09
2.6344274e-09
8.5733723e-09
1.8780881e-09
7.9183261e-09
1.4349818e-09
7.3932997e-09
1.1501608e-09
6.9595137e-09
9.5028408e-10
6.5925118e-09
8.0398427e-10
6.2760472e-09
6.9327571e-10
5.9991073e-09
6.0669095e-10
5.7538741e-09
5.3723187e-10
5.5345468e-09
4.8048052e-10
5.3367014e-09
4.3342039e-10
5.156917e-09
3.9385449e-10
4.9925031e-09
3.6018214e-10
4.8412786e-09
3.3128851e-10
4.7014945e-09
3.0622604e-10
4.5717135e-09
2.8431181e-10
4.4507172e-09
2.6506719e-10
4.3374992e-09
2.4802737e-10
4.2312018e-09
2.3286631e-10
4.1310945e-09
2.1930547e-10
4.0365513e-09
2.0711624e-10
3.9470311e-09
1.9611227e-10
3.8620611e-09
1.8614407e-10
3.7812273e-09
1.7708288e-10
3.7041657e-09
1.6881904e-10
3.6305551e-09
1.612588e-10
3.5601124e-09
1.5431903e-10
3.4925849e-09
1.4793251e-10
3.4277452e-09
1.4204433e-10
3.3653891e-09
1.3660345e-10
3.3053332e-09
1.3156446e-10
3.2474112e-09
1.268895e-10
3.191473e-09
1.2254365e-10
3.1373833e-09
1.184942e-10
3.0850183e-09
1.1471579e-10
3.0342637e-09
1.1118778e-10
2.985015e-09
1.0788899e-10
2.9371763e-09
1.0479996e-10
2.8906594e-09
1.0190431e-10
2.8453826e-09
9.9187641e-11
2.8012709e-09
9.6635127e-11
2.7582559e-09
9.4232581e-11
2.7162733e-09
9.1970927e-11
2.6752622e-09
8.9842589e-11
2.6351663e-09
8.783779e-11
2.595933e-09
8.5947876e-11
2.5575133e-09
8.4165616e-11
2.519861e-09
8.248461e-11
2.4829324e-09
8.0898962e-11
2.4466879e-09
7.940039e-11
2.4110902e-09
7.7983493e-11
2.3761024e-09
7.6647266e-11
2.3416897e-09
7.5387413e-11
2.3078197e-09
7.4198584e-11
2.2744614e-09
7.3077556e-11
2.2415852e-09
7.2021258e-11
2.2091629e-09
7.1026975e-11
2.1771679e-09
7.0091094e-11
2.1455752e-09
6.9209541e-11
2.1143606e-09
6.8381412e-11
2.0834996e-09
6.7606509e-11
2.0529693e-09
6.6882202e-11
2.0227475e-09
6.6206342e-11
1.9928127e-09
6.5577626e-11
1.9631439e-09
6.4994946e-11
1.9337205e-09
6.4457299e-11
1.9045233e-09
6.3961761e-11
1.8755335e-09
6.3507396e-11
1.8467315e-09
6.3096009e-11
1.818098e-09
6.2726757e-11
1.7896144e-09
6.2398368e-11
1.7612621e-09
6.211085e-11
1.7330223e-09
6.1864287e-11
1.7048764e-09
6.1658715e-11
1.6768061e-09
6.1492984e-11
1.648793e-09
6.1367663e-11
1.6208176e-09
6.1285084e-11
1.5928601e-09
6.1245871e-11
1.5649004e-09
6.1250602e-11
1.5369176e-09
6.1301295e-11
1.5088899e-09
6.1399532e-11
1.4807952e-09
6.1546342e-11
1.4526058e-09
6.1753785e-11
1.424304e-09
6.2000118e-11
1.3958738e-09
6.228116e-11
1.368475e-09
6.0021737e-11
1.3426697e-09
5.6531042e-11
1.3183044e-09
5.3376147e-11
1.2952634e-09
5.0475201e-11
1.2734378e-09
4.7812525e-11
1.2527235e-09
4.5378088e-11
1.2330266e-09
4.3149306e-11
1.2142621e-09
4.1106491e-11
1.1963531e-09
3.923259e-11
1.1792296e-09
3.7511623e-11
1.1628279e-09
3.593049e-11
1.1470881e-09
3.4480516e-11
1.1319532e-09
3.3155209e-11
1.1173675e-09
3.1952193e-11
1.1032758e-09
3.0869973e-11
1.0896157e-09
2.9924467e-11
1.0763264e-09
2.911221e-11
1.0633011e-09
2.8534103e-11
1.0504997e-09
2.8043557e-11
1.0375093e-09
2.845784e-11
1.0249727e-09
2.7464288e-11
1.0106893e-09
3.1284014e-11
1.8451382e-11
2.310086e-06
1.446925e-10
2.3100122e-06
3.3627363e-10
2.3099212e-06
4.1497591e-10
2.309818e-06
4.7039313e-10
2.3096988e-06
5.4343799e-10
2.3095617e-06
6.2509098e-10
2.3094045e-06
7.166461e-10
2.309224e-06
8.2313686e-10
2.3090159e-06
9.4884801e-10
2.3087751e-06
1.0983905e-09
2.3084949e-06
1.277861e-09
2.3081669e-06
1.4965313e-09
2.3077798e-06
1.7660046e-09
2.3073177e-06
2.1090345e-09
2.3067601e-06
2.5446029e-09
2.3060696e-06
3.1520799e-09
2.3052108e-06
3.9208562e-09
2.3040581e-06
5.2642943e-09
2.3025946e-06
6.6847138e-09
2.3002168e-06
1.0865397e-08
2.2972477e-06
1.3568007e-08
2.2902291e-06
3.2081968e-08
2.2877581e-06
1.1234895e-08
1.179588e-06
5.1680799e-06
4.7507186e-08
5.2370345e-06
2.3018493e-08
6.3530444e-08
1.7437204e-08
1.4408596e-08
1.4731852e-08
6.983453e-09
1.3065665e-08
4.3006152e-09
1.187786e-08
3.0658931e-09
1.0970303e-08
2.3425387e-09
1.0242892e-08
1.8775712e-09
9.641894e-09
1.5512822e-09
9.133425e-09
1.3124533e-09
8.6949753e-09
1.1317254e-09
8.3112866e-09
9.9037965e-10
7.9715269e-09
8.7699159e-10
7.6676589e-09
7.8434852e-10
7.3935534e-09
7.0752591e-10
7.1444706e-09
6.4293725e-10
6.9166829e-09
5.8796986e-10
6.7071686e-09
5.4080279e-10
6.5135045e-09
4.9989015e-10
6.333699e-09
4.6411733e-10
6.1660643e-09
4.3270183e-10
6.009206e-09
4.048857e-10
5.8619358e-09
3.801365e-10
5.7232417e-09
3.5799955e-10
5.5922563e-09
3.3810166e-10
5.46823e-09
3.2013859e-10
5.3505077e-09
3.0386634e-10
5.2385159e-09
2.890747e-10
5.1317502e-09
2.7558469e-10
5.0297658e-09
2.6324322e-10
4.9321702e-09
2.5191464e-10
4.8386135e-09
2.4148919e-10
4.7487806e-09
2.3187724e-10
4.6623886e-09
2.2299546e-10
4.5791833e-09
2.1476974e-10
4.4989346e-09
2.0713825e-10
4.4214342e-09
2.0004402e-10
4.3464947e-09
1.9343364e-10
4.2739448e-09
1.8726571e-10
4.2036261e-09
1.8150653e-10
4.1353935e-09
1.7612154e-10
4.0691145e-09
1.7107896e-10
4.0046668e-09
1.6635204e-10
3.9419371e-09
1.6191731e-10
3.8808217e-09
1.5775054e-10
3.8212257e-09
1.5382859e-10
3.76306e-09
1.5013663e-10
3.7062403e-09
1.466623e-10
3.6506885e-09
1.4338963e-10
3.5963318e-09
1.403045e-10
3.5431023e-09
1.3739511e-10
3.4909359e-09
1.3465101e-10
3.4397723e-09
1.3206257e-10
3.3895564e-09
1.2961628e-10
3.3402366e-09
1.2730332e-10
3.2917618e-09
1.2512204e-10
3.2440838e-09
1.2306543e-10
3.1971576e-09
1.2112477e-10
3.1509404e-09
1.1929478e-10
3.1053912e-09
1.1757046e-10
3.0604708e-09
1.1594738e-10
3.0161423e-09
1.1441963e-10
2.9723712e-09
1.1298057e-10
2.9291239e-09
1.1162872e-10
2.8863667e-09
1.1036376e-10
2.8440675e-09
1.0918139e-10
2.8021957e-09
1.0807811e-10
2.7607215e-09
1.0705178e-10
2.7196159e-09
1.0610061e-10
2.6788502e-09
1.0522295e-10
2.638398e-09
1.0441403e-10
2.598233e-09
1.0367232e-10
2.5583283e-09
1.0300077e-10
2.518657e-09
1.0239801e-10
2.4791934e-09
1.0186194e-10
2.4399117e-09
1.013926e-10
2.4007859e-09
1.0099012e-10
2.36179e-09
1.0065455e-10
2.322899e-09
1.0038402e-10
2.2840872e-09
1.0017946e-10
2.2453276e-09
1.0004467e-10
2.2065928e-09
9.9980674e-11
2.167855e-09
9.9988417e-11
2.1290851e-09
1.0007119e-10
2.090253e-09
1.0023158e-10
2.0513281e-09
1.0047127e-10
2.012272e-09
1.0080993e-10
1.97306e-09
1.0121209e-10
1.9336702e-09
1.0167097e-10
1.8957093e-09
9.7982658e-11
1.859956e-09
9.2284296e-11
1.826198e-09
8.7134123e-11
1.7942747e-09
8.2398542e-11
1.7640353e-09
7.8051928e-11
1.7353355e-09
7.407789e-11
1.7080452e-09
7.0439567e-11
1.6820469e-09
6.7104816e-11
1.6572337e-09
6.4045803e-11
1.6335089e-09
6.1236441e-11
1.610784e-09
5.8655344e-11
1.5889762e-09
5.6288352e-11
1.5680065e-09
5.4124867e-11
1.5477977e-09
5.2161008e-11
1.5282734e-09
5.0394334e-11
1.509347e-09
4.8850825e-11
1.4909344e-09
4.7524824e-11
1.4728875e-09
4.6581004e-11
1.4551509e-09
4.5780161e-11
1.4371527e-09
4.6455992e-11
1.4197833e-09
4.4833732e-11
1.3999917e-09
5.1075611e-11
3.0113818e-11
2.4684971e-06
1.7878003e-10
2.4684178e-06
4.1557744e-10
2.4683198e-06
5.129204e-10
2.4682088e-06
5.8142983e-10
2.4680805e-06
6.71707e-10
2.467933e-06
7.7261701e-10
2.4677639e-06
8.8575618e-10
2.4675697e-06
1.0173433e-09
2.4673459e-06
1.1726717e-09
2.4670868e-06
1.3574366e-09
2.4667855e-06
1.5791677e-09
2.4664327e-06
1.8493158e-09
2.4660165e-06
2.1822103e-09
2.4655196e-06
2.605952e-09
2.4649202e-06
3.1439767e-09
2.464178e-06
3.8943094e-09
2.463255e-06
4.8438066e-09
2.4620164e-06
6.5029767e-09
2.460444e-06
8.2570381e-09
2.45789e-06
1.3419462e-08
2.4547011e-06
1.6756866e-08
2.4471645e-06
3.9618557e-08
2.4445009e-06
1.3898509e-08
1.2694151e-06
6.3431657e-06
6.3410666e-08
6.4430389e-06
3.0798698e-08
9.6142412e-08
2.3331645e-08
2.1875649e-08
1.9711942e-08
1.0603155e-08
1.7482404e-08
6.530154e-09
1.5893014e-08
4.6552829e-09
1.4678622e-08
3.5569303e-09
1.3705291e-08
2.8509026e-09
1.290111e-08
2.3554628e-09
1.2220743e-08
1.992821e-09
1.1634068e-08
1.7183998e-09
1.1120669e-08
1.5037789e-09
1.066605e-08
1.3316105e-09
1.0259457e-08
1.1909417e-09
9.8926878e-09
1.0742949e-09
9.5594008e-09
9.7622424e-10
9.2546075e-09
8.927631e-10
8.9742655e-09
8.2114481e-10
8.715132e-09
7.5902371e-10
8.4745415e-09
7.0470782e-10
8.2502364e-09
6.5700688e-10
8.0403506e-09
6.1477153e-10
7.8432942e-09
5.7719293e-10
7.657713e-09
5.4358074e-10
7.4824464e-09
5.1336828e-10
7.3164913e-09
4.8609363e-10
7.1589714e-09
4.6138628e-10
7.0091191e-09
4.3892704e-10
6.8662596e-09
4.1844415e-10
6.7297976e-09
3.9970519e-10
6.5992081e-09
3.8250418e-10
6.4740228e-09
3.6667446e-10
6.3538201e-09
3.5207994e-10
6.2382215e-09
3.3859407e-10
6.1268869e-09
3.2610435e-10
6.0195082e-09
3.145169e-10
5.9158071e-09
3.0374521e-10
5.8155325e-09
2.9370818e-10
5.7184553e-09
2.8434296e-10
5.6243634e-09
2.7559838e-10
5.533063e-09
2.6742194e-10
5.4443766e-09
2.5976541e-10
5.3581404e-09
2.5258818e-10
5.2742031e-09
2.458546e-10
5.1924258e-09
2.3952789e-10
5.1126815e-09
2.335729e-10
5.034851e-09
2.2796713e-10
4.9588215e-09
2.2269179e-10
4.8844885e-09
2.1772265e-10
4.8117547e-09
2.1303827e-10
4.7405291e-09
2.0862072e-10
4.670726e-09
2.0445414e-10
4.6022646e-09
2.0052392e-10
4.5350714e-09
1.9680953e-10
4.4690771e-09
1.9329759e-10
4.4042136e-09
1.8998559e-10
4.3404161e-09
1.8686289e-10
4.2776246e-09
1.8391623e-10
4.2157818e-09
1.8113763e-10
4.1548328e-09
1.7851947e-10
4.0947252e-09
1.7605502e-10
4.0354095e-09
1.7373532e-10
3.9768397e-09
1.7155029e-10
3.9189708e-09
1.6949768e-10
3.8617576e-09
1.67577e-10
3.8051572e-09
1.6578172e-10
3.7491288e-09
1.6410653e-10
3.6936324e-09
1.6254819e-10
3.6386291e-09
1.6110395e-10
3.5840807e-09
1.5977134e-10
3.5299516e-09
1.585431e-10
3.476207e-09
1.5741693e-10
3.4228105e-09
1.5639727e-10
3.3697265e-09
1.5548206e-10
3.3169203e-09
1.5466813e-10
3.2643574e-09
1.5395551e-10
3.2120031e-09
1.533444e-10
3.1598227e-09
1.528349e-10
3.1077826e-09
1.5242416e-10
3.0558485e-09
1.5211358e-10
3.0039842e-09
1.5190895e-10
2.9521531e-09
1.5181182e-10
2.9003179e-09
1.5182361e-10
2.8484397e-09
1.5194933e-10
2.7964784e-09
1.5219291e-10
2.7443927e-09
1.525569e-10
2.6921315e-09
1.5307119e-10
2.6396617e-09
1.5368191e-10
2.5869538e-09
1.5437883e-10
2.5361579e-09
1.4877859e-10
2.488316e-09
1.4012618e-10
2.443144e-09
1.3230616e-10
2.4004268e-09
1.2511572e-10
2.3599628e-09
1.1851589e-10
2.3215589e-09
1.1248177e-10
2.2850411e-09
1.0695739e-10
2.250252e-09
1.0189394e-10
2.2170486e-09
9.7249161e-11
2.1853016e-09
9.2983445e-11
2.1548926e-09
8.906432e-11
2.1257107e-09
8.5470286e-11
2.0976503e-09
8.2185249e-11
2.070608e-09
7.9203316e-11
2.0444816e-09
7.6520779e-11
2.0191553e-09
7.4177073e-11
1.9945165e-09
7.216362e-11
1.9703672e-09
7.0730376e-11
1.946633e-09
6.9514318e-11
1.9225493e-09
7.0539726e-11
1.8993066e-09
6.8076448e-11
1.8728211e-09
7.7561089e-11
4.5718786e-11
2.6636943e-06
2.1582773e-10
2.6636081e-06
5.0181412e-10
2.6635015e-06
6.1947234e-10
2.6633807e-06
7.0223157e-10
2.6632412e-06
8.1125101e-10
2.6630807e-06
9.3310213e-10
2.6628968e-06
1.0697084e-09
2.6626855e-06
1.2285763e-09
2.6624421e-06
1.4160952e-09
2.6621604e-06
1.6391377e-09
2.6618328e-06
1.9067887e-09
2.6614492e-06
2.2328651e-09
2.6609968e-06
2.6346543e-09
2.6604567e-06
3.1460626e-09
2.6598053e-06
3.7953554e-09
2.6589988e-06
4.7008097e-09
2.6579961e-06
5.8465085e-09
2.6566507e-06
7.8484126e-09
2.6549431e-06
9.9645516e-09
2.6521704e-06
1.6192236e-08
2.6487087e-06
2.0218527e-08
2.6405294e-06
4.7797837e-08
2.6376256e-06
1.6802306e-08
1.3800729e-06
7.6007184e-06
8.3006768e-08
7.7401051e-06
4.0421026e-08
1.3872815e-07
3.0622047e-08
3.1674628e-08
2.5871533e-08
1.5353669e-08
2.2945169e-08
9.4565184e-09
2.0859057e-08
6.7413943e-09
1.9265141e-08
5.1508464e-09
1.7987633e-08
4.1284105e-09
1.6932139e-08
3.4109568e-09
1.6039153e-08
2.8858068e-09
1.5269144e-08
2.4884096e-09
1.4595309e-08
2.1776133e-09
1.3998625e-08
1.9282949e-09
1.3464974e-08
1.7245924e-09
1.2983593e-08
1.5556763e-09
1.2546157e-08
1.4136606e-09
1.2146118e-08
1.292802e-09
1.1778171e-08
1.1890913e-09
1.1438061e-08
1.0991343e-09
1.1122287e-08
1.0204814e-09
1.0827888e-08
9.5140597e-10
1.0552414e-08
8.9024566e-10
1.0293778e-08
8.3582874e-10
1.0050203e-08
7.8715551e-10
9.820166e-09
7.4340541e-10
9.6023501e-09
7.0390951e-10
9.3956051e-09
6.6813127e-10
9.1989237e-09
6.3560848e-10
9.0114203e-09
6.0594759e-10
8.8323134e-09
5.7881206e-10
8.660914e-09
5.539036e-10
8.4966075e-09
5.3098089e-10
8.3388406e-09
5.0984685e-10
8.1871165e-09
4.9031823e-10
8.0409887e-09
4.7223209e-10
7.9000531e-09
4.5545252e-10
7.7639441e-09
4.3985424e-10
7.6323324e-09
4.253198e-10
7.5049172e-09
4.117582e-10
7.3814202e-09
3.9909534e-10
7.261587e-09
3.8725519e-10
7.1451845e-09
3.7616791e-10
7.031998e-09
3.6577468e-10
6.9218287e-09
3.560239e-10
6.8144943e-09
3.468623e-10
6.7098282e-09
3.3823899e-10
6.6076739e-09
3.3012137e-10
6.5078835e-09
3.2248224e-10
6.4103196e-09
3.1528652e-10
6.3148547e-09
3.0850314e-10
6.2213693e-09
3.0210617e-10
6.1297508e-09
2.9607262e-10
6.0398934e-09
2.9038132e-10
5.9517004e-09
2.8500257e-10
5.865081e-09
2.79917e-10
5.7799456e-09
2.7512095e-10
5.6962095e-09
2.7059902e-10
5.6137937e-09
2.6633201e-10
5.532623e-09
2.6230837e-10
5.4526254e-09
2.5851705e-10
5.3737321e-09
2.5494832e-10
5.2958782e-09
2.5158921e-10
5.2190034e-09
2.4842511e-10
5.1430483e-09
2.4545277e-10
5.0679538e-09
2.4267146e-10
4.9936638e-09
2.4007175e-10
4.9201244e-09
2.3764594e-10
4.8472832e-09
2.3538934e-10
4.7750892e-09
2.3329798e-10
4.7034923e-09
2.3136825e-10
4.6324457e-09
2.2958968e-10
4.5619037e-09
2.279589e-10
4.4918186e-09
2.2648238e-10
4.4221436e-09
2.2515709e-10
4.3528332e-09
2.2397848e-10
4.2838422e-09
2.2294657e-10
4.2151249e-09
2.2206167e-10
4.1466359e-09
2.213239e-10
4.0783309e-09
2.2072915e-10
4.010165e-09
2.2027947e-10
3.9420908e-09
2.1998319e-10
3.87406e-09
2.1984259e-10
3.8060239e-09
2.1985973e-10
3.7379313e-09
2.2004187e-10
3.6697296e-09
2.2039468e-10
3.6013646e-09
2.2092188e-10
3.5327691e-09
2.2166672e-10
3.4638997e-09
2.2255126e-10
3.3947178e-09
2.2356074e-10
3.3280453e-09
2.1545112e-10
3.26525e-09
2.0292144e-10
3.205959e-09
1.915972e-10
3.14989e-09
1.8118475e-10
3.0967783e-09
1.7162759e-10
3.0463704e-09
1.628896e-10
2.9984381e-09
1.5488976e-10
2.9527746e-09
1.4755738e-10
2.9091925e-09
1.4083127e-10
2.8675219e-09
1.3465408e-10
2.8276074e-09
1.2897877e-10
2.7893035e-09
1.2377422e-10
2.7524716e-09
1.1901713e-10
2.716976e-09
1.1469895e-10
2.6826824e-09
1.1081431e-10
2.6494392e-09
1.0742031e-10
2.6170983e-09
1.0450454e-10
2.5853998e-09
1.0242882e-10
2.5542464e-09
1.0066778e-10
2.5226347e-09
1.0215145e-10
2.4921263e-09
9.8584791e-11
2.4573601e-09
1.1232734e-10
6.6201412e-11
2.8985866e-06
2.5648088e-10
2.8984919e-06
5.9650312e-10
2.8983749e-06
7.3652611e-10
2.8982422e-06
8.3494881e-10
2.8980889e-06
9.6455207e-10
2.8979126e-06
1.1093977e-09
2.8977105e-06
1.2717661e-09
2.8974785e-06
1.4605769e-09
2.8972112e-06
1.683421e-09
2.8969019e-06
1.9484617e-09
2.8965422e-06
2.2664885e-09
2.8961211e-06
2.6539108e-09
2.8956245e-06
3.1312567e-09
2.8950318e-06
3.7387937e-09
2.8943171e-06
4.5100743e-09
2.8934323e-06
5.5855678e-09
2.8923325e-06
6.94629e-09
2.8908572e-06
9.3237496e-09
2.8889852e-06
1.1836516e-08
2.8859465e-06
1.9230907e-08
2.8821533e-06
2.4011803e-08
2.8731931e-06
5.6757976e-08
2.8699955e-06
1.9999933e-08
1.5137934e-06
8.9569205e-06
1.0743107e-07
9.1464674e-06
5.2460956e-08
1.9369827e-07
3.9744593e-08
4.4390991e-08
3.3579193e-08
2.151907e-08
2.9780808e-08
1.3254903e-08
2.7073104e-08
9.4490984e-09
2.5004255e-08
7.219696e-09
2.3346108e-08
5.7865572e-09
2.1976127e-08
4.7809375e-09
2.0817078e-08
4.0448559e-09
1.981765e-08
3.487838e-09
1.8943054e-08
3.052209e-09
1.8168595e-08
2.7027537e-09
1.7475951e-08
2.4172366e-09
1.6851149e-08
2.1804781e-09
1.6283386e-08
1.9814244e-09
1.5764161e-08
1.8120269e-09
1.528659e-08
1.6666619e-09
1.4845149e-08
1.5405759e-09
1.4435294e-08
1.4303362e-09
1.4053182e-08
1.3335179e-09
1.3695633e-08
1.2477944e-09
1.3359939e-08
1.1715227e-09
1.3043793e-08
1.1033014e-09
1.2745218e-08
1.0419805e-09
1.2462505e-08
9.8662245e-10
1.2194161e-08
9.3647508e-10
1.1938879e-08
8.9089059e-10
1.1695509e-08
8.4931739e-10
1.1463038e-08
8.1128377e-10
1.124057e-08
7.7637168e-10
1.1027308e-08
7.4424285e-10
1.0822534e-08
7.1462103e-10
1.0625602e-08
6.8724937e-10
1.0435935e-08
6.6189954e-10
1.0253006e-08
6.38381e-10
1.0076342e-08
6.1651817e-10
9.9055158e-09
5.9614646e-10
9.7401357e-09
5.771383e-10
9.5798413e-09
5.593898e-10
9.424302e-09
5.4279443e-10
9.2732156e-09
5.272543e-10
9.1263034e-09
5.1268696e-10
8.9833072e-09
4.9902008e-10
8.8439905e-09
4.86179e-10
8.708137e-09
4.7409242e-10
8.5755438e-09
4.6271462e-10
8.4460186e-09
4.5200747e-10
8.3193833e-09
4.419218e-10
8.1954723e-09
4.324141e-10
8.0741305e-09
4.2344797e-10
7.9552119e-09
4.1499122e-10
7.8385791e-09
4.0701418e-10
7.7241064e-09
3.9947523e-10
7.6116762e-09
3.923472e-10
7.5011722e-09
3.8562497e-10
7.3924843e-09
3.7928693e-10
7.2855101e-09
3.7330621e-10
7.1801518e-09
3.6766659e-10
7.0763163e-09
3.623526e-10
6.973914e-09
3.573506e-10
6.8728608e-09
3.5264241e-10
6.7730784e-09
3.4820756e-10
6.6744896e-09
3.4404148e-10
6.577018e-09
3.4014315e-10
6.4805904e-09
3.3649935e-10
6.385137e-09
3.330993e-10
6.2905899e-09
3.2993642e-10
6.1968828e-09
3.2700514e-10
6.1039506e-09
3.2430042e-10
6.0117327e-09
3.2180756e-10
5.9201697e-09
3.1952186e-10
5.8291998e-09
3.1745237e-10
5.738762e-09
3.1559485e-10