/*--------------------------------*- C++ -*----------------------------------*\
| =========                 |                                                 |
| \\      /  F ield         | OpenFOAM: The Open Source CFD Toolbox           |
|  \\    /   O peration     | Version:  2206                                  |
|   \\  /    A nd           | Website:  www.openfoam.com                      |
|    \\/     M anipulation  |                                                 |
\*---------------------------------------------------------------------------*/
FoamFile
{
    version     2.0;
    format      ascii;
    arch        "LSB;label=32;scalar=64";
    class       volVectorField;
    location    "1400";
    object      U;
}
// * * * * * * * * * * * * * * * * * * * * * * * * * * * * * * * * * * * * * //

dimensions      [0 1 -1 0 0 0 0];

internalField   nonuniform List<vector> 
13056
(
(1 3.3769651e-10 4.2416019e-25)
(0.99997459 8.9029872e-10 0)
(0.99993793 1.2462366e-09 0)
(0.99989739 1.602606e-09 0)
(0.99985054 2.0998999e-09 0)
(0.99979643 2.7383413e-09 0)
(0.99973437 3.5571595e-09 0)
(0.99966322 4.6260628e-09 0)
(0.99958137 6.0321394e-09 0)
(0.99948683 7.8894257e-09 0)
(0.99937716 1.0354267e-08 0)
(0.99924923 1.3652731e-08 0)
(0.99909887 1.8094517e-08 0)
(0.99892077 2.419374e-08 0)
(0.99870658 3.2553835e-08 0)
(0.99844728 4.475384e-08 0)
(0.99812024 6.1413013e-08 0)
(0.99771691 9.0305516e-08 0)
(0.99714166 1.2449233e-07 0)
(0.99646794 2.1746171e-07 0)
(0.99512595 2.883056e-07 0)
(0.99391868 7.1427602e-07 0)
(0.9891725 2.5741894e-07 -4.764099e-21)
(0.9917327 0.00012345004 7.7795693e-18)
(0.0031546594 0.00012394631 0)
(0.0012300432 6.5204673e-08 -1.0336874e-20)
(0.00087682542 4.6453091e-08 3.4300197e-18)
(0.00071944928 5.3279705e-09 0)
(0.00062928844 3.2531323e-09 0)
(0.00056700176 2.297979e-09 0)
(0.00052058732 1.739688e-09 0)
(0.00048393766 1.3811343e-09 0)
(0.00045400424 1.1299743e-09 0)
(0.00042892246 9.4639878e-10 0)
(0.00040745639 8.076572e-10 0)
(0.00038878253 6.9932292e-10 0)
(0.00037232846 6.1255513e-10 0)
(0.00035767553 5.4176461e-10 0)
(0.00034450689 4.8314107e-10 0)
(0.00033257843 4.339161e-10 0)
(0.00032170047 3.9207783e-10 0)
(0.00031172158 3.5621426e-10 2.0747489e-25)
(0.00030251645 3.2514285e-10 0)
(0.00029398869 2.9800544e-10 0)
(0.00028605244 2.7418991e-10 0)
(0.00027863895 2.5312174e-10 0)
(0.00027168934 2.3438863e-10 0)
(0.00026515372 2.1764238e-10 0)
(0.00025898933 2.0259756e-10 0)
(0.00025315952 1.8902135e-10 0)
(0.00024763231 1.7672565e-10 0)
(0.00024237971 1.6554922e-10 0)
(0.00023737719 1.5535524e-10 0)
(0.00023260311 1.4602701e-10 0)
(0.00022803838 1.3746221e-10 0)
(0.00022366615 1.2957702e-10 0)
(0.00021947124 1.2230179e-10 0)
(0.00021543997 1.1557296e-10 0)
(0.00021156013 1.093345e-10 0)
(0.00020782065 1.0353897e-10 0)
(0.00020421152 9.8143364e-11 0)
(0.0002007237 9.3108272e-11 0)
(0.00019734906 8.840186e-11 0)
(0.00019408004 8.3997238e-11 0)
(0.00019090969 7.9868179e-11 0)
(0.00018783169 7.5990931e-11 0)
(0.00018484022 7.2345008e-11 0)
(0.0001819299 6.8912255e-11 0)
(0.00017909574 6.567498e-11 0)
(0.00017633323 6.2616766e-11 0)
(0.00017363819 5.9725397e-11 0)
(0.00017100664 5.6990075e-11 0)
(0.00016843484 5.4399043e-11 0)
(0.00016591938 5.1941811e-11 0)
(0.00016345702 4.9609232e-11 0)
(0.00016104475 4.7393039e-11 0)
(0.00015867972 4.528564e-11 0)
(0.00015635926 4.3278449e-11 0)
(0.00015408101 4.1364925e-11 0)
(0.00015184259 3.954114e-11 0)
(0.00014964169 3.7801515e-11 0)
(0.00014747622 3.6140244e-11 0)
(0.00014534415 3.4552849e-11 0)
(0.00014324358 3.3035106e-11 0)
(0.00014117266 3.1583146e-11 0)
(0.00013912964 3.0192872e-11 0)
(0.0001371129 2.8860208e-11 0)
(0.00013512091 2.7582623e-11 0)
(0.0001331521 2.6357919e-11 0)
(0.00013120495 2.5183e-11 0)
(0.00012927806 2.4055123e-11 0)
(0.00012737002 2.2971978e-11 0)
(0.0001254795 2.1931411e-11 0)
(0.00012360517 2.0931395e-11 0)
(0.00012174575 1.9969367e-11 0)
(0.00011990007 1.9043548e-11 0)
(0.00011806691 1.8153034e-11 0)
(0.00011624501 1.7296113e-11 0)
(0.00011443319 1.6471049e-11 0)
(0.00011263024 1.5676522e-11 0)
(0.000110835 1.4911267e-11 0)
(0.00010904627 1.4174048e-11 0)
(0.00010726286 1.3463402e-11 0)
(0.00010548364 1.2778323e-11 0)
(0.0001037074 1.2118177e-11 0)
(0.00010193287 1.1481953e-11 0)
(0.00010015879 1.0868663e-11 0)
(9.8383867e-05 1.027759e-11 0)
(9.660672e-05 9.7079338e-12 0)
(9.4825959e-05 9.1588049e-12 0)
(9.3040148e-05 8.630898e-12 0)
(9.1247172e-05 8.1201193e-12 0)
(8.9446941e-05 7.6252781e-12 0)
(8.7678066e-05 7.1626774e-12 0)
(8.5993399e-05 6.7462468e-12 0)
(8.4404019e-05 6.3698835e-12 0)
(8.2902072e-05 6.0237897e-12 0)
(8.1480708e-05 5.7061196e-12 0)
(8.0132977e-05 5.4156814e-12 0)
(7.8852609e-05 5.1497777e-12 0)
(7.7633963e-05 4.906061e-12 0)
(7.647191e-05 4.6824983e-12 0)
(7.5361795e-05 4.4771831e-12 0)
(7.4299415e-05 4.2885534e-12 0)
(7.3280874e-05 4.1155769e-12 0)
(7.2302471e-05 3.9574812e-12 0)
(7.1360686e-05 3.8139851e-12 0)
(7.0451956e-05 3.6849155e-12 0)
(6.9572847e-05 3.5721712e-12 0)
(6.8718872e-05 3.4753636e-12 0)
(6.7886801e-05 3.4064949e-12 0)
(6.7066291e-05 3.3482413e-12 0)
(6.6262629e-05 3.3976762e-12 0)
(6.5418048e-05 1.3724337e-11 0)
(6.4672146e-05 3.7053761e-12 2.5985863e-24)
(6.360526e-05 9.2659445e-12 0)
(1 1.0195738e-09 0)
(0.99997452 2.6883715e-09 0)
(0.99993775 3.7634569e-09 0)
(0.99989708 4.8396904e-09 0)
(0.99985009 6.3414147e-09 0)
(0.99979581 8.2693357e-09 0)
(0.99973357 1.0741885e-08 0)
(0.9996622 1.3969524e-08 0)
(0.99958011 1.8215183e-08 0)
(0.99948529 2.3823138e-08 0)
(0.9993753 3.1265383e-08 0)
(0.99924701 4.1224385e-08 0)
(0.99909622 5.4635042e-08 0)
(0.99891763 7.304932e-08 0)
(0.99870286 9.8288678e-08 0)
(0.99844286 1.3511963e-07 0)
(0.99811497 1.8541066e-07 0)
(0.99771061 2.7262857e-07 0)
(0.99713394 3.7582373e-07 0)
(0.99645859 6.5644392e-07 0)
(0.99511355 8.7028716e-07 0)
(0.9939035 2.1560473e-06 0)
(0.9891469 7.7575376e-07 1.7032377e-20)
(0.99170914 0.00037103639 -6.597652e-21)
(0.0094749652 0.0003730217 0)
(0.0037083111 1.2114801e-06 0)
(0.0026435351 2.6527781e-07 2.2004965e-22)
(0.0021691165 1.2690333e-07 0)
(0.0018972683 7.745048e-08 0)
(0.0017094724 5.4717581e-08 0)
(0.0015695297 4.1420581e-08 0)
(0.0014590308 3.2883525e-08 0)
(0.0013687812 2.6903147e-08 0)
(0.0012931598 2.2532787e-08 0)
(0.0012284401 1.9229816e-08 0)
(0.0011721392 1.6650214e-08 0)
(0.001122531 1.4584029e-08 0)
(0.0010783532 1.2898365e-08 0)
(0.0010386505 1.1502438e-08 0)
(0.001002687 1.0330354e-08 0)
(0.00096989068 9.3341662e-09 0)
(0.00093980499 8.4802609e-09 -3.0808257e-25)
(0.00091205225 7.7404589e-09 -4.2338117e-25)
(0.00088634164 7.0943274e-09 0)
(0.00086241444 6.5273194e-09 0)
(0.00084006332 6.025714e-09 0)
(0.00081911079 5.5797097e-09 0)
(0.00079940639 5.1810124e-09 0)
(0.00078082123 4.8228277e-09 0)
(0.00076324479 4.4996112e-09 0)
(0.00074658068 4.2068814e-09 0)
(0.00073074447 3.9408009e-09 0)
(0.00071566227 3.6981115e-09 0)
(0.00070126877 3.4760347e-09 0)
(0.00068750644 3.2721355e-09 0)
(0.00067432451 3.0844167e-09 0)
(0.00066167716 2.9112195e-09 0)
(0.0006495232 2.7510315e-09 0)
(0.00063782575 2.6025181e-09 0)
(0.00062655151 2.46455e-09 0)
(0.00061567023 2.3361033e-09 0)
(0.00060515472 2.2162404e-09 0)
(0.00059498041 2.1042026e-09 0)
(0.00058512455 1.9993491e-09 0)
(0.00057556618 1.9010562e-09 0)
(0.00056628623 1.8087583e-09 0)
(0.00055726715 1.7219677e-09 0)
(0.00054849274 1.6402519e-09 0)
(0.00053994794 1.56319e-09 0)
(0.00053161915 1.4903915e-09 0)
(0.0005234938 1.4215648e-09 0)
(0.00051555984 1.3564529e-09 0)
(0.00050780605 1.2947761e-09 0)
(0.00050022208 1.2362846e-09 0)
(0.00049279822 1.1807607e-09 0)
(0.0004855254 1.1280075e-09 0)
(0.00047839499 1.0778442e-09 0)
(0.00047139896 1.0300667e-09 0)
(0.00046453016 9.8451936e-10 0)
(0.00045778147 9.4110779e-10 0)
(0.00045114592 8.9969985e-10 0)
(0.00044461714 8.6015726e-10 0)
(0.0004381891 8.2237325e-10 0)
(0.00043185599 7.8624737e-10 0)
(0.0004256123 7.5168744e-10 0)
(0.00041945273 7.1859597e-10 0)
(0.00041337237 6.8687612e-10 0)
(0.00040736664 6.5646734e-10 0)
(0.0004014308 6.2731722e-10 0)
(0.00039556027 5.9935229e-10 0)
(0.0003897508 5.7250717e-10 0)
(0.00038399818 5.4672685e-10 0)
(0.00037829837 5.2196008e-10 0)
(0.00037264738 4.9815851e-10 0)
(0.00036704132 4.7526129e-10 0)
(0.00036147672 4.5322606e-10 0)
(0.00035594985 4.3203104e-10 0)
(0.00035045692 4.1163568e-10 0)
(0.00034499437 3.9199861e-10 0)
(0.0003395586 3.7308839e-10 0)
(0.00033414605 3.5487495e-10 0)
(0.00032875312 3.3732877e-10 0)
(0.00032337624 3.2041513e-10 0)
(0.00031801201 3.0411006e-10 0)
(0.00031265674 2.8839837e-10 0)
(0.00030730662 2.7325605e-10 0)
(0.00030195787 2.5865956e-10 0)
(0.00029660657 2.4459186e-10 0)
(0.00029124857 2.3103379e-10 0)
(0.00028587967 2.1796428e-10 0)
(0.00028049554 2.0539969e-10 0)
(0.00027508982 1.9324249e-10 0)
(0.00026966222 1.8146589e-10 0)
(0.00026432914 1.7045604e-10 0)
(0.00025924995 1.6054285e-10 0)
(0.00025445805 1.5158326e-10 0)
(0.00024992975 1.4334465e-10 0)
(0.00024564441 1.3578273e-10 0)
(0.00024158106 1.28869e-10 0)
(0.0002377208 1.2253934e-10 0)
(0.00023404664 1.1673783e-10 0)
(0.0002305431 1.1141605e-10 0)
(0.00022719614 1.0652861e-10 0)
(0.00022399311 1.0203831e-10 0)
(0.00022092225 9.7920515e-11 0)
(0.0002179724 9.4156792e-11 0)
(0.00021513296 9.0740405e-11 0)
(0.00021239317 8.766712e-11 0)
(0.0002097427 8.4982166e-11 0)
(0.00020716801 8.2675731e-11 0)
(0.00020465936 8.1034491e-11 0)
(0.00020218559 7.9642014e-11 0)
(0.0001997626 8.0820382e-11 0)
(0.00019721636 7.833959e-11 0)
(0.00019496745 8.87771e-11 -4.0194928e-24)
(0.0001917508 5.27272e-11 2.6982065e-25)
(1 1.7187985e-09 0)
(0.99997443 4.5324337e-09 0)
(0.99993752 6.3454787e-09 0)
(0.99989669 8.1601806e-09 0)
(0.99984952 1.0692147e-08 0)
(0.99979502 1.3942628e-08 0)
(0.99973254 1.8111244e-08 0)
(0.9996609 2.3552767e-08 0)
(0.99957849 3.0710402e-08 0)
(0.99948333 4.0164455e-08 0)
(0.99937293 5.2710482e-08 0)
(0.99924416 6.949877e-08 0)
(0.99909283 9.2105016e-08 0)
(0.99891361 1.231449e-07 0)
(0.9986981 1.6568808e-07 0)
(0.99843722 2.2776779e-07 0)
(0.99810824 3.1253163e-07 0)
(0.99770257 4.5952853e-07 0)
(0.99712409 6.3344527e-07 0)
(0.99644669 1.1063545e-06 0)
(0.99509776 1.4667413e-06 0)
(0.99388418 3.6335355e-06 0)
(0.9891144 1.3088724e-06 -9.0239809e-21)
(0.99167919 0.00062237139 5.385315e-55)
(0.015899061 0.00062691893 -5.3845374e-55)
(0.0062416782 3.4383567e-06 0)
(0.0044496279 7.7195044e-07 -1.1424271e-22)
(0.0036511539 3.7160586e-07 0)
(0.0031935448 2.2680766e-07 0)
(0.0028774328 1.6023541e-07 0)
(0.0026418684 1.2129575e-07 0)
(0.0024558695 9.6295109e-08 0)
(0.0023039555 7.8782262e-08 0)
(0.0021766651 6.5983915e-08 0)
(0.0020677256 5.631138e-08 0)
(0.0019729573 4.8757276e-08 0)
(0.0018894547 4.2706724e-08 0)
(0.001815093 3.77705e-08 0)
(0.0017482639 3.368274e-08 0)
(0.0016877289 3.0250478e-08 0)
(0.0016325251 2.7333325e-08 0)
(0.0015818838 2.4832796e-08 0)
(0.0015351696 2.2666415e-08 0)
(0.0014918926 2.0774357e-08 0)
(0.0014516176 1.9113974e-08 0)
(0.0014139955 1.7645118e-08 0)
(0.0013787275 1.6339081e-08 0)
(0.0013455604 1.5171573e-08 0)
(0.0013142773 1.41227e-08 0)
(0.001284692 1.3176225e-08 0)
(0.0012566425 1.2319023e-08 0)
(0.0012299865 1.153986e-08 0)
(0.0012045996 1.0829192e-08 0)
(0.001180372 1.0178884e-08 0)
(0.0011572067 9.5818068e-09 0)
(0.0011350185 9.0321105e-09 0)
(0.00111373 8.5249374e-09 0)
(0.001093272 8.0558589e-09 0)
(0.0010735825 7.6209673e-09 0)
(0.0010546052 7.2169554e-09 0)
(0.0010362895 6.840825e-09 0)
(0.0010185894 6.4898308e-09 0)
(0.0010014636 6.1617506e-09 0)
(0.00098487384 5.8547082e-09 0)
(0.00096878483 5.5668773e-09 0)
(0.00095316445 5.2966013e-09 0)
(0.00093798319 5.0424523e-09 0)
(0.00092321375 4.8031638e-09 0)
(0.00090883081 4.5775032e-09 0)
(0.00089481144 4.3643276e-09 0)
(0.00088113452 4.1627824e-09 0)
(0.00086777976 3.9721148e-09 0)
(0.00085472825 3.7915065e-09 0)
(0.00084196261 3.6202258e-09 0)
(0.00082946645 3.4576348e-09 0)
(0.00081722451 3.3031576e-09 0)
(0.00080522231 3.156264e-09 0)
(0.00079344629 3.0163572e-09 0)
(0.00078188442 2.8829807e-09 0)
(0.00077052473 2.7558583e-09 0)
(0.00075935547 2.6346032e-09 0)
(0.00074836594 2.5188103e-09 0)
(0.00073754596 2.4081671e-09 0)
(0.00072688579 2.3023794e-09 0)
(0.00071637613 2.2011773e-09 0)
(0.00070600805 2.1042753e-09 0)
(0.00069577332 2.0113898e-09 0)
(0.00068566419 1.9223435e-09 0)
(0.00067567269 1.8369829e-09 0)
(0.00066579115 1.7550929e-09 0)
(0.00065601237 1.6764821e-09 0)
(0.00064632928 1.6009893e-09 0)
(0.00063673509 1.5284645e-09 0)
(0.00062722306 1.458766e-09 0)
(0.00061778668 1.3917158e-09 0)
(0.00060842006 1.3271898e-09 0)
(0.00059911697 1.2651241e-09 0)
(0.000589871 1.2054002e-09 0)
(0.00058067616 1.1478966e-09 0)
(0.0005715264 1.0925216e-09 0)
(0.00056241573 1.0391869e-09 0)
(0.00055333808 9.8780615e-10 0)
(0.00054428745 9.3827771e-10 0)
(0.0005352581 8.9053134e-10 0)
(0.00052624383 8.4452253e-10 0)
(0.00051723825 8.0018105e-10 0)
(0.00050823496 7.5743792e-10 0)
(0.00049922737 7.1624325e-10 0)
(0.0004902085 6.7654092e-10 0)
(0.00048117129 6.3826928e-10 0)
(0.00047210845 6.0147617e-10 0)
(0.00046300925 5.6587603e-10 0)
(0.00045387322 5.3139082e-10 0)
(0.00044489629 4.991508e-10 0)
(0.00043634671 4.7012162e-10 0)
(0.00042828071 4.4388495e-10 0)
(0.00042065842 4.1975977e-10 0)
(0.00041344507 3.9761623e-10 0)
(0.0004066054 3.7737075e-10 0)
(0.00040010758 3.5883556e-10 0)
(0.000393923 3.4184696e-10 0)
(0.00038802561 3.2626314e-10 0)
(0.0003823918 3.1195116e-10 0)
(0.00037700024 2.9880211e-10 0)
(0.00037183116 2.8674386e-10 0)
(0.00036686577 2.7572239e-10 0)
(0.00036208623 2.6571799e-10 0)
(0.00035747443 2.5671824e-10 0)
(0.00035301298 2.4885555e-10 0)
(0.00034867908 2.4210112e-10 0)
(0.00034445637 2.3729437e-10 0)
(0.00034029238 2.3321576e-10 0)
(0.00033621387 2.3666445e-10 0)
(0.00033192802 2.279747e-10 0)
(0.00032814243 2.6008168e-10 0)
(0.0003227279 1.5327413e-10 0)
(1 2.4465433e-09 8.7521031e-25)
(0.99997432 6.4522891e-09 0)
(0.99993723 9.0342114e-09 0)
(0.99989621 1.1618003e-08 0)
(0.99984881 1.5222725e-08 0)
(0.99979405 1.9850267e-08 0)
(0.99973127 2.578472e-08 0)
(0.99965929 3.3531034e-08 0)
(0.99957649 4.3720014e-08 0)
(0.99948089 5.7177557e-08 0)
(0.99936998 7.5035861e-08 0)
(0.99924064 9.8931914e-08 0)
(0.99908865 1.31108e-07 0)
(0.99890865 1.7528632e-07 0)
(0.99869221 2.3583463e-07 0)
(0.99843024 3.2418404e-07 0)
(0.99809992 4.4481094e-07 0)
(0.99769264 6.539912e-07 0)
(0.99711192 9.014643e-07 0)
(0.99643198 1.5743447e-06 0)
(0.99507826 2.0871393e-06 0)
(0.99386034 5.1701357e-06 0)
(0.98907435 1.8647052e-06 0)
(0.99164226 0.00088116929 -2.8095869e-55)
(0.022519566 0.00088949575 2.8091837e-55)
(0.0088678711 7.0972186e-06 0)
(0.0063220101 1.5943611e-06 0)
(0.005187645 7.6633329e-07 0)
(0.004537432 4.6775121e-07 0)
(0.004088284 3.3045565e-07 0)
(0.0037535794 2.5014913e-07 0)
(0.0034893039 1.9858889e-07 0)
(0.0032734581 1.6247203e-07 0)
(0.0030925992 1.3607768e-07 0)
(0.0029378144 1.1612976e-07 0)
(0.002803165 1.0055084e-07 0)
(0.0026845225 8.8072813e-08 0)
(0.0025788677 7.7892892e-08 0)
(0.0024839156 6.9462768e-08 0)
(0.0023979063 6.2384483e-08 0)
(0.0023194716 5.6368537e-08 0)
(0.0022475194 5.1211734e-08 0)
(0.0021811472 4.6744066e-08 0)
(0.0021196584 4.2842174e-08 0)
(0.0020624349 3.9418012e-08 0)
(0.0020089807 3.6388844e-08 0)
(0.0019588713 3.3695452e-08 0)
(0.0019117469 3.1287746e-08 0)
(0.0018672992 2.9124696e-08 0)
(0.0018252639 2.7172819e-08 0)
(0.0017854105 2.5405048e-08 0)
(0.001747537 2.3798211e-08 0)
(0.0017114668 2.2332631e-08 0)
(0.0016770436 2.0991528e-08 0)
(0.00164413 1.97602e-08 0)
(0.0016126043 1.8626584e-08 0)
(0.0015823572 1.7580662e-08 0)
(0.00155329 1.6613301e-08 0)
(0.0015253146 1.5716442e-08 0)
(0.0014983513 1.4883265e-08 0)
(0.0014723278 1.4107587e-08 0)
(0.001447179 1.3383746e-08 0)
(0.0014228462 1.270716e-08 0)
(0.001399275 1.2073959e-08 0)
(0.0013764153 1.1480377e-08 0)
(0.0013542214 1.0922998e-08 0)
(0.0013326514 1.0398877e-08 0)
(0.0013116665 9.9054016e-09 0)
(0.0012912308 9.4400307e-09 0)
(0.0012713117 9.0004072e-09 0)
(0.0012518791 8.5847687e-09 0)
(0.0012329042 8.1915623e-09 0)
(0.0012143602 7.8191006e-09 0)
(0.0011962223 7.4658751e-09 0)
(0.0011784674 7.1305697e-09 0)
(0.0011610736 6.8119971e-09 0)
(0.0011440205 6.5090638e-09 0)
(0.0011272887 6.2205392e-09 0)
(0.0011108612 5.9454819e-09 0)
(0.0010947209 5.683322e-09 0)
(0.0010788512 5.4332618e-09 0)
(0.0010632369 5.1944664e-09 0)
(0.0010478635 4.9662908e-09 0)
(0.0010327171 4.7481285e-09 0)
(0.0010177846 4.5394228e-09 0)
(0.0010030532 4.339585e-09 0)
(0.00098851131 4.1480305e-09 0)
(0.00097414786 3.9643934e-09 0)
(0.00095995156 3.7883571e-09 0)
(0.00094591147 3.619478e-09 0)
(0.00093201738 3.4573614e-09 0)
(0.00091825927 3.301675e-09 0)
(0.00090462745 3.1521094e-09 0)
(0.00089111237 3.0083724e-09 0)
(0.00087770476 2.870097e-09 0)
(0.00086439629 2.737027e-09 0)
(0.00085117807 2.6090309e-09 0)
(0.00083804101 2.4858639e-09 0)
(0.00082497658 2.3672762e-09 0)
(0.00081197621 2.2530779e-09 0)
(0.00079903139 2.1430873e-09 0)
(0.00078613347 2.0371263e-09 0)
(0.00077327393 1.9349853e-09 0)
(0.00076044463 1.8365194e-09 0)
(0.00074763677 1.7416368e-09 0)
(0.00073484123 1.6501926e-09 0)
(0.00072204895 1.5620447e-09 0)
(0.00070925056 1.4770901e-09 0)
(0.00069643614 1.3952131e-09 0)
(0.00068359566 1.3162866e-09 0)
(0.00067071875 1.2404092e-09 0)
(0.00065779018 1.1669921e-09 0)
(0.00064480927 1.0958749e-09 0)
(0.0006320544 1.0293877e-09 0)
(0.00061990673 9.6952135e-10 0)
(0.00060844614 9.1541405e-10 0)
(0.00059761599 8.6566183e-10 0)
(0.00058736687 8.1999588e-10 0)
(0.00057764867 7.7824441e-10 0)
(0.0005684162 7.4001999e-10 0)
(0.00055962876 7.04985e-10 0)
(0.00055124939 6.72847e-10 0)
(0.00054324451 6.4333185e-10 0)
(0.00053558383 6.1621493e-10 0)
(0.00052823926 5.9134748e-10 0)
(0.00052118411 5.6861811e-10 0)
(0.000514393 5.4798612e-10 0)
(0.00050784025 5.2942589e-10 0)
(0.0005015011 5.1321042e-10 0)
(0.00049534321 4.9928031e-10 0)
(0.00048934328 4.8936632e-10 0)
(0.00048342684 4.8095386e-10 0)
(0.00047763182 4.8806185e-10 0)
(0.00047154241 4.7087675e-10 0)
(0.00046616344 5.3648225e-10 0)
(0.00045847001 3.1641071e-10 0)
(1 3.2144843e-09 0)
(0.99997419 8.4788803e-09 0)
(0.99993689 1.1873178e-08 0)
(0.99989562 1.5269163e-08 0)
(0.99984794 2.0006503e-08 0)
(0.99979287 2.6087848e-08 0)
(0.99972973 3.3886394e-08 0)
(0.99965734 4.4065535e-08 0)
(0.99957407 5.7453998e-08 0)
(0.99947793 7.5136748e-08 0)
(0.99936642 9.8601067e-08 0)
(0.99923638 1.2999726e-07 0)
(0.99908357 1.7227058e-07 0)
(0.99890262 2.3031006e-07 0)
(0.99868507 3.0985201e-07 0)
(0.99842178 4.2591036e-07 0)
(0.99808983 5.843605e-07 0)
(0.99768059 8.5911464e-07 0)
(0.99709718 1.1841426e-06 0)
(0.99641416 2.0678315e-06 0)
(0.99505466 2.7413029e-06 0)
(0.99383148 6.7901243e-06 0)
(0.98902595 2.4524037e-06 0)
(0.99159759 0.001151091 0)
(0.02943018 0.001164498 0)
(0.011625992 1.2337692e-05 0)
(0.0082885747 2.7655161e-06 0)
(0.006801487 1.3288838e-06 0)
(0.0059489543 8.1116373e-07 0)
(0.0053600672 5.7306472e-07 0)
(0.0049212251 4.3379913e-07 0)
(0.0045747296 3.4438329e-07 0)
(0.0042917316 2.8175081e-07 0)
(0.0040546056 2.3597844e-07 0)
(0.0038516667 2.0138525e-07 0)
(0.0036751279 1.7436886e-07 0)
(0.003519576 1.5273005e-07 0)
(0.0033810524 1.3507658e-07 0)
(0.0032565613 1.2045753e-07 0)
(0.003143795 1.0818279e-07 0)
(0.0030409599 9.7750375e-08 0)
(0.0029466238 8.8807731e-08 0)
(0.0028596038 8.1060196e-08 0)
(0.0027789862 7.4293878e-08 0)
(0.0027039609 6.8355914e-08 0)
(0.0026338774 6.3102953e-08 0)
(0.0025681792 5.843227e-08 0)
(0.0025063946 5.4257003e-08 0)
(0.0024481194 5.0506005e-08 0)
(0.0023930071 4.7121207e-08 0)
(0.0023407554 4.4055672e-08 0)
(0.0022910996 4.1269216e-08 0)
(0.002243808 3.8727715e-08 0)
(0.0021986758 3.6402075e-08 0)
(0.0021555227 3.4266798e-08 0)
(0.0021141895 3.2300968e-08 0)
(0.0020745324 3.0487209e-08 0)
(0.0020364223 2.8809683e-08 0)
(0.0019997436 2.7254417e-08 0)
(0.001964392 2.5809583e-08 0)
(0.0019302724 2.4464458e-08 0)
(0.0018972997 2.3209227e-08 0)
(0.0018653969 2.2035942e-08 0)
(0.0018344926 2.093789e-08 0)
(0.001804521 1.9908543e-08 0)
(0.0017754225 1.8941976e-08 0)
(0.0017471419 1.8033082e-08 0)
(0.0017196284 1.7177332e-08 0)
(0.0016928349 1.6370319e-08 0)
(0.0016667187 1.5607955e-08 0)
(0.0016412404 1.4887184e-08 0)
(0.0016163623 1.4205312e-08 0)
(0.001592049 1.3559415e-08 0)
(0.0015682682 1.2946875e-08 0)
(0.0015449894 1.2365411e-08 0)
(0.0015221842 1.1812964e-08 0)
(0.0014998256 1.1287637e-08 0)
(0.0014778883 1.0787297e-08 0)
(0.00145635 1.0310311e-08 0)
(0.0014351882 9.8556903e-09 0)
(0.0014143812 9.4220521e-09 0)
(0.001393909 9.0079483e-09 0)
(0.0013737526 8.6122608e-09 0)
(0.0013538939 8.2339376e-09 0)
(0.0013343156 7.8720132e-09 0)
(0.001315001 7.5254669e-09 0)
(0.0012959348 7.1932851e-09 0)
(0.0012771026 6.874833e-09 0)
(0.0012584896 6.5695615e-09 0)
(0.0012400813 6.2767015e-09 0)
(0.0012218645 5.9955687e-09 0)
(0.0012038259 5.7255866e-09 0)
(0.0011859529 5.4662188e-09 0)
(0.001168233 5.2169586e-09 0)
(0.001150654 4.9771694e-09 0)
(0.0011332049 4.7464073e-09 0)
(0.0011158742 4.5244438e-09 0)
(0.0010986499 4.3108547e-09 0)
(0.0010815208 4.1052065e-09 0)
(0.0010644757 3.9071703e-09 0)
(0.0010475034 3.7164309e-09 0)
(0.0010305926 3.5326793e-09 0)
(0.0010137322 3.355552e-09 0)
(0.00099691133 3.184798e-09 0)
(0.0009801186 3.0202578e-09 0)
(0.00096334202 2.8616804e-09 0)
(0.00094656972 2.7088192e-09 0)
(0.00092978939 2.5614956e-09 0)
(0.00091298805 2.4195091e-09 0)
(0.00089615252 2.2826392e-09 0)
(0.00087926923 2.1510567e-09 0)
(0.00086231819 2.023741e-09 0)
(0.00084529851 1.9004144e-09 0)
(0.00082857518 1.7851169e-09 0)
(0.00081264794 1.6812998e-09 0)
(0.00079762156 1.5874699e-09 0)
(0.00078342174 1.501193e-09 0)
(0.00076998371 1.4220024e-09 0)
(0.00075724178 1.3495999e-09 0)
(0.00074513666 1.2833137e-09 0)
(0.00073361505 1.2225584e-09 0)
(0.00072262844 1.1668267e-09 0)
(0.00071213284 1.1156434e-09 0)
(0.00070208852 1.0686188e-09 0)
(0.00069245864 1.0254951e-09 0)
(0.00068320823 9.8607905e-10 0)
(0.00067430402 9.5030002e-10 0)
(0.00066571232 9.1811356e-10 0)
(0.00065740067 8.8999302e-10 0)
(0.00064932669 8.6583535e-10 0)
(0.00064145983 8.4864122e-10 0)
(0.00063370246 8.3405146e-10 0)
(0.00062610426 8.4636965e-10 0)
(0.00061812037 8.1683349e-10 0)
(0.00061106743 9.304757e-10 -5.1780039e-24)
(0.00060098 5.4871023e-10 3.4761366e-25)
(1 4.0352293e-09 0)
(0.99997403 1.0645704e-08 0)
(0.99993647 1.4909568e-08 0)
(0.99989492 1.9174399e-08 0)
(0.99984691 2.5123015e-08 0)
(0.99979145 3.2759006e-08 0)
(0.99972788 4.2550744e-08 0)
(0.99965499 5.5330934e-08 0)
(0.99957117 7.2139778e-08 0)
(0.99947439 9.4339013e-08 0)
(0.99936215 1.2379522e-07 0)
(0.99923126 1.6320697e-07 0)
(0.99907748 2.1627024e-07 0)
(0.99889541 2.8912014e-07 0)
(0.99867653 3.8895397e-07 0)
(0.99841165 5.3461133e-07 0)
(0.99807776 7.3345873e-07 0)
(0.99766619 1.0782386e-06 0)
(0.99707955 1.4860713e-06 0)
(0.99639287 2.5947953e-06 0)
(0.99502646 3.4397995e-06 0)
(0.99379702 8.5195839e-06 0)
(0.98896822 3.0820317e-06 0)
(0.99154428 0.0014358451 0)
(0.036726793 0.0014559215 0)
(0.0145571 1.9338462e-05 0)
(0.010378618 4.3537171e-06 0)
(0.008516732 2.0921857e-06 0)
(0.0074491452 1.2771697e-06 0)
(0.0067117318 9.0227757e-07 0)
(0.0061622019 6.830061e-07 0)
(0.005728317 5.4221979e-07 0)
(0.0053739448 4.4360653e-07 0)
(0.0050770144 3.7153869e-07 0)
(0.0048228943 3.1707214e-07 0)
(0.0046018333 2.7453547e-07 0)
(0.0044070522 2.404659e-07 0)
(0.0042335942 2.126712e-07 0)
(0.0040777076 1.8965413e-07 0)
(0.0039365027 1.7032812e-07 0)
(0.0038077337 1.5390286e-07 0)
(0.0036896067 1.3982302e-07 8.4322016e-25)
(0.0035806415 1.2762492e-07 0)
(0.0034796927 1.1697184e-07 -6.7701939e-35)
(0.0033857466 1.076228e-07 0)
(0.0032979887 9.9352305e-08 0)
(0.0032157219 9.1998579e-08 0)
(0.0031383556 8.5424861e-08 0)
(0.0030653838 7.9519131e-08 0)
(0.0029963724 7.4189965e-08 0)
(0.0029309431 6.9363457e-08 0)
(0.0028687643 6.4976342e-08 0)
(0.0028095458 6.0974895e-08 0)
(0.0027530314 5.7313308e-08 0)
(0.0026989951 5.3951438e-08 0)
(0.0026472376 5.0856352e-08 0)
(0.002597579 4.800069e-08 0)
(0.0025498575 4.535952e-08 0)
(0.0025039283 4.291084e-08 0)
(0.0024596608 4.0636028e-08 0)
(0.0024169362 3.8518204e-08 0)
(0.0023756476 3.6541911e-08 0)
(0.0023356987 3.4694637e-08 0)
(0.002297 3.2965815e-08 0)
(0.0022594694 3.1345162e-08 0)
(0.0022230319 2.9823353e-08 0)
(0.0021876187 2.8392347e-08 0)
(0.0021531661 2.7045012e-08 0)
(0.002119615 2.5774411e-08 0)
(0.002086912 2.4574107e-08 0)
(0.0020550077 2.343929e-08 0)
(0.0020238549 2.2365717e-08 0)
(0.0019934095 2.1348782e-08 0)
(0.0019636309 2.0384368e-08 0)
(0.0019344808 1.9468881e-08 0)
(0.0019059238 1.8599078e-08 0)
(0.0018779259 1.7771975e-08 0)
(0.0018504557 1.6984212e-08 0)
(0.0018234849 1.623322e-08 0)
(0.0017969858 1.551744e-08 0)
(0.0017709308 1.4834696e-08 0)
(0.0017452951 1.4182707e-08 0)
(0.0017200548 1.3559714e-08 0)
(0.0016951873 1.296406e-08 0)
(0.001670671 1.2394225e-08 0)
(0.0016464848 1.1848602e-08 0)
(0.0016226097 1.1325595e-08 0)
(0.0015990276 1.0824205e-08 0)
(0.0015757198 1.0343567e-08 0)
(0.0015526686 9.8824705e-09 0)
(0.001529857 9.4398375e-09 0)
(0.0015072686 9.0147608e-09 0)
(0.0014848876 8.6063958e-09 0)
(0.0014626982 8.2139446e-09 0)
(0.0014406853 7.8364052e-09 0)
(0.0014188351 7.4730787e-09 0)
(0.0013971331 7.123605e-09 0)
(0.0013755643 6.7873163e-09 0)
(0.0013541148 6.4635304e-09 0)
(0.0013327704 6.1517291e-09 0)
(0.0013115172 5.8514163e-09 0)
(0.001290341 5.5621055e-09 0)
(0.0012692278 5.2832246e-09 0)
(0.0012481642 5.014378e-09 0)
(0.0012271359 4.7553148e-09 0)
(0.0012061277 4.5056399e-09 0)
(0.0011851249 4.2649648e-09 0)
(0.001164112 4.0330086e-09 0)
(0.0011430728 3.8094554e-09 0)
(0.0011219907 3.5939583e-09 0)
(0.0011008489 3.386786e-09 0)
(0.0010796222 3.1863317e-09 0)
(0.0010583095 2.9921598e-09 0)
(0.0010373679 2.8106291e-09 0)
(0.0010174232 2.6471724e-09 0)
(0.00099860649 2.4994407e-09 0)
(0.00098082484 2.3636017e-09 0)
(0.0009639971 2.2389205e-09 0)
(0.000948041 2.1249263e-09 0)
(0.00093288233 2.020562e-09 0)
(0.00091845432 1.9249055e-09 0)
(0.00090469624 1.8371585e-09 0)
(0.00089155301 1.7565725e-09 0)
(0.00087897487 1.6825343e-09 0)
(0.00086691571 1.6146376e-09 0)
(0.00085533171 1.5525784e-09 0)
(0.00084418123 1.4962453e-09 0)
(0.00083342208 1.4455685e-09 0)
(0.00082301363 1.4012929e-09 0)
(0.00081290279 1.3632564e-09 0)
(0.00080305132 1.336182e-09 0)
(0.000793337 1.3132095e-09 0)
(0.00078382196 1.33259e-09 0)
(0.00077382432 1.286071e-09 0)
(0.00076499176 1.4651654e-09 0)
(0.00075235937 8.6375897e-10 -1.9839724e-25)
(1 4.922549e-09 0)
(0.99997384 1.2989434e-08 0)
(0.99993598 1.8195126e-08 0)
(0.99989409 2.3400325e-08 0)
(0.99984569 3.0659485e-08 0)
(0.99978977 3.9977367e-08 0)
(0.99972568 5.1925182e-08 0)
(0.99965222 6.7518634e-08 0)
(0.99956773 8.8026487e-08 0)
(0.99947019 1.1510956e-07 0)
(0.99935708 1.5104423e-07 0)
(0.9992252 1.9912139e-07 0)
(0.99907027 2.6384789e-07 0)
(0.99888686 3.527047e-07 0)
(0.9986664 4.7446653e-07 0)
(0.99839966 6.5210443e-07 0)
(0.99806346 8.9459177e-07 0)
(0.99764912 1.3150045e-06 0)
(0.99705867 1.8122526e-06 0)
(0.99636764 3.1639206e-06 0)
(0.99499309 4.1941286e-06 0)
(0.99375625 1.0386857e-05 0)
(0.98889998 3.7646709e-06 0)
(0.99148127 0.0017392469 0)
(0.044508537 0.001767919 0)
(0.017704817 2.856444e-05 0)
(0.012623273 6.4549403e-06 0)
(0.010358946 3.1021581e-06 0)
(0.0090603606 1.8938334e-06 0)
(0.0081634185 1.3379175e-06 0)
(0.007494999 1.0127757e-06 0)
(0.006967252 8.0400985e-07 0)
(0.0065362191 6.5778415e-07 0)
(0.0061750549 5.5091993e-07 0)
(0.0058659634 4.7015519e-07 0)
(0.0055970834 4.0708089e-07 0)
(0.0053601685 3.5656214e-07 0)
(0.0051491893 3.15348e-07 0)
(0.0049595826 2.8121822e-07 0)
(0.0047878336 2.525616e-07 0)
(0.0046312103 2.2820642e-07 0)
(0.0044875309 2.0732874e-07 0)
(0.0043549956 1.8924144e-07 0)
(0.0042322102 1.7344535e-07 7.3030306e-35)
(0.0041179423 1.5958259e-07 0)
(0.004011201 1.4731919e-07 0)
(0.0039111387 1.3641516e-07 0)
(0.0038170369 1.2666772e-07 0)
(0.00372828 1.1791077e-07 0)
(0.0036443402 1.1000875e-07 0)
(0.0035647573 1.0285206e-07 0)
(0.003489128 9.6346889e-08 0)
(0.0034170994 9.0413586e-08 0)
(0.0033483596 8.498422e-08 0)
(0.003282634 7.9999274e-08 0)
(0.0032196801 7.5409912e-08 0)
(0.003159279 7.1175563e-08 0)
(0.0031012341 6.7259258e-08 0)
(0.0030453692 6.3628377e-08 0)
(0.0029915254 6.0255302e-08 0)
(0.0029395582 5.7115007e-08 0)
(0.0028893376 5.4184575e-08 0)
(0.0028407465 5.1445449e-08 0)
(0.0027936761 4.888196e-08 0)
(0.0027480263 4.6478864e-08 0)
(0.0027037062 4.4222332e-08 0)
(0.0026606318 4.2100441e-08 0)
(0.0026187258 4.0102617e-08 0)
(0.0025779164 3.8218571e-08 0)
(0.0025381385 3.6438764e-08 0)
(0.0024993321 3.4756058e-08 0)
(0.0024614397 3.3164164e-08 0)
(0.0024244077 3.1656253e-08 0)
(0.0023881867 3.0226218e-08 0)
(0.0023527302 2.8868732e-08 0)
(0.002317995 2.7578987e-08 0)
(0.00228394 2.6352555e-08 0)
(0.0022505267 2.5184457e-08 0)
(0.002217721 2.4070883e-08 0)
(0.0021854888 2.3009521e-08 0)
(0.0021537969 2.1997143e-08 0)
(0.002122615 2.103037e-08 0)
(0.002091914 2.010659e-08 0)
(0.0020616665 1.922335e-08 0)
(0.002031846 1.8378393e-08 0)
(0.0020024271 1.7569338e-08 0)
(0.0019733866 1.6793818e-08 0)
(0.0019447025 1.6050352e-08 0)
(0.001916352 1.5337656e-08 0)
(0.0018883135 1.4653936e-08 0)
(0.0018605666 1.3997594e-08 0)
(0.0018330911 1.3367284e-08 0)
(0.0018058679 1.2761755e-08 0)
(0.0017788777 1.2179822e-08 0)
(0.0017521022 1.1620001e-08 0)
(0.0017255246 1.1081255e-08 0)
(0.0016991272 1.056305e-08 0)
(0.0016728918 1.0064395e-08 0)
(0.0016468015 9.5842798e-09 0)
(0.0016208391 9.1219353e-09 0)
(0.0015949875 8.676626e-09 0)
(0.0015692297 8.2476306e-09 0)
(0.0015435484 7.8341008e-09 0)
(0.0015179275 7.43545e-09 0)
(0.0014923494 7.0513061e-09 0)
(0.0014667959 6.6810832e-09 0)
(0.0014412488 6.3242055e-09 0)
(0.0014156895 5.9802562e-09 0)
(0.0013900982 5.6487672e-09 0)
(0.0013644548 5.3292239e-09 0)
(0.0013387386 5.0220248e-09 0)
(0.0013129191 4.7247879e-09 0)
(0.0012869951 4.4368686e-09 0)
(0.0012615223 4.1676938e-09 0)
(0.0012372621 3.9253174e-09 0)
(0.001214374 3.7062589e-09 0)
(0.0011927448 3.5048371e-09 0)
(0.0011722759 3.31996e-09 0)
(0.0011528672 3.1509296e-09 0)
(0.0011344284 2.9961781e-09 0)