/*--------------------------------*- C++ -*----------------------------------*\
  =========                 |
  \\      /  F ield         | OpenFOAM: The Open Source CFD Toolbox
   \\    /   O peration     | Website:  https://openfoam.org
    \\  /    A nd           | Version:  11
     \\/     M anipulation  |
\*---------------------------------------------------------------------------*/
FoamFile
{
    format      ascii;
    class       volScalarField;
    location    "0";
    object      yPlus;
}
// * * * * * * * * * * * * * * * * * * * * * * * * * * * * * * * * * * * * * //

dimensions      [0 0 0 0 0 0 0];

internalField   uniform 0;

boundaryField
{
    inlet
    {
        type            calculated;
        value           uniform 0;
    }
    top
    {
        type            calculated;
        value           uniform 0;
    }
    outlet
    {
        type            calculated;
        value           uniform 0;
    }
    slipsurface
    {
        type            calculated;
        value           uniform 0;
    }
    bottom
    {
        type            calculated;
        value           nonuniform List<scalar> 
100
(
13.438706
13.438706
13.438706
13.438706
13.438706
13.438706
13.438706
13.438706
13.438706
13.438706
13.438706
13.438706
13.438706
13.438706
13.438706
13.438706
13.438706
13.438706
13.438706
13.438706
13.438706
13.438706
13.438706
13.438706
13.438706
13.438706
13.438706
13.438706
13.438706
13.438706
13.438706
13.438706
13.438706
13.438706
13.438706
13.438706
13.438706
13.438706
13.438706
13.438706
13.438706
13.438706
13.438706
13.438706
13.438706
13.438706
13.438706
13.438706
13.438706
13.438706
13.438706
13.438706
13.438706
13.438706
13.438706
13.438706
13.438706
13.438706
13.438706
13.438706
13.438706
13.438706
13.438706
13.438706
13.438706
13.438706
13.438706
13.438706
13.438706
13.438706
13.438706
13.438706
13.438706
13.438706
13.438706
13.438706
13.438706
13.438706
13.438706
13.438706
13.438706
13.438706
13.438706
13.438706
13.438706
13.438706
13.438706
13.438706
13.438706
13.438706
13.438706
13.438706
13.438706
13.438706
13.438706
13.438706
13.438706
13.438706
13.438706
13.438706
)
;
    }
    frontandback
    {
        type            empty;
    }
}


// ************************************************************************* //
