# Wall shear stress
# Time          	patch           	min             	max             
0               	bottom	(-1.49651759e+01 -2.21014787e-09 0.00000000e+00)	(-1.49651759e+01 2.21014787e-09 0.00000000e+00)
