0 	1.9175792e-07 	0.013627212 	0.99975728 	0 	0 	0 	0 	0
0.0021021021 	1.9162518e-07 	0.013731456 	0.99974913 	0 	0 	0 	0 	0
0.0042042042 	1.9149245e-07 	0.013835699 	0.99974098 	0 	0 	0 	0 	0
0.0063063063 	1.9135971e-07 	0.013939943 	0.99973283 	0 	0 	0 	0 	0
0.0084084084 	1.9122698e-07 	0.014044186 	0.99972468 	0 	0 	0 	0 	0
0.010510511 	1.9107299e-07 	0.014164385 	0.99971493 	0 	0 	0 	0 	0
0.012612613 	1.909058e-07 	0.014294493 	0.99970418 	0 	0 	0 	0 	0
0.014714715 	1.9073861e-07 	0.014424601 	0.99969343 	0 	0 	0 	0 	0
0.016816817 	1.9057142e-07 	0.01455471 	0.99968268 	0 	0 	0 	0 	0
0.018918919 	1.9040423e-07 	0.014684818 	0.99967194 	0 	0 	0 	0 	0
0.021021021 	1.9023179e-07 	0.014819093 	0.99966074 	0 	0 	0 	0 	0
0.023123123 	1.9002406e-07 	0.01498138 	0.99964649 	0 	0 	0 	0 	0
0.025225225 	1.8981632e-07 	0.015143666 	0.99963224 	0 	0 	0 	0 	0
0.027327327 	1.8960858e-07 	0.015305953 	0.999618 	0 	0 	0 	0 	0
0.029429429 	1.8940085e-07 	0.01546824 	0.99960375 	0 	0 	0 	0 	0
0.031531532 	1.8918125e-07 	0.015640833 	0.99958829 	0 	0 	0 	0 	0
0.033633634 	1.8892702e-07 	0.015843531 	0.9995693 	0 	0 	0 	0 	0
0.035735736 	1.8867278e-07 	0.016046229 	0.99955031 	0 	0 	0 	0 	0
0.037837838 	1.8841855e-07 	0.016248927 	0.99953132 	0 	0 	0 	0 	0
0.03993994 	1.8816431e-07 	0.016451624 	0.99951233 	0 	0 	0 	0 	0
0.042042042 	1.8786293e-07 	0.016701207 	0.99948735 	0 	0 	0 	0 	0
0.044144144 	1.8755712e-07 	0.016955184 	0.9994618 	0 	0 	0 	0 	0
0.046246246 	1.8725131e-07 	0.01720916 	0.99943626 	0 	0 	0 	0 	0
0.048348348 	1.869435e-07 	0.017465566 	0.99941039 	0 	0 	0 	0 	0
0.05045045 	1.8658296e-07 	0.01778574 	0.99937576 	0 	0 	0 	0 	0
0.052552553 	1.8622242e-07 	0.018105915 	0.99934113 	0 	0 	0 	0 	0
0.054654655 	1.8586188e-07 	0.018426089 	0.9993065 	0 	0 	0 	0 	0
0.056756757 	1.8547082e-07 	0.018794642 	0.99926445 	0 	-3.0509402e-38 	0 	0 	0
0.058858859 	1.8505569e-07 	0.019201337 	0.99921655 	0 	-8.5071911e-38 	0 	0 	0
0.060960961 	1.8464056e-07 	0.019608032 	0.99916866 	0 	-1.3963442e-37 	0 	0 	0
0.063063063 	1.8420427e-07 	0.020064865 	0.99911284 	0 	-1.7099825e-37 	0 	0 	0
0.065165165 	1.8373936e-07 	0.020589485 	0.99904631 	0 	-1.7099804e-37 	0 	0 	0
0.067267267 	1.8327444e-07 	0.021114104 	0.99897979 	0 	-1.7099784e-37 	0 	0 	0
0.069369369 	1.8278767e-07 	0.021731829 	0.99889469 	0 	-1.3252984e-37 	0 	0 	0
0.071471471 	1.822853e-07 	0.022415938 	0.99879634 	0 	-6.6634845e-38 	0 	0 	0
0.073573574 	1.8178294e-07 	0.023100046 	0.99869799 	0 	-7.3985133e-40 	0 	0 	0
0.075675676 	1.8125837e-07 	0.024029659 	0.9985598 	0 	0 	0 	0 	0
0.077777778 	1.8073355e-07 	0.02496206 	0.99842116 	0 	0 	0 	0 	0
0.07987988 	1.8022913e-07 	0.026089433 	0.99821951 	0 	0 	0 	0 	0
0.081981982 	1.7973841e-07 	0.027347889 	0.99797548 	0 	0 	0 	0 	0
0.084084084 	1.7921872e-07 	0.028878978 	0.99769937 	0 	0 	0 	0 	0
0.086186186 	1.786502e-07 	0.030869316 	0.99736921 	0 	0 	0 	0 	0
0.088288288 	1.7815274e-07 	0.033026896 	0.99690419 	0 	0 	0 	0 	0
0.09039039 	1.7784151e-07 	0.035622745 	0.99608576 	0 	0 	0 	0 	0
0.092492492 	1.6520492e-07 	0.041638404 	0.99540712 	0 	0 	0 	0 	0
0.094594595 	1.2006811e-07 	0.056671622 	0.99509708 	0 	0 	0 	0 	0
0.096696697 	7.4447314e-08 	0.067495842 	0.90727112 	0 	0 	-0.0042555469 	-0.00022023317 	0
0.098798799 	2.787116e-08 	0.070011943 	0.64669785 	0 	0 	-0.0169111 	-0.00087518364 	0
0.1009009 	9.741221e-10 	0.057268892 	0.3860142 	0 	0 	-0.026264446 	-0.0012589428 	0
0.103003 	3.1590517e-10 	0.024180305 	0.12518336 	0 	0 	-0.031214852 	-0.0012811135 	0
0.10510511 	0 	0.00079834792 	0 	0 	0 	-0.028840161 	-0.00095417719 	0
0.10720721 	0 	-0.013625767 	0 	0 	0 	-0.019705445 	-0.00030506458 	0
0.10930931 	0 	-0.0146454 	0 	0 	0 	-0.014809622 	-2.9956377e-05 	0
0.11141141 	0 	-0.0065832836 	0 	0 	0 	-0.012785716 	-8.2421068e-06 	0
0.11351351 	0 	-0.0028094727 	0 	0 	0 	-0.011538844 	-6.1695272e-07 	0
0.11561562 	0 	-0.0012829528 	0 	0 	0 	-0.010699177 	-3.7521421e-07 	0
0.11771772 	0 	-0.00037053783 	0 	0 	0 	-0.010091569 	-2.64644e-07 	0
0.11981982 	0 	0.00027808114 	0 	0 	0 	-0.0095836448 	-2.1041866e-07 	0
0.12192192 	0 	0.00065559381 	0 	0 	0 	-0.0091815441 	-1.766097e-07 	0
0.12402402 	0 	0.0009305747 	0 	0 	0 	-0.0088194657 	-1.5052216e-07 	0
0.12612613 	0 	0.0011357923 	0 	0 	0 	-0.0085171716 	-1.3228507e-07 	0
0.12822823 	0 	0.0013156885 	0 	0 	0 	-0.008236577 	-1.168974e-07 	0
0.13033033 	0 	0.0014447029 	0 	0 	0 	-0.0079971672 	-1.0492737e-07 	0
0.13243243 	0 	0.0015542395 	0 	0 	0 	-0.0077735233 	-9.4265639e-08 	0
0.13453453 	0 	0.0016382115 	0 	0 	0 	-0.0075775531 	-8.5734297e-08 	0
0.13663664 	0 	0.0017108742 	0 	0 	0 	-0.0073938251 	-7.8145401e-08 	0
0.13873874 	0 	0.0017680528 	0 	0 	0 	-0.0072292147 	-7.1796809e-08 	0
0.14084084 	0 	0.001816648 	0 	0 	0 	-0.0070752016 	-6.6135752e-08 	0
0.14294294 	0 	0.0018565657 	0 	0 	0 	-0.0069342205 	-6.1228497e-08 	0
0.14504505 	0 	0.0018900068 	0 	0 	0 	-0.0068029658 	-5.6883845e-08 	0
0.14714715 	0 	0.0019185992 	0 	0 	0 	-0.0066803248 	-5.2984783e-08 	0
0.14924925 	0 	0.001941945 	0 	0 	0 	-0.0065670042 	-4.9567869e-08 	0
0.15135135 	0 	0.0019627393 	0 	0 	0 	-0.0064589527 	-4.6410488e-08 	0
0.15345345 	0 	0.001979106 	0 	0 	0 	-0.0063600444 	-4.3703462e-08 	0
0.15555556 	0 	0.0019943874 	0 	0 	0 	-0.0062638231 	-4.1489082e-08 	0
0.15765766 	0 	0.0020059876 	0 	0 	0 	-0.0061767158 	-4.0945666e-08 	0
0.15975976 	0 	0.0020173408 	0 	0 	0 	-0.0060902539 	-4.0675278e-08 	0
0.16186186 	0 	0.0020251848 	0 	0 	0 	-0.0060129637 	-4.4284621e-08 	0
0.16396396 	0 	0.0020330287 	0 	0 	0 	-0.0059356736 	-4.7893964e-08 	0
0.16606607 	0 	0.0020386346 	0 	0 	0 	-0.005865619 	-4.7116584e-08 	-4.6131885e-38
0.16816817 	0 	0.0020439321 	0 	0 	0 	-0.0057965616 	-4.5734576e-08 	-9.8622191e-38
0.17027027 	0 	0.0020481708 	0 	0 	0 	-0.0057321627 	-4.1602296e-08 	-1.1614661e-37
0.17237237 	0 	0.0020518789 	0 	0 	0 	-0.0056700987 	-3.609162e-08 	-1.1614662e-37
0.17447447 	0 	0.0020549109 	0 	0 	0 	-0.0056106028 	-3.1841811e-08 	-9.4291675e-38
0.17657658 	0 	0.0020570342 	0 	0 	0 	-0.0055545587 	-2.9286564e-08 	-4.3064394e-38
0.17867868 	0 	0.0020589301 	0 	0 	0 	-0.0054993436 	-2.6854414e-08 	0
0.18078078 	0 	0.0020596259 	0 	0 	0 	-0.0054485029 	-2.5071678e-08 	0
0.18288288 	0 	0.0020603216 	0 	0 	0 	-0.0053976623 	-2.3288942e-08 	0
0.18498498 	0 	0.0020602221 	0 	0 	0 	-0.0053507243 	-2.2095412e-08 	0
0.18708709 	0 	0.0020599965 	0 	0 	0 	-0.0053044045 	-2.0995195e-08 	0
0.18918919 	0 	0.0020594315 	0 	0 	0 	-0.0052602218 	-1.9978409e-08 	0
0.19129129 	0 	0.0020585742 	0 	0 	0 	-0.0052178789 	-1.9033447e-08 	0
0.19339339 	0 	0.0020576044 	0 	0 	0 	-0.0051761723 	-1.8132884e-08 	0
0.1954955 	0 	0.0020561241 	0 	0 	0 	-0.0051373542 	-1.7433845e-08 	0
0.1975976 	0 	0.0020546438 	0 	0 	0 	-0.005098536 	-1.6734806e-08 	0
0.1996997 	0 	0.0020527116 	0 	0 	0 	-0.0050621904 	-1.6155898e-08 	0
0.2018018 	0 	0.0020506604 	0 	0 	0 	-0.0050264956 	-1.5608612e-08 	0
0.2039039 	0 	0.0020484643 	0 	0 	0 	-0.0049918271 	-1.5105149e-08 	0
0.20600601 	0 	0.002046021 	0 	0 	0 	-0.0049589101 	-1.4676477e-08 	0
0.20810811 	0 	0.0020435776 	0 	0 	0 	-0.0049259931 	-1.4247804e-08 	0
0.21021021 	0 	0.002040901 	0 	0 	0 	-0.0048953496 	-1.3794462e-08 	0
0.21231231 	0 	0.0020382022 	0 	0 	0 	-0.0048649233 	-1.3338763e-08 	0
0.21441441 	0 	0.0020354242 	0 	0 	0 	-0.0048354431 	-1.2917386e-08 	0
0.21651652 	0 	0.0020325369 	0 	0 	0 	-0.0048072673 	-1.2543329e-08 	0
0.21861862 	0 	0.0020296496 	0 	0 	0 	-0.0047790914 	-1.2169272e-08 	0
0.22072072 	0 	0.0020265615 	0 	0 	0 	-0.0047527339 	-1.1827377e-08 	0
0.22282282 	0 	0.0020234489 	0 	0 	0 	-0.0047265992 	-1.1489421e-08 	0
0.22492492 	0 	0.0020202587 	0 	0 	0 	-0.004701061 	-1.1162015e-08 	0
0.22702703 	0 	0.0020169058 	0 	0 	0 	-0.004676774 	-1.0856732e-08 	0
0.22912913 	0 	0.0020135529 	0 	0 	0 	-0.0046524869 	-1.0551449e-08 	0
0.23123123 	0 	0.002010086 	0 	0 	0 	-0.004629398 	-1.0286867e-08 	0
0.23333333 	0 	0.0020065737 	0 	0 	0 	-0.0046067869 	-1.0038516e-08 	0
0.23543544 	0 	0.0020030551 	0 	0 	0 	-0.0045842759 	-9.7911139e-09 	0
0.23753754 	0 	0.0019994474 	0 	0 	0 	-0.0045631943 	-9.5572345e-09 	0
0.23963964 	0 	0.0019958397 	0 	0 	0 	-0.0045421126 	-9.3233551e-09 	0
0.24174174 	0 	0.0019922092 	0 	0 	0 	-0.0045215538 	-9.0855364e-09 	0
0.24384384 	0 	0.0019885406 	0 	0 	0 	-0.004501874 	-8.841097e-09 	0
0.24594595 	0 	0.001984872 	0 	0 	0 	-0.0044821943 	-8.5966576e-09 	0
0.24804805 	0 	0.0019811757 	0 	0 	0 	-0.0044633354 	-8.377662e-09 	0
0.25015015 	0 	0.0019774634 	0 	0 	0 	-0.0044449466 	-8.1732346e-09 	0
0.25225225 	0 	0.0019737512 	0 	0 	0 	-0.0044265579 	-7.9688073e-09 	0
0.25435435 	0 	0.0019699765 	0 	0 	0 	-0.0044091848 	-7.7867719e-09 	0
0.25645646 	0 	0.001966191 	0 	0 	0 	-0.0043919876 	-7.6086153e-09 	0
0.25855856 	0 	0.0019624036 	0 	0 	0 	-0.004374813 	-7.4302442e-09 	0
0.26066066 	0 	0.0019585309 	0 	0 	0 	-0.0043587137 	-7.2416726e-09 	0
0.26276276 	0 	0.0019546581 	0 	0 	0 	-0.0043426144 	-7.053101e-09 	0
0.26486486 	0 	0.0019507772 	0 	0 	0 	-0.0043266556 	-6.8719742e-09 	0
0.26696697 	0 	0.0019468458 	0 	0 	0 	-0.0043115689 	-6.7370667e-09 	0
0.26906907 	0 	0.0019429145 	0 	0 	0 	-0.0042964822 	-6.6021591e-09 	0
0.27117117 	0 	0.0019389761 	0 	0 	0 	-0.0042815875 	-6.4745282e-09 	0
0.27327327 	0 	0.0019350106 	0 	0 	0 	-0.0042674386 	-6.3751544e-09 	0
0.27537538 	0 	0.0019310451 	0 	0 	0 	-0.0042532896 	-6.2757805e-09 	0
0.27747748 	0 	0.0019270754 	0 	0 	0 	-0.0042393293 	-6.1684674e-09 	0
0.27957958 	0 	0.0019230906 	0 	0 	0 	-0.004226051 	-6.0324533e-09 	0
0.28168168 	0 	0.0019191057 	0 	0 	0 	-0.0042127727 	-5.8964392e-09 	0
0.28378378 	0 	0.0019151205 	0 	0 	0 	-0.0041996341 	-5.7624625e-09 	0
0.28588589 	0 	0.0019111337 	0 	0 	0 	-0.0041871663 	-5.6382769e-09 	0
0.28798799 	0 	0.0019071469 	0 	0 	0 	-0.0041746985 	-5.5140912e-09 	0
0.29009009 	0 	0.0019031602 	0 	0 	0 	-0.0041622831 	-5.3915325e-09 	0
0.29219219 	0 	0.0018991746 	0 	0 	0 	-0.0041505728 	-5.2908531e-09 	0
0.29429429 	0 	0.001895189 	0 	0 	0 	-0.0041388625 	-5.1901737e-09 	0
0.2963964 	0 	0.0018912035 	0 	0 	0 	-0.0041271522 	-5.0894944e-09 	0
0.2984985 	0 	0.0018871962 	0 	0 	0 	-0.0041160835 	-4.9881927e-09 	0
0.3006006 	0 	0.0018831866 	0 	0 	0 	-0.0041050821 	-4.8868259e-09 	0
0.3027027 	0 	0.001879177 	0 	0 	0 	-0.0040940807 	-4.7854591e-09 	0
0.3048048 	0 	0.001875142 	0 	0 	0 	-0.0040835276 	-4.7070742e-09 	0
0.30690691 	0 	0.0018710949 	0 	0 	0 	-0.004073188 	-4.6396238e-09 	0
0.30900901 	0 	0.0018670477 	0 	0 	0 	-0.0040628483 	-4.5721733e-09 	0
0.31111111 	0 	0.0018629907 	0 	0 	0 	-0.0040527461 	-4.5119383e-09 	0
0.31321321 	0 	0.0018589179 	0 	0 	0 	-0.0040430248 	-4.4632843e-09 	0
0.31531532 	0 	0.0018548452 	0 	0 	0 	-0.0040333036 	-4.4146302e-09 	0
0.31741742 	0 	0.001850772 	0 	0 	0 	-0.0040235946 	-4.364886e-09 	0
0.31951952 	0 	0.00184668 	0 	0 	0 	-0.0040144531 	-4.2647665e-09 	0
0.32162162 	0 	0.001842588 	0 	0 	0 	-0.0040053117 	-4.1646469e-09 	0
0.32372372 	0 	0.001838496 	0 	0 	0 	-0.0039961703 	-4.0645274e-09 	0
0.32582583 	0 	0.0018343943 	0 	0 	0 	-0.0039873482 	-3.966205e-09 	0
0.32792793 	0 	0.0018302857 	0 	0 	0 	-0.0039787513 	-3.8691491e-09 	0
0.33003003 	0 	0.0018261771 	0 	0 	0 	-0.0039701543 	-3.7720933e-09 	0
0.33213213 	0 	0.001822068 	0 	0 	0 	-0.0039615968 	-3.6780977e-09 	0
0.33423423 	0 	0.0018179525 	0 	0 	0 	-0.0039535118 	-3.620764e-09 	0
0.33633634 	0 	0.001813837 	0 	0 	0 	-0.0039454267 	-3.5634304e-09 	0
0.33843844 	0 	0.0018097215 	0 	0 	0 	-0.0039373417 	-3.5060967e-09 	0
0.34054054 	0 	0.0018056063 	0 	0 	0 	-0.0039294928 	-3.4499089e-09 	0
0.34264264 	0 	0.0018014914 	0 	0 	0 	-0.0039218905 	-3.3949172e-09 	0
0.34474474 	0 	0.0017973765 	0 	0 	0 	-0.0039142881 	-3.3399256e-09 	0
0.34684685 	0 	0.0017932617 	0 	0 	0 	-0.0039066857 	-3.284934e-09 	0
0.34894895 	0 	0.0017891465 	0 	0 	0 	-0.0038994577 	-3.2422537e-09 	0
0.35105105 	0 	0.0017850312 	0 	0 	0 	-0.003892312 	-3.2022806e-09 	0
0.35315315 	0 	0.0017809159 	0 	0 	0 	-0.0038851663 	-3.1623075e-09 	0
0.35525526 	0 	0.0017767998 	0 	0 	0 	-0.0038780487 	-3.1216998e-09 	0
0.35735736 	0 	0.0017726715 	0 	0 	0 	-0.003871335 	-3.0719513e-09 	0
0.35945946 	0 	0.0017685431 	0 	0 	0 	-0.0038646214 	-3.0222027e-09 	0
0.36156156 	0 	0.0017644148 	0 	0 	0 	-0.0038579078 	-2.9724541e-09 	0
0.36366366 	0 	0.0017602832 	0 	0 	0 	-0.0038512843 	-2.923514e-09 	0
0.36576577 	0 	0.0017561401 	0 	0 	0 	-0.0038449788 	-2.877425e-09 	0
0.36786787 	0 	0.001751997 	0 	0 	0 	-0.0038386733 	-2.8313361e-09 	0
0.36996997 	0 	0.0017478539 	0 	0 	0 	-0.0038323678 	-2.7852471e-09 	0
0.37207207 	0 	0.0017437108 	0 	0 	0 	-0.0038261719 	-2.74569e-09 	0
0.37417417 	0 	0.0017395674 	0 	0 	0 	-0.0038202528 	-2.722626e-09 	0
0.37627628 	0 	0.0017354241 	0 	0 	0 	-0.0038143337 	-2.699562e-09 	0
0.37837838 	0 	0.0017312807 	0 	0 	0 	-0.0038084146 	-2.6764979e-09 	0
0.38048048 	0 	0.0017271392 	0 	0 	0 	-0.0038025869 	-2.6498836e-09 	0
0.38258258 	0 	0.001723003 	0 	0 	0 	-0.0037970346 	-2.612555e-09 	0
0.38468468 	0 	0.0017188669 	0 	0 	0 	-0.0037914824 	-2.5752263e-09 	0
0.38678679 	0 	0.0017147307 	0 	0 	0 	-0.0037859301 	-2.5378977e-09 	0
0.38888889 	0 	0.0017105964 	0 	0 	0 	-0.0037804169 	-2.500476e-09 	0
0.39099099 	0 	0.0017064762 	0 	0 	0 	-0.0037752131 	-2.4623159e-09 	0
0.39309309 	0 	0.001702356 	0 	0 	0 	-0.0037700094 	-2.4241559e-09 	0
0.3951952 	0 	0.0016982359 	0 	0 	0 	-0.0037648057 	-2.3859958e-09 	0
0.3972973 	0 	0.0016941157 	0 	0 	0 	-0.0037596019 	-2.3478358e-09 	0
0.3993994 	0 	0.0016900249 	0 	0 	0 	-0.003754686 	-2.3108347e-09 	0
0.4015015 	0 	0.0016859386 	0 	0 	0 	-0.0037498138 	-2.2740097e-09 	0
0.4036036 	0 	0.0016818523 	0 	0 	0 	-0.0037449416 	-2.2371847e-09 	0
0.40570571 	0 	0.001677766 	0 	0 	0 	-0.0037400694 	-2.2003598e-09 	0
0.40780781 	0 	0.0016737107 	0 	0 	0 	-0.0037353592 	-2.1671238e-09 	0
0.40990991 	0 	0.0016696849 	0 	0 	0 	-0.0037308035 	-2.1373081e-09 	0
0.41201201 	0 	0.0016656592 	0 	0 	0 	-0.0037262477 	-2.1074924e-09 	0
0.41411411 	0 	0.0016616335 	0 	0 	0 	-0.003721692 	-2.0776767e-09 	0
0.41621622 	0 	0.001657611 	0 	0 	0 	-0.0037171479 	-2.0481131e-09 	0
0.41831832 	0 	0.001653671 	0 	0 	0 	-0.003712896 	-2.0248646e-09 	0
0.42042042 	0 	0.001649731 	0 	0 	0 	-0.0037086441 	-2.0016162e-09 	0
0.42252252 	0 	0.001645791 	0 	0 	0 	-0.0037043922 	-1.9783677e-09 	0
0.42462462 	0 	0.001641851 	0 	0 	0 	-0.0037001403 	-1.9551192e-09 	0
0.42672673 	0 	0.0016379532 	0 	0 	0 	-0.0036960175 	-1.9259739e-09 	0
0.42882883 	0 	0.0016341089 	0 	0 	0 	-0.003692058 	-1.8893627e-09 	0
0.43093093 	0 	0.0016302645 	0 	0 	0 	-0.0036880985 	-1.8527515e-09 	0
0.43303303 	0 	0.0016264202 	0 	0 	0 	-0.003684139 	-1.8161403e-09 	0
0.43513514 	0 	0.0016225759 	0 	0 	0 	-0.0036801795 	-1.7795291e-09 	0
0.43723724 	0 	0.001618819 	0 	0 	0 	-0.0036764208 	-1.7497508e-09 	0
0.43933934 	0 	0.0016150971 	0 	0 	0 	-0.0036727423 	-1.7227019e-09 	0
0.44144144 	0 	0.0016113751 	0 	0 	0 	-0.0036690638 	-1.6956531e-09 	0
0.44354354 	0 	0.0016076531 	0 	0 	0 	-0.0036653852 	-1.6686042e-09 	0
0.44564565 	0 	0.0016039312 	0 	0 	0 	-0.0036617067 	-1.6415553e-09 	0
0.44774775 	0 	0.0016003535 	0 	0 	0 	-0.0036582587 	-1.6169674e-09 	0
0.44984985 	0 	0.0015968009 	0 	0 	0 	-0.0036548508 	-1.5928084e-09 	0
0.45195195 	0 	0.0015932484 	0 	0 	0 	-0.003651443 	-1.5686495e-09 	0
0.45405405 	0 	0.0015896958 	0 	0 	0 	-0.0036480351 	-1.5444905e-09 	0
0.45615616 	0 	0.0015861433 	0 	0 	0 	-0.0036446273 	-1.5203316e-09 	0
0.45825826 	0 	0.00158277 	0 	0 	0 	-0.0036414404 	-1.4946133e-09 	0
0.46036036 	0 	0.0015794296 	0 	0 	0 	-0.0036382939 	-1.4686095e-09 	0
0.46246246 	0 	0.0015760891 	0 	0 	0 	-0.0036351475 	-1.4426057e-09 	0
0.46456456 	0 	0.0015727487 	0 	0 	0 	-0.003632001 	-1.4166018e-09 	0
0.46666667 	0 	0.0015694082 	0 	0 	0 	-0.0036288546 	-1.390598e-09 	0
0.46876877 	0 	0.0015662582 	0 	0 	0 	-0.0036258821 	-1.3641391e-09 	-3.0607566e-38
0.47087087 	0 	0.0015631945 	0 	0 	0 	-0.0036229884 	-1.3374738e-09 	-7.5098827e-38
0.47297297 	0 	0.0015601309 	0 	0 	0 	-0.0036200948 	-1.3108085e-09 	-1.1959009e-37
0.47507508 	0 	0.0015570672 	0 	0 	0 	-0.0036172012 	-1.2841431e-09 	-1.6408135e-37
0.47717718 	0 	0.0015540035 	0 	0 	0 	-0.0036143076 	-1.2574778e-09 	-2.0857261e-37
0.47927928 	0 	0.0015510771 	0 	0 	0 	-0.0036115051 	-1.2314593e-09 	-2.3652648e-37
0.48138138 	0 	0.0015483828 	0 	0 	0 	-0.0036088569 	-1.2065342e-09 	-2.3652666e-37
0.48348348 	0 	0.0015456885 	0 	0 	0 	-0.0036062087 	-1.181609e-09 	-2.3652684e-37
0.48558559 	0 	0.0015429941 	0 	0 	0 	-0.0036035604 	-1.1566838e-09 	-2.3652702e-37
0.48768769 	0 	0.0015402998 	0 	0 	0 	-0.0036009122 	-1.1317587e-09 	-2.365272e-37
0.48978979 	0 	0.0015376055 	0 	0 	0 	-0.003598264 	-1.1068335e-09 	-2.3652738e-37
0.49189189 	0 	0.0015353456 	0 	0 	0 	-0.003595829 	-1.0993432e-09 	-1.9943226e-37
0.49399399 	0 	0.0015331406 	0 	0 	0 	-0.003593421 	-1.0940562e-09 	-1.576492e-37
0.4960961 	0 	0.0015309356 	0 	0 	0 	-0.003591013 	-1.0887693e-09 	-1.1586615e-37
0.4981982 	0 	0.0015287306 	0 	0 	0 	-0.003588605 	-1.0834823e-09 	-7.4083093e-38
0.5003003 	0 	0.0015265257 	0 	0 	0 	-0.003586197 	-1.0781954e-09 	-3.2300038e-38
0.5024024 	0 	0.0015244679 	0 	0 	0 	-0.0035838433 	-1.0941988e-09 	0
0.5045045 	0 	0.0015229114 	0 	0 	0 	-0.0035816746 	-1.1827193e-09 	0
0.50660661 	0 	0.0015213549 	0 	0 	0 	-0.0035795059 	-1.2712398e-09 	0
0.50870871 	0 	0.0015197984 	0 	0 	0 	-0.0035773372 	-1.3597602e-09 	0
0.51081081 	0 	0.0015182419 	0 	0 	0 	-0.0035751685 	-1.4482807e-09 	0
0.51291291 	0 	0.0015166855 	0 	0 	0 	-0.0035729999 	-1.5368012e-09 	0
0.51501502 	0 	0.0015153196 	0 	0 	0 	-0.0035709213 	-1.6474358e-09 	0
0.51711712 	0 	0.0015142657 	0 	0 	0 	-0.0035689903 	-1.7942765e-09 	0
0.51921922 	0 	0.0015132118 	0 	0 	0 	-0.0035670594 	-1.9411172e-09 	0
0.52132132 	0 	0.0015121579 	0 	0 	0 	-0.0035651284 	-2.0879579e-09 	0
0.52342342 	0 	0.001511104 	0 	0 	0 	-0.0035631975 	-2.2347986e-09 	0
0.52552553 	0 	0.0015100501 	0 	0 	0 	-0.0035612665 	-2.3816393e-09 	0
0.52762763 	0 	0.0015092514 	0 	0 	0 	-0.003559416 	-2.5871512e-09 	0
0.52972973 	0 	0.0015089621 	0 	0 	0 	-0.0035577262 	-2.9097888e-09 	0
0.53183183 	0 	0.0015086729 	0 	0 	0 	-0.0035560363 	-3.2324263e-09 	0
0.53393393 	0 	0.0015083836 	0 	0 	0 	-0.0035543464 	-3.5550638e-09 	0
0.53603604 	0 	0.0015080943 	0 	0 	0 	-0.0035526566 	-3.8777013e-09 	0
0.53813814 	0 	0.001507805 	0 	0 	0 	-0.0035509667 	-4.2003388e-09 	0
0.54024024 	0 	0.001507685 	0 	0 	0 	-0.0035492944 	-4.4832863e-09 	0
0.54234234 	0 	0.0015095355 	0 	0 	0 	-0.0035478257 	-4.3040185e-09 	0
0.54444444 	0 	0.0015113861 	0 	0 	0 	-0.0035463571 	-4.1247507e-09 	0
0.54654655 	0 	0.0015132367 	0 	0 	0 	-0.0035448884 	-3.9454829e-09 	0
0.54864865 	0 	0.0015150872 	0 	0 	0 	-0.0035434198 	-3.7662151e-09 	0
0.55075075 	0 	0.0015169378 	0 	0 	0 	-0.0035419511 	-3.5869473e-09 	0
0.55285285 	0 	0.0015187883 	0 	0 	0 	-0.0035404825 	-3.4076795e-09 	0
0.55495495 	0 	0.0015215364 	0 	0 	0 	-0.0035391582 	-3.0802442e-09 	0
0.55705706 	0 	0.0015248762 	0 	0 	0 	-0.003537929 	-2.6551438e-09 	0
0.55915916 	0 	0.0015282159 	0 	0 	0 	-0.0035366998 	-2.2300433e-09 	0
0.56126126 	0 	0.0015315556 	0 	0 	0 	-0.0035354706 	-1.8049428e-09 	0
0.56336336 	0 	0.0015348954 	0 	0 	0 	-0.0035342414 	-1.3798424e-09 	0
0.56546547 	0 	0.0015382351 	0 	0 	0 	-0.0035330123 	-9.5474194e-10 	0
0.56756757 	0 	0.0015415749 	0 	0 	0 	-0.0035317831 	-5.2964149e-10 	0
0.56966967 	0 	0.0015456534 	0 	0 	0 	-0.0035307789 	-4.7161324e-10 	0
0.57177177 	0 	0.0015498221 	0 	0 	0 	-0.0035298022 	-4.5840222e-10 	0
0.57387387 	0 	0.0015539909 	0 	0 	0 	-0.0035288254 	-4.451912e-10 	0
0.57597598 	0 	0.0015581596 	0 	0 	0 	-0.0035278487 	-4.3198018e-10 	0
0.57807808 	0 	0.0015623283 	0 	0 	0 	-0.003526872 	-4.1876916e-10 	0
0.58018018 	0 	0.0015664971 	0 	0 	0 	-0.0035258952 	-4.0555814e-10 	0
0.58228228 	0 	0.0015706658 	0 	0 	0 	-0.0035249185 	-3.9234712e-10 	0
0.58438438 	0 	0.0015763172 	0 	0 	0 	-0.0035241559 	-3.7831397e-10 	0
0.58648649 	0 	0.0015820804 	0 	0 	0 	-0.0035234094 	-3.6421887e-10 	0
0.58858859 	0 	0.0015878435 	0 	0 	0 	-0.0035226629 	-3.5012377e-10 	0
0.59069069 	0 	0.0015936067 	0 	0 	0 	-0.0035219164 	-3.3602867e-10 	0
0.59279279 	0 	0.0015993699 	0 	0 	0 	-0.0035211699 	-3.2193357e-10 	0
0.59489489 	0 	0.001605133 	0 	0 	0 	-0.0035204234 	-3.0783847e-10 	0
0.596997 	0 	0.0016108962 	0 	0 	0 	-0.0035196769 	-2.9374337e-10 	0
0.5990991 	0 	0.001617779 	0 	0 	0 	-0.0035190944 	-2.7946194e-10 	0
0.6012012 	0 	0.0016251345 	0 	0 	0 	-0.0035185812 	-2.6510185e-10 	0
0.6033033 	0 	0.00163249 	0 	0 	0 	-0.003518068 	-2.5074175e-10 	0
0.60540541 	0 	0.0016398455 	0 	0 	0 	-0.0035175547 	-2.3638166e-10 	0
0.60750751 	0 	0.001647201 	0 	0 	0 	-0.0035170415 	-2.2202156e-10 	0
0.60960961 	0 	0.0016545566 	0 	0 	0 	-0.0035165283 	-2.0766147e-10 	0
0.61171171 	0 	0.0016619121 	0 	0 	0 	-0.003516015 	-1.9330137e-10 	0
0.61381381 	0 	0.0016695681 	0 	0 	0 	-0.0035155461 	-1.7920319e-10 	0
0.61591592 	0 	0.0016784747 	0 	0 	0 	-0.0035152617 	-1.6619509e-10 	0
0.61801802 	0 	0.0016873814 	0 	0 	0 	-0.0035149772 	-1.5318699e-10 	0
0.62012012 	0 	0.0016962881 	0 	0 	0 	-0.0035146927 	-1.4017889e-10 	0
0.62222222 	0 	0.0017051948 	0 	0 	0 	-0.0035144083 	-1.2717079e-10 	0
0.62432432 	0 	0.0017141014 	0 	0 	0 	-0.0035141238 	-1.141627e-10 	0
0.62642643 	0 	0.0017230081 	0 	0 	0 	-0.0035138393 	-1.011546e-10 	0
0.62852853 	0 	0.0017319148 	0 	0 	0 	-0.0035135548 	-8.8146497e-11 	0
0.63063063 	0 	0.001741332 	0 	0 	0 	-0.0035133555 	-7.5880298e-11 	0
0.63273273 	0 	0.0017515716 	0 	0 	0 	-0.0035132934 	-6.4809161e-11 	0
0.63483483 	0 	0.0017618112 	0 	0 	0 	-0.0035132313 	-5.3738025e-11 	0
0.63693694 	0 	0.0017720508 	0 	0 	0 	-0.0035131692 	-4.2666888e-11 	0
0.63903904 	0 	0.0017822904 	0 	0 	0 	-0.0035131071 	-3.1595751e-11 	0
0.64114114 	0 	0.00179253 	0 	0 	0 	-0.003513045 	-2.0524615e-11 	0
0.64324324 	0 	0.0018027695 	0 	0 	0 	-0.0035129829 	-9.4534782e-12 	0
0.64534535 	0 	0.0018130091 	0 	0 	0 	-0.0035129208 	1.6176585e-12 	0
0.64744745 	0 	0.0018234535 	0 	0 	0 	-0.0035129113 	1.2387291e-11 	0
0.64954955 	0 	0.0018345099 	0 	0 	0 	-0.003513059 	2.2256054e-11 	0
0.65165165 	0 	0.0018455663 	0 	0 	0 	-0.0035132068 	3.2124817e-11 	0
0.65375375 	0 	0.0018566226 	0 	0 	0 	-0.0035133546 	4.199358e-11 	0
0.65585586 	0 	0.001867679 	0 	0 	0 	-0.0035135023 	5.1862344e-11 	0
0.65795796 	0 	0.0018787354 	0 	0 	0 	-0.0035136501 	6.1731107e-11 	0
0.66006006 	0 	0.0018897918 	0 	0 	0 	-0.0035137979 	7.159987e-11 	0
0.66216216 	0 	0.0019008481 	0 	0 	0 	-0.0035139456 	8.1468633e-11 	0
0.66426426 	0 	0.0019119045 	0 	0 	0 	-0.0035140934 	9.1337396e-11 	0
0.66636637 	0 	0.0019229077 	0 	0 	0 	-0.0035143822 	9.9816638e-11 	1.617894e-38
0.66846847 	0 	0.0019338955 	0 	0 	0 	-0.0035147119 	1.07892e-10 	3.7060467e-38
0.67057057 	0 	0.0019448833 	0 	0 	0 	-0.0035150417 	1.1596736e-10 	5.7941994e-38
0.67267267 	0 	0.0019558711 	0 	0 	0 	-0.0035153714 	1.2404273e-10 	7.8823522e-38
0.67477477 	0 	0.0019668588 	0 	0 	0 	-0.0035157012 	1.3211809e-10 	9.9705049e-38
0.67687688 	0 	0.0019778466 	0 	0 	0 	-0.0035160309 	1.4019345e-10 	1.2058658e-37
0.67897898 	0 	0.0019888344 	0 	0 	0 	-0.0035163607 	1.4826881e-10 	1.414681e-37
0.68108108 	0 	0.0019998222 	0 	0 	0 	-0.0035166904 	1.5634418e-10 	1.6234963e-37
0.68318318 	0 	0.00201081 	0 	0 	0 	-0.0035170202 	1.6441954e-10 	1.8323116e-37
0.68528529 	0 	0.0020207598 	0 	0 	0 	-0.0035174743 	1.6865813e-10 	1.8467356e-37
0.68738739 	0 	0.0020306326 	0 	0 	0 	-0.0035179377 	1.7261209e-10 	1.8467389e-37
0.68948949 	0 	0.0020405054 	0 	0 	0 	-0.003518401 	1.7656606e-10 	1.8467423e-37
0.69159159 	0 	0.0020503782 	0 	0 	0 	-0.0035188644 	1.8052002e-10 	1.8467456e-37
0.69369369 	0 	0.002060251 	0 	0 	0 	-0.0035193278 	1.8447399e-10 	1.8467489e-37
0.6957958 	0 	0.0020701238 	0 	0 	0 	-0.0035197911 	1.8842795e-10 	1.8467523e-37
0.6978979 	0 	0.0020799966 	0 	0 	0 	-0.0035202545 	1.9238192e-10 	1.8467556e-37
0.7 	0 	0.0020898694 	0 	0 	0 	-0.0035207179 	1.9633588e-10 	1.846759e-37
0.7021021 	0 	0.0020997422 	0 	0 	0 	-0.0035211812 	2.0028985e-10 	1.8467623e-37
0.7042042 	0 	0.0021080826 	0 	0 	0 	-0.0035216903 	2.0002039e-10 	1.7143653e-37
0.70630631 	0 	0.002115743 	0 	0 	0 	-0.0035222197 	1.9787708e-10 	1.5232243e-37
0.70840841 	0 	0.0021234034 	0 	0 	0 	-0.0035227491 	1.9573376e-10 	1.3320833e-37
0.71051051 	0 	0.0021310639 	0 	0 	0 	-0.0035232784 	1.9359045e-10 	1.1409424e-37
0.71261261 	0 	0.0021387243 	0 	0 	0 	-0.0035238078 	1.9144713e-10 	9.4980139e-38
0.71471471 	0 	0.0021463848 	0 	0 	0 	-0.0035243372 	1.8930382e-10 	7.5866042e-38
0.71681682 	0 	0.0021540452 	0 	0 	0 	-0.0035248666 	1.871605e-10 	5.6751945e-38
0.71891892 	0 	0.0021617057 	0 	0 	0 	-0.0035253959 	1.8501719e-10 	3.7637848e-38
0.72102102 	0 	0.0021693661 	0 	0 	0 	-0.0035259253 	1.8287387e-10 	1.8523751e-38
0.72312312 	0 	0.0021769369 	0 	0 	0 	-0.0035264546 	1.8650322e-10 	0
0.72522523 	0 	0.0021816958 	0 	0 	0 	-0.0035269821 	3.7126608e-10 	0
0.72732733 	0 	0.0021864546 	0 	0 	0 	-0.0035275095 	5.5602893e-10 	0
0.72942943 	0 	0.0021912135 	0 	0 	0 	-0.003528037 	7.4079179e-10 	0
0.73153153 	0 	0.0021959723 	0 	0 	0 	-0.0035285644 	9.2555464e-10 	0
0.73363363 	0 	0.0022007312 	0 	0 	0 	-0.0035290919 	1.1103175e-09 	0
0.73573574 	0 	0.0022054901 	0 	0 	0 	-0.0035296193 	1.2950804e-09 	0
0.73783784 	0 	0.0022102489 	0 	0 	0 	-0.0035301468 	1.4798432e-09 	0
0.73993994 	0 	0.0022150078 	0 	0 	0 	-0.0035306742 	1.6646061e-09 	0
0.74204204 	0 	0.0022197666 	0 	0 	0 	-0.0035312017 	1.8493689e-09 	0
0.74414414 	0 	0.0022245255 	0 	0 	0 	-0.0035317291 	2.0341318e-09 	0
0.74624625 	0 	0.0022261441 	0 	0 	0 	-0.0035321783 	2.1448725e-09 	0
0.74834835 	0 	0.0022274655 	0 	0 	0 	-0.00353262 	2.2486082e-09 	0
0.75045045 	0 	0.002228787 	0 	0 	0 	-0.0035330618 	2.3523438e-09 	0
0.75255255 	0 	0.0022301084 	0 	0 	0 	-0.0035335035 	2.4560795e-09 	0
0.75465465 	0 	0.0022314298 	0 	0 	0 	-0.0035339453 	2.5598151e-09 	0
0.75675676 	0 	0.0022327513 	0 	0 	0 	-0.0035343871 	2.6635508e-09 	0
0.75885886 	0 	0.0022340727 	0 	0 	0 	-0.0035348288 	2.7672864e-09 	0
0.76096096 	0 	0.0022353942 	0 	0 	0 	-0.0035352706 	2.8710221e-09 	0
0.76306306 	0 	0.0022367156 	0 	0 	0 	-0.0035357123 	2.9747577e-09 	0
0.76516517 	0 	0.002238037 	0 	0 	0 	-0.0035361541 	3.0784934e-09 	0
0.76726727 	0 	0.0022383274 	0 	0 	0 	-0.0035365553 	3.0929387e-09 	0
0.76936937 	0 	0.0022362719 	0 	0 	0 	-0.0035368645 	2.9042289e-09 	0
0.77147147 	0 	0.0022342164 	0 	0 	0 	-0.0035371737 	2.7155191e-09 	0
0.77357357 	0 	0.0022321608 	0 	0 	0 	-0.0035374829 	2.5268093e-09 	0
0.77567568 	0 	0.0022301053 	0 	0 	0 	-0.003537792 	2.3380996e-09 	0
0.77777778 	0 	0.0022280498 	0 	0 	0 	-0.0035381012 	2.1493898e-09 	0
0.77987988 	0 	0.0022259943 	0 	0 	0 	-0.0035384104 	1.96068e-09 	0
0.78198198 	0 	0.0022239388 	0 	0 	0 	-0.0035387195 	1.7719702e-09 	0
0.78408408 	0 	0.0022218832 	0 	0 	0 	-0.0035390287 	1.5832605e-09 	0
0.78618619 	0 	0.0022198277 	0 	0 	0 	-0.0035393379 	1.3945507e-09 	0
0.78828829 	0 	0.0022177722 	0 	0 	0 	-0.003539647 	1.2058409e-09 	0
0.79039039 	0 	0.0022153549 	0 	0 	0 	-0.0035399328 	1.031943e-09 	0
0.79249249 	0 	0.002211135 	0 	0 	0 	-0.0035401017 	9.3184775e-10 	0
0.79459459 	0 	0.0022069152 	0 	0 	0 	-0.0035402706 	8.3175253e-10 	0
0.7966967 	0 	0.0022026953 	0 	0 	0 	-0.0035404396 	7.316573e-10 	0
0.7987988 	0 	0.0021984755 	0 	0 	0 	-0.0035406085 	6.3156208e-10 	0
0.8009009 	0 	0.0021942556 	0 	0 	0 	-0.0035407775 	5.3146685e-10 	0
0.803003 	0 	0.0021900357 	0 	0 	0 	-0.0035409464 	4.3137163e-10 	0
0.80510511 	0 	0.0021858159 	0 	0 	0 	-0.0035411153 	3.3127641e-10 	0
0.80720721 	0 	0.002181596 	0 	0 	0 	-0.0035412843 	2.3118118e-10 	0
0.80930931 	0 	0.0021773761 	0 	0 	0 	-0.0035414532 	1.3108596e-10 	0
0.81141141 	0 	0.0021731563 	0 	0 	0 	-0.0035416221 	3.0990735e-11 	0
0.81351351 	0 	0.0021689364 	0 	0 	0 	-0.0035417911 	-6.9104488e-11 	0
0.81561562 	0 	0.0021642021 	0 	0 	0 	-0.0035418959 	-1.1952387e-10 	0
0.81771772 	0 	0.0021588532 	0 	0 	0 	-0.0035419243 	-1.1061229e-10 	0
0.81981982 	0 	0.0021535043 	0 	0 	0 	-0.0035419527 	-1.0170072e-10 	0
0.82192192 	0 	0.0021481555 	0 	0 	0 	-0.0035419811 	-9.2789136e-11 	0
0.82402402 	0 	0.0021428066 	0 	0 	0 	-0.0035420095 	-8.3877557e-11 	0
0.82612613 	0 	0.0021374577 	0 	0 	0 	-0.0035420379 	-7.4965978e-11 	0
0.82822823 	0 	0.0021321089 	0 	0 	0 	-0.0035420662 	-6.6054399e-11 	0
0.83033033 	0 	0.00212676 	0 	0 	0 	-0.0035420946 	-5.7142819e-11 	0
0.83243243 	0 	0.0021214111 	0 	0 	0 	-0.003542123 	-4.823124e-11 	0
0.83453453 	0 	0.0021160623 	0 	0 	0 	-0.0035421514 	-3.9319661e-11 	0
0.83663664 	0 	0.0021107134 	0 	0 	0 	-0.0035421798 	-3.0408082e-11 	0
0.83873874 	0 	0.0021053645 	0 	0 	0 	-0.0035422082 	-2.1496503e-11 	0
0.84084084 	0 	0.0020999421 	0 	0 	0 	-0.0035422224 	-1.4094702e-11 	0
0.84294294 	0 	0.0020939948 	0 	0 	0 	-0.003542136 	-1.7470841e-11 	0
0.84504505 	0 	0.0020880474 	0 	0 	0 	-0.0035420495 	-2.084698e-11 	0
0.84714715 	0 	0.0020821 	0 	0 	0 	-0.003541963 	-2.4223119e-11 	0
0.84924925 	0 	0.0020761526 	0 	0 	0 	-0.0035418766 	-2.7599258e-11 	0
0.85135135 	0 	0.0020702053 	0 	0 	0 	-0.0035417901 	-3.0975397e-11 	0
0.85345345 	0 	0.0020642579 	0 	0 	0 	-0.0035417036 	-3.4351536e-11 	0
0.85555556 	0 	0.0020583105 	0 	0 	0 	-0.0035416172 	-3.7727675e-11 	0
0.85765766 	0 	0.0020523631 	0 	0 	0 	-0.0035415307 	-4.1103814e-11 	0
0.85975976 	0 	0.0020464158 	0 	0 	0 	-0.0035414442 	-4.4479953e-11 	0
0.86186186 	0 	0.0020404684 	0 	0 	0 	-0.0035413578 	-4.7856092e-11 	0
0.86396396 	0 	0.002034521 	0 	0 	0 	-0.0035412713 	-5.1232231e-11 	0
0.86606607 	0 	0.0020285736 	0 	0 	0 	-0.0035411848 	-5.460837e-11 	0
0.86816817 	0 	0.0020226053 	0 	0 	0 	-0.0035410883 	-5.7880158e-11 	0
0.87027027 	0 	0.0020164751 	0 	0 	0 	-0.0035409141 	-6.0348414e-11 	0
0.87237237 	0 	0.0020103449 	0 	0 	0 	-0.0035407399 	-6.2816671e-11 	0
0.87447447 	0 	0.0020042147 	0 	0 	0 	-0.0035405657 	-6.5284927e-11 	0