/*--------------------------------*- C++ -*----------------------------------*\
| =========                 |                                                 |
| \\      /  F ield         | OpenFOAM: The Open Source CFD Toolbox           |
|  \\    /   O peration     | Version:  2206                                  |
|   \\  /    A nd           | Website:  www.openfoam.com                      |
|    \\/     M anipulation  |                                                 |
\*---------------------------------------------------------------------------*/
FoamFile
{
    version     2.0;
    format      ascii;
    arch        "LSB;label=32;scalar=64";
    class       volScalarField;
    location    "900";
    object      epsilon;
}
// * * * * * * * * * * * * * * * * * * * * * * * * * * * * * * * * * * * * * //

dimensions      [0 2 -3 0 0 0 0];

internalField   nonuniform List<scalar> 
7480
(
5.772865
15.517984
18.080908
15.97659
12.852406
10.351725
8.6645288
7.5118476
6.6653566
6.0011072
5.4623499
5.0209108
4.6577752
4.3578796
4.1090206
3.9009205
3.7259283
3.5782756
3.4526341
3.3456151
3.2524755
3.1705739
3.0976429
3.0318227
2.9718834
2.9168257
2.8659552
2.8185949
2.7741493
2.7321292
2.6922521
2.6543204
2.6181271
2.5835006
2.5502486
2.5182819
2.4873448
2.4573879
2.4283312
2.4000757
2.3725494
2.3456884
2.3194439
2.2937829
2.2686661
2.2440659
2.2199462
2.196269
2.1730124
2.1501532
2.1276729
2.1055591
2.0837966
2.0623767
2.0412852
2.0205111
2.0000458
1.9798761
1.9599897
1.940378
1.9210385
1.9019673
1.8831576
1.8646037
1.8463011
1.828245
1.8104285
1.7928457
1.775493
1.7583671
1.7414635
1.7247781
1.7083073
1.6920484
1.6759973
1.6601498
1.644502
1.6290505
1.6137916
1.5987218
1.5838374
1.5691347
1.5546099
1.5402586
1.5260768
1.5120593
1.498201
1.4844946
1.4709348
1.4575072
1.4442114
1.4310046
1.4179252
1.404804
1.3918862
1.3784749
1.3656018
1.3507871
1.3389463
1.31648
0.34588167
1.5985179
2.8401888
3.2970409
3.1717625
2.8631798
2.5619349
2.3172801
2.1184691
1.9483461
1.7999599
1.6717056
1.5621942
1.4692392
1.3904091
1.3230165
1.2652625
1.2157792
1.1732447
1.1363793
1.1040652
1.0753937
1.0496298
1.0262365
1.0048504
0.98516036
0.96694867
0.94997426
0.93403385
0.91896845
0.90468268
0.89110715
0.87817029
0.86580984
0.85395224
0.84257152
0.83156877
0.82093105
0.81063213
0.80063517
0.79091136
0.78143899
0.77220037
0.76318142
0.75436815
0.74574955
0.73731162
0.72904117
0.72092875
0.71296625
0.705147
0.69746539
0.68991589
0.68249422
0.67519512
0.66801463
0.66094885
0.65399289
0.64714192
0.64039286
0.6337443
0.6271945
0.62074075
0.61438071
0.60811252
0.6019343
0.59584327
0.58983725
0.58391479
0.57807443
0.57231451
0.56663333
0.56102949
0.55550187
0.55004889
0.54466894
0.53936057
0.53412242
0.52895315
0.52385144
0.51881593
0.51384526
0.50893805
0.5040928
0.49930807
0.49458212
0.48991325
0.48529923
0.48073809
0.47622602
0.47176165
0.46733514
0.46295196
0.45857601
0.45425218
0.44983528
0.44552261
0.44078203
0.43673684
0.42946307
0.010391415
0.063401327
0.16354265
0.28135803
0.38468485
0.47586222
0.55945683
0.63095676
0.686661
0.72794399
0.75641334
0.77284517
0.77856595
0.77581127
0.76716741
0.75502506
0.74105014
0.72623327
0.71116412
0.69616716
0.68145663
0.66716401
0.65334369
0.64004925
0.62732011
0.61514427
0.60356979
0.59252721
0.5819679
0.57185121
0.56216314
0.55288516
0.5439911
0.53545584
0.52724141
0.51934275
0.51170255
0.50432211
0.49718605
0.49027277
0.48356485
0.47704923
0.47071479
0.46455125
0.45854885
0.45269934
0.44699253
0.44141961
0.43597335
0.43064758
0.42543715
0.42033697
0.41534237
0.41044916
0.40565293
0.40095023
0.39633734
0.39181028
0.38736526
0.38299962
0.37871142
0.37449862
0.3703587
0.36628944
0.36228897
0.35835538
0.35448638
0.35068007
0.346935
0.34324969
0.33962261
0.33605224
0.33253727
0.32907652
0.32566863
0.32231222
0.31900607
0.31574901
0.31253991
0.30937763
0.30626109
0.30318918
0.30016082
0.29717489
0.29423027
0.29132579
0.28846022
0.28563217
0.28284023
0.28008243
0.27735727
0.27466075
0.2719927
0.26934076
0.26671481
0.26406811
0.26145169
0.25868162
0.25620202
0.25189163
0.00038676708
0.0025279803
0.0090544488
0.019150644
0.031945071
0.047066338
0.066683467
0.09095363
0.12642428
0.17013636
0.21721926
0.26299251
0.30608711
0.34548466
0.37993557
0.4083327
0.43019904
0.44581068
0.45601801
0.46187219
0.4643473
0.46423749
0.46216338
0.45861431
0.45399462
0.44861025
0.44272315
0.43651703
0.43011947
0.42363092
0.417128
0.41066885
0.4042936
0.39803256
0.39189525
0.38590577
0.38003237
0.37430707
0.36872477
0.36328375
0.35798108
0.35281391
0.34777923
0.34287339
0.33809231
0.33343213
0.3288869
0.32445202
0.32012315
0.31589643
0.31176839
0.30773534
0.30379388
0.29994066
0.29617212
0.29248537
0.28887724
0.28534452
0.2818841
0.27849365
0.27517118
0.27191465
0.26872179
0.26559052
0.26251899
0.25950536
0.25654757
0.25364387
0.25079282
0.24799293
0.24524274
0.24254079
0.2398858
0.23727655
0.23471174
0.23219011
0.22971049
0.22727178
0.2248729
0.22251279
0.22019044
0.21790484
0.215655
0.21343995
0.21125868
0.20911022
0.20699353
0.20490751
0.20285102
0.20082275
0.19882126
0.19684457
0.19489098
0.19295601
0.19103895
0.1891254
0.18722138
0.18525886
0.18344853
0.18037504
4.3916605e-05
0.00015081781
0.00053879875
0.0014215726
0.0029066923
0.0049087727
0.0074325697
0.010644928
0.015166349
0.021876465
0.031424406
0.046261812
0.066516075
0.090984612
0.11832253
0.14735453
0.17718402
0.20663444
0.23427307
0.25875852
0.27922907
0.29546134
0.30774332
0.31661244
0.32264656
0.32635561
0.32818644
0.32852461
0.32769626
0.32596504
0.32354014
0.32059051
0.31725118
0.31362881
0.30980489
0.30585471
0.30180848
0.29771577
0.29360897
0.28951041
0.2854376
0.28140517
0.27742435
0.27350331
0.26964809
0.26586341
0.26215075
0.25851092
0.25494426
0.25145103
0.24803129
0.24468437
0.24140931
0.23820488
0.23506945
0.23200161
0.22899953
0.22606125
0.22318468
0.22036826
0.21761058
0.21491015
0.21226524
0.20967425
0.20713565
0.20464789
0.20220929
0.1998184
0.19747394
0.19517461
0.19291911
0.19070616
0.18853457
0.18640323
0.18431098
0.18225667
0.18023925
0.17825771
0.17631104
0.17439831
0.17251856
0.17067089
0.16885441
0.16706822
0.16531144
0.16358322
0.16188263
0.1602088
0.15856071
0.15693741
0.15533761
0.15376025
0.1522032
0.15066539
0.14914226
0.14763288
0.14612659
0.14460396
0.14317841
0.1407843
2.0138816e-05
3.3050406e-05
6.8841326e-05
0.00014735506
0.00029683854
0.00054408728
0.00091370728
0.0014269266
0.0021171555
0.0030583086
0.0043448407
0.0062352777
0.0090465074
0.013101569
0.019245941
0.028542729
0.041033776
0.056736749
0.075167617
0.09578128
0.11784618
0.1403143
0.16192103
0.18151929
0.19837681
0.2122571
0.22329881
0.23181988
0.23817522
0.2426976
0.24568895
0.24742067
0.24812808
0.24800821
0.24722318
0.24591467
0.24418417
0.2421236
0.23980876
0.2372996
0.23464451
0.23188311
0.22904783
0.2261651
0.2232561
0.22033822
0.21742502
0.21452692
0.21165219
0.20880753
0.20599832
0.20322857
0.2005014
0.19781913
0.19518326
0.1925951
0.19005495
0.18756275
0.18511816
0.18272094
0.18037081
0.17806727
0.17580955
0.17359681
0.17142822
0.16930287
0.16721965
0.16517759
0.16317579
0.16121329
0.15928911
0.15740224
0.15555175
0.15373675
0.15195628
0.15020939
0.1484952
0.14681283
0.14516145
0.14354021
0.14194831
0.14038495
0.13884935
0.13734073
0.13585833
0.13440138
0.1329691
0.13156075
0.13017546
0.12881248
0.1274707
0.12614953
0.12484684
0.12356312
0.1222926
0.12104017
0.11978951
0.1185424
0.11737025
0.11540509
1.6379224e-05
1.9661811e-05
2.6603893e-05
3.9502372e-05
6.144944e-05
9.6403914e-05
0.00014954998
0.00022743563
0.00033821941
0.00049382708
0.00070906819
0.0010095363
0.0014349345
0.0020351787
0.0028990714
0.0041930581
0.0061102724
0.0088750192
0.013179272
0.019666861
0.028597616
0.040169144
0.054073606
0.069955634
0.087165941
0.10477014
0.12171881
0.13713877
0.15052802
0.16175547
0.17092728
0.17824644
0.18393604
0.18821599
0.19129557
0.19337041
0.1946053
0.19514289
0.19510662
0.19460046
0.19371137
0.192512
0.19106313
0.18941565
0.18761179
0.18568673
0.18366976
0.18158474
0.17945128
0.17728562
0.17510118
0.172909
0.1707181
0.16853586
0.16636828
0.1642203
0.16209575
0.15999754
0.15792787
0.15588851
0.15388089
0.15190607
0.14996466
0.14805704
0.14618347
0.14434396
0.14253821
0.14076594
0.13902688
0.1373206
0.13564664
0.1340044
0.13239332
0.13081282
0.12926228
0.12774101
0.12624837
0.12478372
0.1233464
0.12193576
0.12055117
0.11919197
0.11785752
0.11654719
0.11526033
0.11399631
0.11275448
0.11153421
0.11033478
0.10915562
0.10799575
0.10685488
0.10573104
0.10462542
0.10353221
0.10245858
0.1013873
0.1003288
0.099337065
0.097668451
1.5319408e-05
1.667132e-05
1.8939469e-05
2.2580215e-05
2.8138318e-05
3.6245664e-05
4.7702006e-05
6.3569981e-05
8.5250358e-05
0.00011474027
0.00015476974
0.00020933683
0.00028454806
0.00038893946
0.00053486753
0.0007430911
0.0010442229
0.0014756475
0.0021132532
0.0030823571
0.0045478985
0.0067014169
0.01018011
0.015401242
0.022662403
0.032084551
0.043464264
0.056437758
0.070370072
0.08441985
0.097764693
0.10981727
0.1203004
0.12917787
0.13653815
0.14251827
0.14726892
0.15094444
0.1536944
0.1556551
0.15694725
0.1576764
0.15793391
0.15779839
0.15733691
0.1566065
0.15565574
0.15452554
0.15325026
0.15185882
0.15037546
0.14882059
0.14721133
0.14556202
0.14388472
0.1421895
0.1404848
0.13877754
0.1370734
0.13537706
0.13369243
0.13202275
0.13037058
0.12873796
0.12712657
0.12553773
0.12397237
0.12243117
0.12091467
0.11942325
0.11795708
0.1165162
0.11510056
0.11371004
0.11234441
0.11100339
0.10968667
0.10839389
0.10712468
0.10587861
0.10465527
0.1034542
0.10227496
0.10111706
0.099980019
0.098863355
0.097766555
0.096689129
0.095630506
0.09459024
0.093567541
0.092562283
0.091572746
0.090600413
0.089639883
0.088698969
0.087761576
0.086840752
0.085984361
0.084534326
1.4773641e-05
1.5593289e-05
1.6651144e-05
1.808185e-05
2.0072801e-05
2.2811351e-05
2.648619e-05
3.1317343e-05
3.757087e-05
4.5603395e-05
5.5901226e-05
6.9144993e-05
8.6323672e-05
0.00010886411
0.0001387971
0.00017922147
0.00023494977
0.00031256526
0.000422469
0.0005817992
0.00081750549
0.0011628405
0.0016928991
0.0025211356
0.0037934147
0.0057799523
0.008980933
0.013709598
0.020235376
0.028511349
0.038356173
0.04934609
0.060835517
0.072113124
0.082604116
0.091978193
0.10012219
0.10705094
0.1128373
0.11758026
0.12139171
0.12438548
0.12666911
0.12834101
0.12948951
0.13019263
0.1305188
0.13052737
0.13026946
0.12978891
0.1291231
0.12830404
0.12735896
0.12631105
0.12518008
0.12398279
0.12273348
0.12144421
0.1201252
0.118785
0.11743085
0.11606888
0.11470422
0.11334112
0.11198318
0.11063344
0.10929436
0.10796796
0.1066559
0.10535956
0.10408002
0.10281812
0.10157449
0.10034961
0.099143822
0.097957335
0.096790262
0.095642637
0.094514425
0.093405529
0.0923158
0.091245043
0.090193026
0.089159486
0.088144127
0.08714664
0.086166679
0.085203907
0.084257912
0.083328387
0.082414718
0.081516912
0.080633521
0.07976611
0.078909918
0.078072561
0.077239931
0.076424771
0.075673939
0.074392994
1.4342713e-05
1.4953119e-05
1.5623099e-05
1.636505e-05
1.7254289e-05
1.8386443e-05
1.9858064e-05
2.1752712e-05
2.414858e-05
2.7132823e-05
3.081511e-05
3.534317e-05
4.0898249e-05
4.7754807e-05
5.6295606e-05
6.7063869e-05
8.0869762e-05
9.8861765e-05
0.00012272318
0.0001550458
0.00020002872
0.00026342153
0.00035516716
0.00049213422
0.00069939452
0.0010170975
0.0015234044
0.0023336559
0.0035872506
0.0056792677
0.0089372738
0.01363348
0.019854132
0.027504054
0.036293621
0.045722912
0.055194338
0.064190943
0.072386512
0.079639092
0.085923239
0.091271813
0.095747819
0.099431136
0.1024076
0.10476136
0.10657175
0.10791156
0.10884619
0.10943364
0.10972478
0.10976403
0.10958998
0.10923598
0.10873085
0.10809933
0.10736279
0.10653956
0.1056454
0.10469372
0.10369598
0.10266196
0.10160004
0.10051732
0.099419848
0.098312825
0.097200672
0.096087092
0.09497522
0.093867715
0.092766808
0.091674353
0.090591873
0.089520633
0.088461674
0.087415827
0.086383758
0.085365993
0.084362934
0.083374875
0.082402018
0.081444482
0.080502318
0.079575519
0.078664022
0.077767728
0.076886489
0.076020145
0.075168459
0.074331281
0.073508179
0.072699279
0.071903415
0.071122144
0.070351407
0.069598256
0.068850819
0.068120208
0.067454355
0.06630932
1.3961856e-05
1.4443836e-05
1.494623e-05
1.5440753e-05
1.5947969e-05
1.6515224e-05
1.7200103e-05
1.8055939e-05
1.9125309e-05
2.0443285e-05
2.2043787e-05
2.3962247e-05
2.6262536e-05
2.9011915e-05
3.22999e-05
3.6249355e-05
4.1034596e-05
4.6900267e-05
5.4154266e-05
6.3269784e-05
7.4975466e-05
9.0299452e-05
0.00011081483
0.0001390749
0.00017908182
0.0002370059
0.00032369666
0.00045790189
0.00066520799
0.001000511
0.0015527478
0.0024363204
0.0039133157
0.0063057271
0.0098726433
0.014745037
0.020881056
0.028069803
0.03590691
0.043888906
0.051569211
0.058655749
0.065008184
0.070584075
0.075393486
0.079476557
0.082891096
0.085702278
0.087976099
0.089776191
0.091161821
0.09218707
0.092900505
0.093345233
0.093559306
0.093576015
0.093424492
0.093130145
0.092715062
0.092198347
0.091596467
0.090923644
0.090192155
0.089412572
0.088593985
0.087744253
0.086870168
0.085977531
0.085071309
0.084155764
0.08323455
0.082310782
0.081387104
0.080465754
0.079548644
0.078637383
0.077733322
0.076837596
0.07595115
0.07507476
0.074209061
0.073354559
0.072511651
0.071680641
0.070861749
0.07005513
0.069260867
0.068479012
0.067709528
0.06695244
0.066207515
0.065475002
0.064754021
0.064046088
0.063347847
0.062665647
0.061989821
0.061329358
0.06073384
0.05970157
1.3618712e-05
1.4003936e-05
1.4402628e-05
1.4781149e-05
1.5136601e-05
1.5487147e-05
1.5863754e-05
1.6301182e-05
1.6830357e-05
1.7476286e-05
1.8259559e-05
1.9196846e-05
2.0308767e-05
2.1618035e-05
2.3151206e-05
2.4941361e-05
2.7031787e-05
2.947863e-05
3.2387147e-05
3.587097e-05
4.0090755e-05
4.5271819e-05
5.1738178e-05
5.9932112e-05
7.0567984e-05
8.4714098e-05
0.00010406161
0.00013150847
0.00017130214
0.00023103478
0.00032451293
0.000472254
0.00071398944
0.0011211766
0.0017912039
0.0029257943
0.0048117649
0.0076876369
0.011685624
0.016789659
0.022827279
0.029451336
0.036232474
0.042795289
0.0488946
0.054407324
0.05928853
0.06353777
0.067181975
0.070264187
0.07283463
0.074945501
0.076647951
0.077990234
0.079016874
0.079768211
0.080280477
0.080585954
0.080713215
0.080687386
0.080530441
0.080261572
0.079897525
0.07945288
0.078940296
0.078370783
0.077753932
0.077098044
0.076410291
0.075696879
0.074963183
0.074213844
0.073452864
0.072683678
0.071909257
0.071132151
0.070354549
0.069578329
0.068805093
0.068036208
0.067272831
0.066515938
0.065766345
0.065024731
0.064291655
0.063567574
0.062852848
0.062147777
0.061452556
0.060767413
0.060092331
0.059427702
0.058772932
0.058129501
0.057494724
0.056874238
0.056260417
0.05566007
0.055124278
0.054188173
1.3305595e-05
1.3615327e-05
1.3936773e-05
1.4241772e-05
1.4520787e-05
1.4778004e-05
1.5027498e-05
1.5288718e-05
1.5581818e-05
1.5925268e-05
1.633526e-05
1.6825076e-05
1.7406607e-05
1.8091289e-05
1.8890854e-05
1.9818136e-05
2.0888205e-05
2.2118303e-05
2.3537175e-05
2.518036e-05
2.7092375e-05
2.9331223e-05
3.1972098e-05
3.5156788e-05
3.9050482e-05
4.388603e-05
5.0010831e-05
5.7937628e-05
6.8441017e-05
8.2758902e-05
0.00010304956
0.00013266215
0.0001773632
0.00024800659
0.000361656
0.00055047092
0.0008754616
0.0014223341
0.0023686405
0.0039645664
0.0064261939
0.0098636844
0.014266028
0.01947186
0.025165647
0.030978415
0.036603067
0.041844629
0.046603456
0.050839827
0.054550421
0.057755206
0.060487467
0.062786755
0.064694836
0.066253059
0.06750088
0.068475033
0.069209133
0.069733554
0.070075459
0.070259012
0.070305601
0.070234094
0.070061065
0.069801051
0.069466808
0.069069489
0.06861882
0.068123277
0.067590256
0.067026198
0.066436709
0.06582665
0.065200253
0.064561192
0.063912658
0.063257412
0.062597849
0.061936039
0.061273766
0.060612566
0.059953755
0.059298461
0.058647643
0.058002119
0.057362576
0.056729604
0.056103669
0.055485232
0.054874521
0.054272091
0.053677646
0.053092648
0.052515044
0.051949813
0.051391161
0.050843879
0.050360064
0.049508014
1.3015282e-05
1.3266214e-05
1.3527442e-05
1.3777458e-05
1.4006468e-05
1.4213475e-05
1.440413e-05
1.4588159e-05
1.4776845e-05
1.4981818e-05
1.521454e-05
1.5485559e-05
1.580429e-05
1.6179186e-05
1.6618077e-05
1.7128519e-05
1.7718217e-05
1.8395108e-05
1.9169399e-05
2.0054167e-05
2.1065502e-05
2.2223512e-05
2.3551684e-05
2.5088556e-05
2.6883408e-05
2.8999971e-05
3.1517217e-05
3.4585061e-05
3.8399314e-05
4.3225745e-05
4.9496294e-05
5.7816954e-05
6.9171863e-05
8.5300214e-05
0.00010900032
0.00014505265
0.00020271968
0.00029692893
0.0004565822
0.00073732362
0.0012176423
0.0020714369
0.0035162187
0.0057449468
0.0088303784
0.012752514
0.017341139
0.022302389
0.027322437
0.032158295
0.036661805
0.040756823
0.04441227
0.047626067
0.050414663
0.052804925
0.054828947
0.056520759
0.057914234
0.059041839
0.059933927
0.060618415
0.061120653
0.061463472
0.061667271
0.061750188
0.061728308
0.061615847
0.061425329
0.061167767
0.060852834
0.060489022
0.060083777
0.059643607
0.059174211
0.058680574
0.058167053
0.057637453
0.057095098
0.056542885
0.055983336
0.055418648
0.054850728
0.05428123
0.053711586
0.053143039
0.052576655
0.052013366
0.051453953
0.050899147
0.050349452
0.049805617
0.049267654
0.048737041
0.048212321
0.047697897
0.047189587
0.046690439
0.046252957
0.045476065
1.2741817e-05
1.2946902e-05
1.3160881e-05
1.3367682e-05
1.3558855e-05
1.3731861e-05
1.3888756e-05
1.4034343e-05
1.4174522e-05
1.4315726e-05
1.4464875e-05
1.4629068e-05
1.4815262e-05
1.5030054e-05
1.527963e-05
1.5569797e-05
1.5906032e-05
1.629357e-05
1.6737886e-05
1.7245195e-05
1.7822749e-05
1.8479257e-05
1.9224618e-05
2.0072153e-05
2.103937e-05
2.2148913e-05
2.3426902e-05
2.4914519e-05
2.6668803e-05
2.8763642e-05
3.1294316e-05
3.444648e-05
3.8452873e-05
4.3672424e-05
5.0657966e-05
6.0232593e-05
7.3915259e-05
9.4188392e-05
0.00012537998
0.00017607411
0.00026010739
0.0004060584
0.00066812137
0.0011215809
0.001950321
0.0033425251
0.0054503307
0.0083249425
0.011913103
0.0160245
0.020386783
0.02474249
0.028908313
0.032776346
0.036291085
0.039430924
0.042196752
0.044603353
0.046673364
0.048433443
0.049911728
0.051136238
0.052133865
0.052929828
0.053547371
0.054007662
0.054329828
0.05453104
0.054626637
0.05463026
0.054554014
0.054408611
0.054203519
0.053947081
0.053646648
0.053308689
0.052938895
0.052542266
0.052123193
0.05168553
0.051232658
0.050767538
0.050292761
0.049810598
0.04932303
0.048831792
0.048338393
0.047844163
0.047350241
0.046857678
0.046367285
0.045880044
0.045396287
0.044917555
0.04444295
0.043976397
0.043515124
0.043060743
0.042665544
0.041957312
1.2480719e-05
1.2649829e-05
1.2826578e-05
1.2998981e-05
1.3160074e-05
1.3306979e-05
1.3440216e-05
1.3562308e-05
1.3676463e-05
1.378615e-05
1.389518e-05
1.4007704e-05
1.4128133e-05
1.4261017e-05
1.4410933e-05
1.4582391e-05
1.4779717e-05
1.5007027e-05
1.5268322e-05
1.5567643e-05
1.5909251e-05
1.6297854e-05
1.6738643e-05
1.7237719e-05
1.7802597e-05
1.8442807e-05
1.9169497e-05
1.9997379e-05
2.0946414e-05
2.2042958e-05
2.331786e-05
2.4822323e-05
2.6625081e-05
2.8817796e-05
3.1539021e-05
3.5021286e-05
3.9589886e-05
4.5762415e-05
5.4292196e-05
6.6615713e-05
8.5071028e-05
0.00011392528
0.00016179721
0.00024226938
0.00038664632
0.00064809827
0.0011203011
0.0019771832
0.0033853658
0.0054524223
0.0082003467
0.011534938
0.015248994
0.019099765
0.022886514
0.026477303
0.029796375
0.032805578
0.035492108
0.037859815
0.039922676
0.041700461
0.043215814
0.04449236
0.045553472
0.046421536
0.047117532
0.047660836
0.048069151
0.048358511
0.048543351
0.048636608
0.048649833
0.048593303
0.048476144
0.048306444
0.048091366
0.047837239
0.047549655
0.047233549
0.046893273
0.04653266
0.046155088
0.045763528
0.045360596
0.04494859
0.044529532
0.044105205
0.043677165
0.043246826
0.042815348
0.042383984
0.041953413
0.04152528
0.041099221
0.040678793
0.040262438
0.039850659
0.039494938
0.038850718
1.2228737e-05
1.2369382e-05
1.2516588e-05
1.2661407e-05
1.2798185e-05
1.2924096e-05
1.3038914e-05
1.3144012e-05
1.3241298e-05
1.3332791e-05
1.3420631e-05
1.350713e-05
1.3594809e-05
1.3686419e-05
1.3784925e-05
1.3893463e-05
1.4015223e-05
1.4153382e-05
1.4311082e-05
1.4491426e-05
1.4697511e-05
1.4932516e-05
1.5199765e-05
1.5502843e-05
1.5845773e-05
1.6233318e-05
1.6671026e-05
1.716558e-05
1.7725428e-05
1.8361569e-05
1.9087008e-05
1.9919691e-05
2.0884107e-05
2.201197e-05
2.3345711e-05
2.4951161e-05
2.691905e-05
2.9369954e-05
3.2530817e-05
3.6720716e-05
4.2437652e-05
5.0439699e-05
6.219267e-05
8.0004395e-05
0.00010859004
0.00015667695
0.00024038362
0.00039495783
0.00067513402
0.0012006873
0.0021308568
0.0036047091
0.0056858748
0.0083532603
0.011469899
0.014827584
0.018225305
0.02151608
0.024608538
0.027451321
0.030020388
0.032310262
0.034327307
0.03608506
0.037601074
0.038894797
0.039986191
0.040894873
0.041639579
0.042237854
0.04270591
0.043058567
0.04330928
0.043470182
0.043552172
0.043565002
0.043517376
0.043417047
0.043270908
0.043085076
0.042864977
0.04261542
0.042340657
0.042044455
0.041730139
0.041400653
0.041058595
0.040706269
0.040345701
0.039978721
0.039606882
0.039231754
0.038854386
0.038476578
0.038098484
0.03772339
0.037350802
0.036980411
0.03666236
0.036078985
1.1983549e-05
1.2101477e-05
1.2225049e-05
1.234757e-05
1.2464492e-05
1.2573192e-05
1.2673044e-05
1.2764741e-05
1.2849477e-05
1.2928547e-05
1.3003282e-05
1.3075051e-05
1.3145291e-05
1.3215566e-05
1.3287615e-05
1.3363375e-05
1.3444937e-05
1.3534511e-05
1.3634396e-05
1.3746944e-05
1.3874528e-05
1.4019542e-05
1.4184426e-05
1.437169e-05
1.4583977e-05
1.4824174e-05
1.50955e-05
1.5401615e-05
1.5746822e-05
1.6136421e-05
1.6576732e-05
1.7075647e-05
1.7643448e-05
1.8293364e-05
1.9042129e-05
1.9912957e-05
2.0937987e-05
2.2156831e-05
2.3634127e-05
2.5461164e-05
2.7761155e-05
3.0748635e-05
3.4764488e-05
4.0307439e-05
4.8216794e-05
6.0009972e-05
7.8301828e-05
0.00010863136
0.0001604381
0.0002545422
0.00043056206
0.00075806718
0.0013748271
0.0024210975
0.0039909543
0.0061100937
0.0087030857
0.011604342
0.014625496
0.017613594
0.020466744
0.023123799
0.025552021
0.027738335
0.029682661
0.031393103
0.032882668
0.03416702
0.035262994
0.036187603
0.036957423
0.037588208
0.038094679
0.038490425
0.038787873
0.038998308
0.039131926
0.039197899
0.039204456
0.039158956
0.039067968
0.03893735
0.038772312
0.038577491
0.038357003
0.038114506
0.037853244
0.037576105
0.037285642
0.036984157
0.036673642
0.036356029
0.036032769
0.035705869
0.035375989
0.035046251
0.034717079
0.034387647
0.034106281
0.033581801
1.1743516e-05
1.1843163e-05
1.1947674e-05
1.2052026e-05
1.2152586e-05
1.2247001e-05
1.2334438e-05
1.2415152e-05
1.2489875e-05
1.2559474e-05
1.262486e-05
1.2686937e-05
1.2746608e-05
1.2804801e-05
1.2862519e-05
1.2920888e-05
1.298116e-05
1.3044714e-05
1.3113064e-05
1.3187838e-05
1.3270744e-05
1.3363557e-05
1.3468104e-05
1.3586262e-05
1.3719965e-05
1.387124e-05
1.4042244e-05
1.4235319e-05
1.445306e-05
1.4698457e-05
1.497498e-05
1.5286734e-05
1.5638753e-05
1.6037326e-05
1.649023e-05
1.7007447e-05
1.7602366e-05
1.8291517e-05
1.9098037e-05
2.0054509e-05
2.1202749e-05
2.2606114e-05
2.4361063e-05
2.659485e-05
2.9537667e-05
3.3550521e-05
3.9181358e-05
4.7417993e-05
5.99216e-05
8.0000063e-05
0.00011415367
0.00017443576
0.00028856823
0.0005014314
0.00091439766
0.0016593757
0.0028479577
0.0045320215
0.0066831297
0.009178017
0.011849073
0.014545381
0.017159565
0.019623852
0.021899107
0.023966353
0.025820294
0.027464513
0.028908135
0.030163522
0.031244694
0.032166283
0.032942849
0.033588442
0.034116347
0.034538937
0.034867616
0.03511281
0.035283993
0.035389732
0.035437746
0.03543497
0.035387619
0.035301256
0.035180845
0.035030822
0.034855139
0.034657325
0.034440518
0.034207543
0.033960881
0.033702873
0.033435405
0.033160744
0.032880055
0.032596388
0.032310977
0.032022736
0.031777759
0.03131126
1.1507506e-05
1.1592327e-05
1.1681347e-05
1.1770782e-05
1.1857748e-05
1.1940185e-05
1.2017179e-05
1.2088697e-05
1.2155147e-05
1.2217104e-05
1.227521e-05
1.2330116e-05
1.2382454e-05
1.2432841e-05
1.2481906e-05
1.2530323e-05
1.2578826e-05
1.2628229e-05
1.2679448e-05
1.2733509e-05
1.2791534e-05
1.2854737e-05
1.292441e-05
1.3001916e-05
1.3088677e-05
1.3186181e-05
1.3295991e-05
1.341976e-05
1.3559261e-05
1.3716432e-05
1.3893434e-05
1.4092714e-05
1.4317115e-05
1.4570026e-05
1.4855526e-05
1.5178598e-05
1.5545599e-05
1.5964404e-05
1.6445142e-05
1.7001483e-05
1.7650929e-05
1.8417157e-05
1.9334477e-05
2.0446871e-05
2.1822359e-05
2.3564978e-05
2.5810655e-05
2.8831873e-05
3.3018652e-05
3.9036366e-05
4.8051974e-05
6.210935e-05
8.5703717e-05
0.00012661943
0.00020305655
0.00034899821
0.00063226012
0.0011695599
0.0020764314
0.0034207867
0.0052078619
0.0073514538
0.0097073326
0.012131887
0.014516484
0.016789654
0.018908045
0.020848425
0.022601504
0.024167256
0.025551597
0.026764069
0.027816236
0.028720603
0.029489891
0.030136574
0.030672577
0.031109116
0.031456604
0.031724624
0.031921933
0.032056487
0.032135489
0.032165433
0.032152165
0.032100933
0.032016441
0.031902908
0.031764107
0.031603435
0.031423901
0.031228309
0.031019011
0.030798584
0.030568705
0.030332441
0.030091743
0.029845502
0.029637214
0.02922868
1.1274762e-05
1.1347468e-05
1.1423807e-05
1.1500911e-05
1.1576502e-05
1.1648812e-05
1.1716921e-05
1.178062e-05
1.1840086e-05
1.1895679e-05
1.1947845e-05
1.1997065e-05
1.2043811e-05
1.2088537e-05
1.2131686e-05
1.2173707e-05
1.2215061e-05
1.2256238e-05
1.2297784e-05
1.2340312e-05
1.2384508e-05
1.2431137e-05
1.2481041e-05
1.2535139e-05
1.259442e-05
1.265994e-05
1.2732826e-05
1.2814272e-05
1.2905549e-05
1.3008021e-05
1.3123166e-05
1.3252606e-05
1.339815e-05
1.3561857e-05
1.3746118e-05
1.395374e-05
1.4188127e-05
1.4453424e-05
1.4754733e-05
1.5098589e-05
1.5493289e-05
1.5949447e-05
1.6481541e-05
1.7108173e-05
1.785481e-05
1.8758931e-05
1.9867302e-05
2.1258989e-05
2.3048007e-05
2.5396419e-05
2.8628826e-05
3.3197715e-05
3.9972488e-05
5.0350279e-05
6.7338138e-05
9.6645408e-05
0.00015022453
0.00025396919
0.00045423303
0.00084973275
0.0015507056
0.0026345941
0.0041279267
0.0059746286
0.0080534106
0.010231057
0.012400956
0.014490428
0.01645383
0.018265177
0.019912325
0.021392489
0.022709015
0.023869105
0.024882225
0.025759016
0.026510559
0.027147888
0.027681684
0.028122076
0.028478543
0.028759858
0.028974083
0.029128577
0.029230027
0.029284491
0.029297439
0.029273806
0.029218028
0.029134113
0.029025639
0.028895907
0.028747775
0.028584171
0.028407298
0.02822032
0.028025831
0.027822913
0.027652137
0.027302351
1.1044807e-05
1.1107542e-05
1.1173427e-05
1.1240274e-05
1.1306288e-05
1.1369975e-05
1.1430459e-05
1.1487428e-05
1.1540902e-05
1.1591079e-05
1.1638258e-05
1.1682788e-05
1.1725028e-05
1.1765328e-05
1.1804028e-05
1.1841459e-05
1.1877947e-05
1.1913819e-05
1.1949418e-05
1.1985119e-05
1.2021335e-05
1.2058527e-05
1.2097209e-05
1.2137958e-05
1.2181413e-05
1.2228275e-05
1.2279311e-05
1.2335354e-05
1.2397302e-05
1.2466123e-05
1.2542864e-05
1.2628659e-05
1.2724747e-05
1.28325e-05
1.2953457e-05
1.3089367e-05
1.3242263e-05
1.3414542e-05
1.3609061e-05
1.3829315e-05
1.4079637e-05
1.4365402e-05
1.469356e-05
1.5072988e-05
1.5515116e-05
1.6035837e-05
1.665514e-05
1.7401926e-05
1.8317876e-05
1.9456673e-05
2.0912818e-05
2.2813083e-05
2.5381029e-05
2.8980338e-05
3.424449e-05
4.2241589e-05
5.5023368e-05
7.6961737e-05
0.00011620406
0.00019254397
0.00033991138
0.00063809572
0.0011886232
0.0020748258
0.003334833
0.0049349379
0.0067742835
0.0087314484
0.010704265
0.012620893
0.014434992
0.016119092
0.017659179
0.01905047
0.020294328
0.021396059
0.022363371
0.023205305
0.023931503
0.024551719
0.025075498
0.025511975
0.025869757
0.026156857
0.026380671
0.026547985
0.026664993
0.026737325
0.026770089
0.026767913
0.02673497
0.026675088
0.026591652
0.026487989
0.026366832
0.026231518
0.026085224
0.025927416
0.025795433
0.025505895
1.0817369e-05
1.087184e-05
1.092905e-05
1.0987316e-05
1.1045223e-05
1.1101525e-05
1.115542e-05
1.1206543e-05
1.125481e-05
1.1300302e-05
1.1343204e-05
1.1383761e-05
1.1422244e-05
1.1458925e-05
1.1494072e-05
1.1527947e-05
1.15608e-05
1.1592876e-05
1.1624416e-05
1.165567e-05
1.1686902e-05
1.1718394e-05
1.1750458e-05
1.178344e-05
1.1817731e-05
1.1853766e-05
1.1892035e-05
1.1933082e-05
1.1977509e-05
1.2025978e-05
1.2079214e-05
1.2138008e-05
1.2203228e-05
1.2275823e-05
1.2356842e-05
1.2447454e-05
1.2548977e-05
1.2662919e-05
1.2791025e-05
1.2935353e-05
1.3098373e-05
1.3283071e-05
1.3493147e-05
1.3733232e-05
1.4009112e-05
1.4328403e-05
1.4700747e-05
1.5138899e-05
1.5660654e-05
1.6288498e-05
1.7056703e-05
1.8011326e-05
1.9222381e-05
2.0798039e-05
2.2898028e-05
2.5821747e-05
3.0037313e-05
3.6424709e-05
4.6440739e-05
6.3472827e-05
9.3526465e-05
0.00015158282
0.00026531583
0.00049674461
0.00093858339
0.0016748157
0.0027505059
0.0041478335
0.0057827912
0.0075456082
0.0093399979
0.011096494
0.012769336
0.014330614
0.01576528
0.017067209
0.018236293
0.019276348
0.020193646
0.020995874
0.021691431
0.022288943
0.022796941
0.023223654
0.023576886
0.023863944
0.024091605
0.024266118
0.024393203
0.024478095
0.024525548
0.02453993
0.024525164
0.024485006
0.024422725
0.02434189
0.024246215
0.024135717
0.02404422
0.023817075
1.0592325e-05
1.0639905e-05
1.068987e-05
1.0740916e-05
1.0791929e-05
1.0841877e-05
1.0890044e-05
1.0936052e-05
1.097975e-05
1.1021136e-05
1.1060309e-05
1.1097434e-05
1.1132706e-05
1.1166337e-05
1.1198538e-05
1.122952e-05
1.1259485e-05
1.128863e-05
1.131714e-05
1.1345204e-05
1.1373005e-05
1.1400732e-05
1.1428585e-05
1.1456777e-05
1.1485543e-05
1.1515144e-05
1.1545878e-05
1.1578079e-05
1.1612127e-05
1.1648447e-05
1.1687518e-05
1.1729871e-05
1.1776096e-05
1.1826846e-05
1.1882844e-05
1.194489e-05
1.2013877e-05
1.2090807e-05
1.2176819e-05
1.2273215e-05
1.2381517e-05
1.2503515e-05
1.2641353e-05
1.2797645e-05
1.2975582e-05
1.3179186e-05
1.3413505e-05
1.3684932e-05
1.4001989e-05
1.4375444e-05
1.482019e-05
1.5356099e-05
1.6010725e-05
1.6824311e-05
1.7851415e-05
1.9183272e-05
2.095184e-05
2.3385996e-05
2.6864719e-05
3.2111688e-05
4.0254529e-05
5.3903554e-05
7.7919924e-05
0.00012383825
0.00021462244
0.00040009936
0.0007637344
0.0013869202
0.0023181524
0.0035502028
0.0050122733
0.0066053453
0.0082397557
0.0098495038
0.011390395
0.012834908
0.014167643
0.015381685