/*--------------------------------*- C++ -*----------------------------------*\
| =========                 |                                                 |
| \\      /  F ield         | OpenFOAM: The Open Source CFD Toolbox           |
|  \\    /   O peration     | Version:  2206                                  |
|   \\  /    A nd           | Website:  www.openfoam.com                      |
|    \\/     M anipulation  |                                                 |
\*---------------------------------------------------------------------------*/
FoamFile
{
    version     2.0;
    format      ascii;
    arch        "LSB;label=32;scalar=64";
    class       volScalarField;
    location    "900";
    object      k;
}
// * * * * * * * * * * * * * * * * * * * * * * * * * * * * * * * * * * * * * //

dimensions      [0 2 -2 0 0 0 0];

internalField   nonuniform List<scalar> 
7480
(
0.032174849
0.062203146
0.068876166
0.063422728
0.054858671
0.047489508
0.042177998
0.038348992
0.035411021
0.033017475
0.03101054
0.02931645
0.027885307
0.026675134
0.025649685
0.024776194
0.024029582
0.023390478
0.022839697
0.022365259
0.021948221
0.021578201
0.021246018
0.020943978
0.020667018
0.020410968
0.020172956
0.019950097
0.019739816
0.019539975
0.019349376
0.0191672
0.018992562
0.01882473
0.018662852
0.018506566
0.018354683
0.018207012
0.018063203
0.017922809
0.017785506
0.01765101
0.017519104
0.017389649
0.017262471
0.017137453
0.017014433
0.016893235
0.016773766
0.016655922
0.016539624
0.016424822
0.01631145
0.016199477
0.016088841
0.015979497
0.015871412
0.015764526
0.015658787
0.015554156
0.015450633
0.015348205
0.015246845
0.015146533
0.015047252
0.014948988
0.014851709
0.014755393
0.014660029
0.014565605
0.014472106
0.014379517
0.014287826
0.014197024
0.014107098
0.01401803
0.013929806
0.013842414
0.013755839
0.013670069
0.01358509
0.013500886
0.013417442
0.013334739
0.013252761
0.013171482
0.013090879
0.013010914
0.012931563
0.012852744
0.01277446
0.012696461
0.012618979
0.012541008
0.012464009
0.012383816
0.012306595
0.012217427
0.012145924
0.012009671
0.0025315976
0.0095578481
0.016653105
0.020685949
0.02173372
0.02146312
0.020826597
0.020176005
0.019541469
0.01891096
0.018300328
0.017734582
0.017227771
0.016782009
0.016394064
0.016051065
0.015752065
0.015495484
0.015275868
0.015084713
0.014915719
0.01476312
0.01462228
0.014490639
0.014367093
0.014250256
0.014139802
0.014033767
0.013930845
0.013830254
0.013732042
0.013636198
0.013542489
0.013450751
0.013360437
0.013271841
0.01318374
0.013096691
0.013010609
0.012925243
0.01284046
0.012756211
0.012672495
0.012589304
0.012506619
0.012424456
0.012342732
0.012261405
0.012180463
0.012099902
0.012019741
0.01193999
0.011860661
0.011781771
0.011703309
0.011625297
0.011547737
0.011470612
0.011393905
0.011317628
0.011241811
0.011166474
0.011091617
0.011017245
0.010943373
0.010870004
0.010797132
0.010724754
0.010652883
0.010581525
0.010510682
0.010440354
0.010370545
0.010301264
0.010232507
0.010164273
0.010096561
0.01002937
0.0099627008
0.0098965507
0.0098309177
0.009765799
0.0097011904
0.009637087
0.0095734824
0.0095103682
0.0094477343
0.0093855669
0.0093238496
0.0092625577
0.0092016653
0.0091411172
0.0090808847
0.0090207947
0.0089609129
0.0089005392
0.0088402638
0.0087769394
0.008720485
0.0086186061
0.00022272786
0.00057327229
0.0013089218
0.0026320438
0.0042084051
0.0058219034
0.0072757231
0.0085098053
0.0095735044
0.010500741
0.011295971
0.011954505
0.012480518
0.012891397
0.013210665
0.013466464
0.013674056
0.01384179
0.013975836
0.014080653
0.014160541
0.014218939
0.014257981
0.014281257
0.014291717
0.014290668
0.014283002
0.014267038
0.014243767
0.01421383
0.014178893
0.014139824
0.014097164
0.014051483
0.014002586
0.013951697
0.013897242
0.013841064
0.013782988
0.01372303
0.013661328
0.013598071
0.013533465
0.013467667
0.013400816
0.013333075
0.013264439
0.013194989
0.01312481
0.013053985
0.012982628
0.012910814
0.012838627
0.012766142
0.012693397
0.01262047
0.012547402
0.012474213
0.012400916
0.012327564
0.012254227
0.012180952
0.012107765
0.012034698
0.011961788
0.011889062
0.011816528
0.011744204
0.011672121
0.011600304
0.011528767
0.011457524
0.011386594
0.011315998
0.011245745
0.011175842
0.0111063
0.011037128
0.010968335
0.010899928
0.010831914
0.010764297
0.010697081
0.010630268
0.01056386
0.010497855
0.01043225
0.01036704
0.010302213
0.010237762
0.010173651
0.010109882
0.010046347
0.0099831072
0.0099198189
0.0098567444
0.0097928791
0.00972831
0.0096678888
0.0095625557
0.00016245198
0.0001745339
0.00020542934
0.00028627984
0.00045252509
0.00069794518
0.0011531393
0.0017918829
0.0026164568
0.0035370462
0.0044946046
0.0054739973
0.0064627528
0.0074380154
0.0083684218
0.0092253584
0.0099907703
0.010659488
0.011236836
0.011732605
0.01215669
0.012517837
0.012824247
0.013082567
0.01329937
0.013479664
0.013628994
0.01375194
0.013851829
0.013932303
0.01399591
0.014045016
0.014081577
0.014107537
0.01412375
0.014132283
0.014130497
0.01412304
0.014108797
0.014088779
0.014063557
0.014033683
0.013999667
0.013961938
0.013920887
0.013876898
0.013830094
0.013780768
0.013729146
0.013675448
0.013619914
0.013562723
0.013504064
0.013444101
0.013382941
0.013320742
0.013257603
0.013193598
0.013128788
0.013063283
0.012997199
0.012930627
0.012863626
0.012796265
0.012728615
0.01266073
0.012592641
0.012524393
0.012456043
0.012387633
0.012319199
0.012250773
0.012182391
0.012114091
0.012045897
0.011977828
0.011909908
0.011842161
0.011774604
0.011707258
0.011640137
0.011573257
0.011506632
0.011440271
0.011374184
0.011308379
0.011242859
0.011177629
0.011112685
0.011048029
0.01098363
0.01091952
0.01085556
0.010791927
0.010728104
0.010664805
0.010600329
0.010536342
0.010474961
0.010370436
0.00016468263
0.0001669925
0.00016880405
0.00017112122
0.00017743288
0.00019006906
0.00022058866
0.00028537895
0.00039323859
0.00059628013
0.00091371985
0.0013521519
0.0019227927
0.0025909061
0.0033466065
0.0041817203
0.0050790382
0.0060085558
0.0069321851
0.0078131076
0.008624997
0.0093557083
0.010004612
0.010576632
0.011078297
0.011515854
0.011895897
0.0122251
0.012510117
0.012756383
0.012968452
0.013150487
0.013306137
0.013438343
0.013550012
0.01364429
0.013721655
0.013784885
0.013835517
0.013874618
0.013903327
0.013922808
0.013934037
0.013937845
0.013935016
0.013926305
0.013912148
0.013892973
0.013869188
0.013841229
0.013809536
0.013774443
0.013736274
0.013695327
0.013651851
0.013606132
0.013558346
0.013508651
0.013457179
0.013404124
0.013349672
0.01329397
0.01323713
0.013179275
0.013120521
0.013060963
0.013000663
0.012939706
0.012878181
0.012816161
0.012753708
0.012690878
0.012627732
0.012564333
0.012500721
0.012436937
0.01237302
0.012309011
0.012244944
0.012180853
0.012116767
0.012052713
0.011988718
0.011924803
0.011860988
0.011797292
0.011733729
0.011670313
0.011607049
0.011543953
0.011481
0.011418244
0.011355539
0.011293135
0.011230424
0.011168398
0.01110498
0.011042816
0.01098233
0.010880675
0.00016615788
0.00017018707
0.00017208013
0.00017267123
0.00017280631
0.00017258754
0.00017274399
0.00017415537
0.00017867228
0.00019140614
0.00021983256
0.00027320617
0.00035986213
0.00051279258
0.00074762037
0.0010856272
0.0015366609
0.0020933025
0.0027553686
0.0035161001
0.0043556739
0.0052407499
0.0061306947
0.0069880987
0.0077874144
0.0085167644
0.0091742119
0.0097625642
0.010286366
0.010750733
0.011161085
0.011522913
0.011841375
0.012121044
0.012366105
0.012580804
0.012767903
0.012930518
0.013071385
0.01319278
0.013296727
0.013384941
0.013459001
0.013520334
0.013570128
0.013609494
0.013639531
0.013661119
0.013675068
0.013682078
0.013682763
0.013677658
0.013667295
0.013652157
0.013632682
0.013609341
0.013582402
0.013552145
0.013518853
0.013482817
0.013444281
0.013403469
0.013360566
0.013315754
0.013269228
0.013221145
0.013171613
0.013120773
0.013068757
0.013015677
0.01296163
0.012906707
0.012851004
0.012794614
0.012737601
0.012680032
0.012621971
0.012563478
0.01250461
0.012445417
0.012385948
0.012326247
0.012266354
0.012206306
0.012146138
0.012085881
0.012025562
0.011965207
0.011904834
0.011844472
0.011784105
0.011723808
0.011663437
0.011603292
0.011542728
0.011482901
0.011421555
0.011361938
0.011303435
0.011205794
0.00016544026
0.0001707602
0.00017420481
0.00017615272
0.00017629139
0.00017602469
0.0001754738
0.0001747489
0.00017415997
0.00017350751
0.00017387089
0.00017573005
0.00018095688
0.00019317605
0.00021748344
0.00026168114
0.00033276788
0.00045721774
0.00065435515
0.00094557824
0.0013474089
0.001859758
0.002484139
0.0032113685
0.0040173594
0.0048653776
0.0057146622
0.0065313124
0.0072946019
0.0079960422
0.008634412
0.0092115338
0.0097305228
0.01019534
0.010610429
0.010980548
0.011309811
0.011602153
0.011861305
0.012090606
0.01229305
0.012471287
0.012627693
0.012764422
0.012883366
0.012986223
0.013074575
0.013149815
0.013213184
0.013265787
0.013308596
0.013342529
0.013368351
0.013386765
0.013398429
0.013403872
0.013403692
0.013398384
0.01338841
0.013374146
0.013355952
0.013334161
0.013309051
0.01328091
0.013250024
0.013216613
0.013180845
0.013142935
0.013103065
0.013061408
0.013018119
0.012973345
0.012927203
0.012879815
0.012831289
0.012781726
0.012731221
0.012679863
0.012627732
0.012574906
0.012521455
0.012467443
0.012412931
0.012357974
0.012302624
0.012246928
0.01219093
0.012134671
0.012078182
0.012021508
0.011964646
0.011907691
0.011850507
0.011793428
0.011735808
0.011678891
0.011620373
0.011563844
0.011508063
0.011415268
0.00016361433
0.00016913034
0.00017343111
0.00017603279
0.00017728603
0.00017754879
0.00017737912
0.00017694254
0.00017629222
0.00017555989
0.00017481885
0.00017416453
0.00017358568
0.00017336775
0.00017384845
0.00017621786
0.00018160258
0.00019302802
0.00021515112
0.00025529763
0.00032151371
0.00043858503
0.00062858104
0.00091281622
0.0013078646
0.0018170027
0.0024388466
0.0031581319
0.003944482
0.0047584474
0.0055625649
0.0063302182
0.0070474663
0.0077092341
0.0083147651
0.0088654426
0.0093638503
0.0098134047
0.010217899
0.010581104
0.010906649
0.011197941
0.011458124
0.011690096
0.011896486
0.012079672
0.012241842
0.012384973
0.012510843
0.012621048
0.012717006
0.012800017
0.01287123
0.012931673
0.012982294
0.01302391
0.013057319
0.013083236
0.013102316
0.013115126
0.013122188
0.013123975
0.013120937
0.013113447
0.013101841
0.013086462
0.013067643
0.013045646
0.013020724
0.012993114
0.012963036
0.012930691
0.012896254
0.012859898
0.012821772
0.012782019
0.012740772
0.012698157
0.012654286
0.012609267
0.012563197
0.012516168
0.012468265
0.012419567
0.012370145
0.012320068
0.012269398
0.012218194
0.012166505
0.012114393
0.012061871
0.012009052
0.011955818
0.011902524
0.011848548
0.011795168
0.011740122
0.011687168
0.01163468
0.011547442
0.00016137839
0.0001664341
0.00017088399
0.00017400939
0.00017584092
0.00017666877
0.00017689196
0.0001767861
0.0001764998
0.00017608706
0.00017557921
0.00017498426
0.00017434231
0.00017371137
0.00017310245
0.00017256024
0.0001721597
0.00017217829
0.00017309807
0.00017588228
0.00018175215
0.00019376105
0.00021702951
0.00025889157
0.00033165521
0.00045941091
0.00066650801
0.00097467909
0.0013944746
0.0019293724
0.0025709254
0.0032947191
0.0040642305
0.0048411624
0.0055956893
0.0063103057
0.0069770759
0.0075932051
0.0081584661
0.0086742827
0.009143194
0.0095682619
0.0099526855
0.010299671
0.010612324
0.010893568
0.011146153
0.011372626
0.011575327
0.011756387
0.011917731
0.012061115
0.012188123
0.012300181
0.012398591
0.012484511
0.012559015
0.012623085
0.012677617
0.012723412
0.012761193
0.012791616
0.012815289
0.012832751
0.012844479
0.012850932
0.012852549
0.012849706
0.012842751
0.012832006
0.012817769
0.012800315
0.012779891
0.012756716
0.012731009
0.012702962
0.012672757
0.012640559
0.012606524
0.012570797
0.01253351
0.012494787
0.012454742
0.012413483
0.012371107
0.012327707
0.012283367
0.01223817
0.012192184
0.01214549
0.012098123
0.012050212
0.012001663
0.011952845
0.011903179
0.01185394
0.011802966
0.011754066
0.011705365
0.011624352
0.00015920524
0.00016351242
0.00016760072
0.0001708417
0.00017306072
0.00017436638
0.00017501424
0.00017525381
0.00017522765
0.00017504472
0.00017475897
0.00017439406
0.0001739667
0.00017349272
0.00017297435
0.00017242253
0.0001718676
0.00017131595
0.00017080457
0.00017041271
0.00017026546
0.00017064567
0.00017213227
0.00017572835
0.00018313292
0.0001979088
0.00022639983
0.00027656661
0.00036856755
0.00052669948
0.00077512603
0.0011314867
0.0016017928
0.0021821424
0.0028524841
0.0035789939
0.0043239114
0.0050564075
0.0057572974
0.006416957
0.0070311851
0.0075986413
0.0081198519
0.0085965964
0.0090313055
0.0094266834
0.0097855555
0.010110734
0.010404926
0.010670695
0.010910425
0.011126326
0.01132043
0.011494592
0.011650512
0.011789725
0.011913642
0.012023556
0.012120653
0.012206005
0.012280581
0.012345261
0.012400851
0.012448081
0.012487603
0.012520026
0.012545922
0.012565802
0.01258013
0.012589337
0.012593816
0.012593931
0.012590013
0.01258236
0.012571254
0.012556955
0.0125397
0.01251971
0.012497192
0.012472333
0.01244531
0.012416285
0.01238541
0.012352825
0.012318659
0.012283034
0.012246062
0.01220785
0.012168492
0.012128093
0.012086709
0.012044489
0.012001368
0.011957723
0.011913031
0.011868544
0.01182223
0.011777889
0.011733435
0.011659314
0.00015730841
0.00016084177
0.00016433973
0.00016734256
0.00016965373
0.00017125792
0.00017226624
0.0001728384
0.00017310443
0.00017316218
0.00017307921
0.00017289738
0.00017264237
0.00017233107
0.00017197326
0.00017157514
0.00017114505
0.00017068422
0.00017019307
0.00016969505
0.00016920324
0.00016874635
0.00016837819
0.00016819804
0.00016839218
0.00016933278
0.00017182574
0.00017702463
0.00018760779
0.00020862228
0.00024756242
0.00031925151
0.00044798355
0.00065934545
0.00097420675
0.0014007693
0.0019377598
0.0025674203
0.0032575057
0.0039712253
0.0046782519
0.0053593637
0.0060043909
0.0066083759
0.0071692896
0.0076870781
0.0081629905
0.0085989819
0.0089973701
0.0093606488
0.0096913338
0.0099918877
0.010264667
0.010511885
0.010735611
0.010937752
0.011120071
0.011284199
0.011431639
0.011563766
0.011681829
0.011786967
0.011880222
0.011962546
0.012034798
0.012097767
0.012152189
0.012198732
0.012238004
0.012270562
0.012296919
0.012317545
0.012332873
0.012343293
0.01234917
0.012350839
0.012348611
0.01234277
0.012333583
0.012321293
0.012306127
0.012288295
0.012267991
0.012245397
0.012220679
0.012193994
0.012165485
0.012135292
0.012103536
0.012070347
0.012035812
0.012000098
0.011963176
0.011925429
0.011886396
0.011847294
0.011806245
0.011766996
0.011727253
0.011660712
0.00015573141
0.00015858577
0.0001614737
0.00016407089
0.00016622578
0.00016789303
0.00016910393
0.00016993432
0.00017046434
0.00017076479
0.00017089468
0.00017089864
0.00017080841
0.0001706462
0.0001704276
0.00017016334
0.00016986116
0.00016952587
0.00016915912
0.00016876576
0.0001683493
0.00016791111
0.00016746223
0.00016702367
0.0001666192
0.00016629313
0.00016612849
0.0001662663
0.00016699799
0.0001689454
0.00017315122
0.00018168045
0.00019881734
0.00023165709
0.00029273636
0.00040593341
0.00059731877
0.00088886466
0.0012902025
0.0018007239
0.002402801
0.0030644835
0.0037501642
0.0044312103
0.0050895989
0.0057154795
0.0063037298
0.006852069
0.0073601671
0.0078289392
0.008259999
0.0086553601
0.0090172309
0.0093478693
0.0096495086
0.0099242966
0.010174277
0.010401378
0.010607403
0.010794027
0.010962792
0.011115114
0.011252298
0.01137554
0.011485931
0.011584473
0.011672092
0.011749636
0.01181788
0.011877533
0.011929247
0.011973622
0.012011206
0.012042501
0.012067971
0.012088043
0.01210311
0.012113537
0.012119659
0.012121787
0.012120207
0.012115186
0.01210697
0.012095788
0.01208185
0.012065356
0.012046486
0.012025415
0.012002298
0.011977297
0.011950529
0.011922187
0.011892278
0.011861193
0.011828541
0.011795495
0.011760342
0.011726763
0.011692211
0.011633975
0.00015444285
0.00015674256
0.00015909451
0.00016126591
0.00016314715
0.00016470151
0.00016593737
0.00016688741
0.00016758965
0.0001680822
0.00016840285
0.00016858567
0.00016865913
0.00016864583
0.00016856348
0.00016842576
0.00016824256
0.00016802107
0.00016776595
0.000167481
0.0001671692
0.00016683206
0.00016647166
0.00016609219
0.00016569828
0.00016529299
0.00016490147
0.00016454566
0.00016426524
0.00016413487
0.00016428737
0.00016497238
0.00016671808
0.00017050432
0.00017812403
0.00019356362
0.00022369872
0.00028077421
0.00038839244
0.00057312304
0.0008564751
0.0012484918
0.0017472092
0.0023331111
0.0029735599
0.0036345641
0.00429022
0.0049245687
0.0055286526
0.0060976278
0.0066293105
0.0071233305
0.0075804279
0.0080019942
0.0083898069
0.0087458326
0.0090721108
0.0093706767
0.0096435116
0.0098925108
0.010119462
0.010326038
0.010513799
0.010684193
0.010838554
0.010978111
0.011104004
0.011217278
0.011318897
0.011409743
0.011490628
0.011562299
0.011625442
0.011680687
0.011728612
0.011769754
0.011804603
0.011833615
0.01185721
0.011875775
0.011889668
0.011899221
0.011904742
0.011906514
0.011904803
0.011899852
0.01189189
0.011881132
0.011867773
0.011852009
0.011833995
0.011813951
0.011791925
0.011768319
0.011742817
0.011716546
0.011687958
0.011660675
0.011631829
0.011582675
0.0001533917
0.00015525122
0.00015716323
0.00015895661
0.00016054828
0.0001619117
0.00016305386
0.00016399502
0.00016475455
0.00016534971
0.00016579879
0.00016612081
0.00016633438
0.00016645662
0.00016650275
0.00016648595
0.00016641662
0.00016630296
0.00016615128
0.00016596634
0.00016575183
0.00016551029
0.00016524365
0.00016495364
0.00016464222
0.00016430996
0.00016396157
0.00016360267
0.00016323842
0.00016288775
0.00016257759
0.00016234768
0.00016227023
0.00016247783
0.00016320468
0.00016495674
0.00016869654
0.00017619882
0.00019150141
0.00022152784
0.0002797932
0.00039004999
0.0005795543
0.00086776854
0.0012639245
0.0017626612
0.0023408561
0.0029651007
0.0036038947
0.0042348693
0.0048445547
0.0054252224
0.005972644
0.0064849611
0.0069618839
0.0074040846
0.0078128303
0.008189734
0.0085365881
0.0088552565
0.0091476021
0.0094154432
0.0096605238
0.0098844994
0.010088924
0.010275246
0.010444817
0.010598892
0.01073863
0.010865103
0.010979297
0.011082125
0.011174428
0.011256979
0.011330489
0.011395616
0.011452967
0.0115031
0.011546532
0.011583741
0.011615167
0.011641219
0.011662275
0.011678683
0.011690769
0.011698835
0.011703159
0.011704005
0.011701613
0.011696222
0.011688026
0.011677279
0.011664075
0.011648828
0.0116313
0.011612576
0.011591274
0.011570965
0.011548385
0.011509149
0.00015253011
0.00015404279
0.00015560283
0.0001570825
0.0001584153
0.00015957889
0.00016058008
0.0001614369
0.00016216483
0.00016277441
0.00016327431
0.00016367299
0.00016397941
0.00016420304
0.00016435362
0.00016444081
0.00016447312
0.00016445789
0.00016440137
0.00016430867
0.00016418384
0.00016403001
0.00016384955
0.00016364426
0.00016341569
0.00016316471
0.00016289273
0.00016260165
0.00016229288
0.00016197034
0.00016164059
0.00016131132
0.00016099928
0.00016073551
0.00016056111
0.00016055251
0.00016084873
0.00016169293
0.00016362636
0.00016763637
0.00017570931
0.00019226532
0.00022462213
0.00028905779
0.0004100268
0.00061511082
0.00092011623
0.0013316017
0.0018386375
0.0024138609
0.0030241497
0.0036417934
0.0042484319
0.0048330762
0.0053893117
0.0059137028
0.0064048373
0.0068625934
0.0072876622
0.0076812438
0.0080448354
0.0083800929
0.0086887334
0.008972475
0.0092329926
0.0094718924
0.0096907002
0.0098908552
0.010073706
0.010240509
0.010392434
0.010530566
0.010655912
0.010769399
0.010871887
0.010964169
0.011046979
0.011120996
0.011186844
0.011245104
0.011296312
0.011340962
0.011379513
0.01141239
0.011439988
0.011462672
0.011480781
0.011494635
0.011504525
0.011510737
0.011513514
0.011513146
0.011509778
0.011503842
0.01149518
0.011484839
0.011471598
0.011459
0.011443296
0.011414889
0.00015181938
0.00015305797
0.00015433793
0.00015556319
0.00015667917
0.00015766444
0.00015852296
0.00015927041
0.00015992192
0.00016048794
0.00016097545
0.00016138927
0.00016173335
0.00016201165
0.00016222876
0.00016238994
0.00016250044
0.0001625653
0.00016258929
0.00016257671
0.00016253118
0.00016245573
0.00016235276
0.00016222419
0.00016207153
0.00016189586
0.00016169813
0.00016147934
0.00016124027
0.00016098206
0.00016070675
0.0001604166
0.00016011558
0.00015981145
0.00015951377
0.00015924034
0.00015902581
0.00015891538
0.00015899708
0.00015942279
0.00016047075
0.00016277614
0.00016739957
0.00017680434
0.00019617281
0.00023374629
0.00030996663
0.0004509811
0.0006808595
0.0010131845
0.0014483642
0.0019681513
0.0025417494
0.0031382805
0.0037348736
0.0043171237
0.0048763426
0.0054074673
0.0059079002
0.0063766789
0.006813892
0.0072203049
0.0075970983
0.0079456951
0.008267641
0.0085645246
0.0088379277
0.0090893931
0.0093204043
0.0095323715
0.0097266263
0.0099044182
0.010066916
0.01021521
0.010350309
0.010473155
0.010584619
0.010685506
0.010776566
0.010858491
0.010931922
0.010997453
0.011055635
0.011106976
0.01115195
0.011190997
0.011224523
0.011252911
0.011276513
0.011295667
0.011310669
0.011321854
0.011329422
0.011333828
0.011334997
0.011333945
0.011329607
0.011325522
0.011317362
0.011300777
0.00015122954
0.00015225006
0.00015330636
0.00015432598
0.00015526393
0.00015609918
0.00015683186
0.00015747375
0.00015803838
0.00015853671
0.00015897665
0.00015936337
0.00015970006
0.00015998884
0.00016023158
0.00016043052
0.00016058804
0.00016070666
0.0001607891
0.00016083811
0.00016085622
0.00016084569
0.00016080844
0.00016074609
0.00016065994
0.00016055099
0.00016042005
0.00016026783
0.00016009489
0.00015990178
0.00015968927
0.00015945826
0.00015920999
0.00015894677
0.00015867173
0.00015838952
0.00015810932
0.00015784247
0.00015761063
0.00015745249
0.00015742108
0.00015762605
0.00015823825
0.00015960772
0.00016252803
0.00016823247
0.00017999233
0.00020394369
0.00025222468
0.00034766705
0.00051816564
0.00078283482
0.0011508303
0.0016136723
0.0021458351
0.0027157873
0.0032970928
0.0038719822
0.004429448
0.0049628189
0.0054683319
0.0059441905
0.0063898779
0.0068057107
0.0071925351
0.0075515206
0.0078840222
0.0081914878
0.0084753963
0.0087372147
0.0089783707
0.0092002355
0.0094041142
0.0095912388
0.0097627671
0.0099197825
0.010063297
0.010194252
0.010313524
0.010421928
0.010520221
0.010609103
0.010689226
0.010761195
0.010825571
0.010882874
0.010933591
0.010978172
0.011017037
0.011050586
0.011079176
0.01110319
0.011122888
0.011138754
0.011150801
0.011160021
0.011165499
0.011170798
0.011170916
0.011167237
0.00015073746
0.00015158316
0.00015245967
0.00015331232
0.0001541042
0.00015481518
0.00015544214
0.00015599259
0.00015647727
0.00015690622
0.00015728776
0.0001576281
0.00015793139
0.00015820017
0.00015843604
0.00015864022
0.0001588137
0.00015895742
0.00015907247
0.00015916012
0.00015922161
0.00015925819
0.00015927096
0.00015926091
0.00015922886
0.00015917549
0.0001591013
0.00015900675
0.00015889216
0.00015875782
0.00015860405
0.00015843121
0.00015823974
0.0001580304
0.00015780433
0.00015756308
0.00015730952
0.00015704752
0.00015678313
0.00015652736
0.00015629355
0.00015611076
0.00015602239
0.00015609542
0.00015647262
0.00015735718
0.00015923562
0.00016304498
0.00017067527
0.00018650816
0.0002180973
0.00028353943
0.0004087774
0.00061837512
0.00092718802
0.0013356266
0.0018249709
0.0023652059
0.0029276177
0.0034914497
0.0040434694
0.0045754766
0.0050825974
0.0055622208
0.0060132323
0.0064355006
0.0068295348
0.0071962505
0.0075368117
0.0078525216
0.0081447484
0.0084148752
0.0086642667
0.0088942466
0.0091060841
0.0093009854
0.0094800901
0.0096444698
0.0097951291
0.0099330065
0.010058978
0.01017386
0.010278412
0.010373342
0.010459305
0.010536915
0.010606741
0.010669314
0.010725126
0.010774648
0.010818302
0.010856527
0.010889652
0.010918193
0.010942254
0.010962813
0.010979097
0.010994727
0.011003925
0.01101434
0.00015032511
0.00015102959
0.00015176056
0.00015247674
0.00015314807
0.00015375588
0.00015429485
0.00015476892
0.00015518571
0.0001555534
0.00015587962
0.0001561708
0.00015643188
0.00015666633
0.00015687652
0.000157064
0.00015722973
0.00015737426
0.00015749801
0.0001576014
0.00015768483
0.00015774866
0.00015779325
0.00015781892
0.00015782589
0.00015781436
0.00015778444
0.00015773621
0.0001576697
0.00015758492
0.00015748188
0.0001573606
0.00015722116
0.0001570637
0.00015688858
0.00015669629
0.00015648776
0.00015626443
0.00015602837
0.00015578327
0.00015553376
0.00015528826
0.0001550601
0.00015486561
0.00015474523
0.00015474847
0.00015497089
0.00015558019
0.00015688012
0.00015957873
0.00016483584
0.00017566554
0.0001979216
0.00024378918
0.00033592966
0.00050229527
0.00076115656
0.0011202169
0.0015678997
0.0020772789
0.0026187042
0.0031690152
0.0037129304
0.0042408169
0.0047467672
0.0052274091
0.0056810652
0.006107182
0.0065059499
0.0068780415
0.0072244333
0.0075462833
0.0078448471
0.00812142
0.0083772981
0.0086137515
0.0088320079
0.009033242
0.0092185698
0.0093890453
0.0095456606
0.009689346
0.0098209725
0.0099413537
0.010051249
0.010151367
0.01024237
0.010324873
0.010399453
0.010466653
0.010526969
0.010580905
0.010628859
0.010671392
0.010708698
0.010741754
0.010769919
0.010796906
0.010816064
0.010841869
0.00014997826
0.00015056788
0.00015118024
0.00015178413
0.00015235524
0.00015287675
0.00015334212
0.00015375257
0.00015411304
0.00015442963
0.00015470865
0.00015495594
0.00015517648
0.00015537426
0.0001555523
0.00015571286
0.00015585745
0.000155987
0.00015610204
0.0001562029
0.00015628971
0.00015636248
0.00015642113
0.00015646551
0.00015649544
0.00015651067
0.00015651093
0.00015649593
0.00015646537
0.00015641896
0.00015635642
0.00015627747
0.0001561819
0.00015606951
0.00015594021
0.00015579402
0.00015563108
0.00015545183
0.00015525691
0.00015504762
0.00015482573
0.00015459414
0.00015435767
0.00015412198
0.00015389911
0.00015370491
0.00015356362
0.0001535243
0.0001536536
0.00015409501
0.00015505426
0.00015702379
0.0001609407
0.00016879697
0.0001851415
0.00021814861
0.00028760014
0.00042013051
0.00063817597
0.00095443386
0.0013637625
0.0018430843
0.0023629035
0.0028983426
0.0034323773
0.0039541082
0.0044567117
0.0049361358
0.0053901978
0.0058179627
0.0062193281
0.0065947393
0.0069449951
0.0072711135
0.0075742389
0.0078555778
0.0081163551
0.0083577846
0.0085810493
0.0087872885
0.0089775905
0.009152988
0.0093144568
0.0094629152
0.0095992253
0.0097241956
0.0098385826
0.0099430953
0.010038395
0.010125109
0.010203811
0.010275074
0.010339375
0.010397323
0.010449208
0.010496012
0.010537225
0.010576682
0.010606757
0.010649371
0.0001496856
0.00015018118
0.00015069626
0.00015120722
0.00015169449
0.00015214324
0.00015254642
0.00015290342
0.00015321704
0.00015349154
0.00015373177
0.00015394261
0.00015412855
0.00015429347
0.00015444066
0.00015457278
0.00015469187
0.00015479938
0.00015489631
0.00015498331
0.00015506072
0.00015512861
0.0001551869
0.00015523535
0.00015527358
0.00015530117
0.00015531762
0.00015532239
0.00015531493
0.0001552947
0.00015526117
0.00015521382
0.00015515215
0.00015507575
0.0001549842
0.0001548772
0.00015475451
0.00015461601
0.00015446173
0.00015429196
0.00015410724
0.00015390856
0.00015369771
0.00015347696
0.00015325048
0.00015302437
0.00015280689
0.0001526135
0.00015246371
0.000152398
0.00015247254
0.00015279476
0.00015354618
0.00015507198
0.0001581569
0.00016411487
0.00017649774
0.00020188309
0.00025563722
0.00036264617
0.00054805993
0.00082819205
0.001203405
0.0016546553
0.0021533208
0.0026734212
0.0031965323
0.0037106894
0.0042082977
0.0046847284
0.0051373629
0.0055649321
0.0059670734
0.0063440273
0.0066964291
0.0070251653
0.0073312735
0.0076158737
0.0078801207
0.0081251714
0.0083521626
0.0085621964
0.0087563312
0.0089355757
0.0091008865
0.0092531676
0.0093932704
0.0095219967
0.0096400985
0.0097482869
0.0098472209
0.0099375478
0.010019828
0.010094723
0.010162625
0.010224531
0.010280052
0.010333182
0.010375216
0.010436184
0.00014943811
0.00014985625
0.00015029108
0.0001507247
0.00015114143
0.0001515284
0.00015187857
0.00015219014
0.00015246433
0.00015270388
0.00015291235
0.0001530936
0.00015325138
0.00015338919
0.00015351013
0.00015361691
0.00015371179
0.00015379659
0.00015387269
0.00015394114
0.00015400264
0.0001540576
0.00015410615
0.00015414823
0.0001541836
0.00015421185
0.0001542325
0.00015424494
0.00015424856
0.00015424269
0.00015422664
0.00015419975
0.00015416135
0.00015411082
0.00015404754
0.00015397099
0.00015388065
0.00015377611
0.00015365702
0.00015352317
0.0001533745
0.00015321113
0.00015303356
0.00015284261
0.00015263975
0.00015242741
0.00015220889
0.00015198995
0.00015177796
0.00015158637
0.00015143395
0.00015135006
0.0001513898
0.00015163466
0.00015225649
0.00015349886
0.0001559854
0.00016079994
0.00017066689
0.00019107086
0.0002340704
0.00032222352
0.00048230291
0.00073293091
0.0010789088
0.0015049514
0.001983728
0.0024887057
0.0030004366
0.0035061173
0.0039975366
0.0044695993
0.0049193286
0.0053451758
0.005746556
0.0061235301
0.0064765874
0.0068064943
0.0071141902
0.0074007137
0.0076671526
0.0079146083
0.0081441717
0.008356907
0.0085538412
0.0087359582
0.0089041944
0.0090594389
0.0092025314
0.0093342689
0.0094553962
0.0095666381
0.0096686414
0.0097621271
0.009847591
0.0099260532
0.0099972417
0.010065341
0.010120463
0.010201466
0.00014922861
0.00014958258
0.00014995084
0.00015031978
0.00015067688
0.0001510111
0.00015131574
0.00015158828
0.00015182882
0.00015203893
0.00015222109
0.00015237823
0.00015251338
0.00015262949
0.00015272929
0.00015281531
0.00015288977
0.00015295455
0.00015301124
0.00015306114
0.00015310526
0.00015314431
0.00015317875
0.0001532088
0.00015323446
0.00015325555
0.00015327175
0.0001532826
0.00015328755
0.00015328596
0.00015327718
0.00015326049
0.00015323517
0.00015320051
0.00015315579
0.00015310032
0.00015303347
0.0001529546
0.00015286316
0.00015275864
0.00015264064
0.00015250885
0.00015236313
0.00015220354
0.00015203042
0.00015184459
0.00015164731
0.00015144083
0.00015122821
0.00015101466
0.00015080768
0.00015061789
0.00015046397
0.00015037095
0.00015038927
0.00015058713
0.00015110939
0.00015216915
0.00015427202
0.00015836108
0.00016658101
0.00018360517
0.00021918064
0.00029387772
0.00043467306
0.00066182906
0.00098357571
0.0013878043
0.001848564
0.0023391778
0.0028395428
0.0033362616
0.0038206716
0.004287329