/*--------------------------------*- C++ -*----------------------------------*\
| =========                 |                                                 |
| \\      /  F ield         | OpenFOAM: The Open Source CFD Toolbox           |
|  \\    /   O peration     | Version:  2206                                  |
|   \\  /    A nd           | Website:  www.openfoam.com                      |
|    \\/     M anipulation  |                                                 |
\*---------------------------------------------------------------------------*/
FoamFile
{
    version     2.0;
    format      ascii;
    arch        "LSB;label=32;scalar=64";
    class       volScalarField;
    location    "900";
    object      nut;
}
// * * * * * * * * * * * * * * * * * * * * * * * * * * * * * * * * * * * * * //

dimensions      [0 2 -1 0 0 0 0];

internalField   nonuniform List<scalar> 
7480
(
1.6139279e-05
2.2440468e-05
2.3613491e-05
2.2659392e-05
2.1074081e-05
1.960763e-05
1.8478617e-05
1.7619908e-05
1.6931523e-05
1.6349287e-05
1.5844614e-05
1.5405747e-05
1.5025013e-05
1.4695369e-05
1.4410142e-05
1.4162652e-05
1.3947631e-05
1.3760903e-05
1.3597924e-05
1.3455951e-05
1.3329907e-05
1.3217067e-05
1.3114938e-05
1.3021381e-05
1.2934998e-05
1.285462e-05
1.2779451e-05
1.2708664e-05
1.2641508e-05
1.2577354e-05
1.2515861e-05
1.2456801e-05
1.239992e-05
1.234501e-05
1.2291814e-05
1.2240238e-05
1.2189905e-05
1.2140767e-05
1.2092723e-05
1.2045635e-05
1.1999405e-05
1.1953947e-05
1.1909196e-05
1.1865112e-05
1.1821643e-05
1.1778757e-05
1.1736403e-05
1.1694526e-05
1.16531e-05
1.1612092e-05
1.157148e-05
1.153125e-05
1.1491383e-05
1.1451872e-05
1.1412699e-05
1.137385e-05
1.1335318e-05
1.1297084e-05
1.1259133e-05
1.1221453e-05
1.1184047e-05
1.1146913e-05
1.1110045e-05
1.1073437e-05
1.1037085e-05
1.1000988e-05
1.0965135e-05
1.0929522e-05
1.0894145e-05
1.0859005e-05
1.0824096e-05
1.0789415e-05
1.075496e-05
1.0720731e-05
1.0686723e-05
1.0652933e-05
1.0619358e-05
1.0585993e-05
1.0552837e-05
1.0519887e-05
1.0487137e-05
1.0454585e-05
1.0422227e-05
1.0390057e-05
1.035807e-05
1.0326258e-05
1.0294613e-05
1.0263123e-05
1.0231778e-05
1.0200548e-05
1.0169435e-05
1.0138341e-05
1.0107357e-05
1.0076082e-05
1.0045101e-05
1.0012732e-05
9.9814635e-06
9.9452362e-06
9.9160905e-06
9.8603082e-06
1.6676477e-06
5.1433401e-06
8.7879127e-06
1.1680705e-05
1.3403246e-05
1.4480368e-05
1.5237406e-05
1.581009e-05
1.6223136e-05
1.6519753e-05
1.6745473e-05
1.6932638e-05
1.7098801e-05
1.7251937e-05
1.7396952e-05
1.7526088e-05
1.7649681e-05
1.7774529e-05
1.7900523e-05
1.8021599e-05
1.8135779e-05
1.8240273e-05
1.8333128e-05
1.8414932e-05
1.848753e-05
1.8551581e-05
1.8609115e-05
1.8658606e-05
1.8699707e-05
1.873278e-05
1.8759294e-05
1.8780154e-05
1.8795798e-05
1.8806719e-05
1.8812662e-05
1.8814734e-05
1.881142e-05
1.8804379e-05
1.879377e-05
1.8779555e-05
1.8761858e-05
1.8740917e-05
1.8717023e-05
1.8690382e-05
1.8661175e-05
1.8629631e-05
1.8595765e-05
1.8559698e-05
1.8521569e-05
1.84815e-05
1.8439667e-05
1.8396186e-05
1.8351187e-05
1.8304786e-05
1.8257048e-05
1.8208101e-05
1.8158016e-05
1.8106841e-05
1.8054613e-05
1.8001423e-05
1.7947378e-05
1.7892554e-05
1.7837006e-05
1.7780787e-05
1.7723967e-05
1.7666596e-05
1.7608699e-05
1.7550319e-05
1.7491512e-05
1.7432324e-05
1.7372789e-05
1.731294e-05
1.7252816e-05
1.7192459e-05
1.7131892e-05
1.7071141e-05
1.7010233e-05
1.6949194e-05
1.6888049e-05
1.6826821e-05
1.6765531e-05
1.6704201e-05
1.6642848e-05
1.6581491e-05
1.6520143e-05
1.6458822e-05
1.6397539e-05
1.6336309e-05
1.6275131e-05
1.621404e-05
1.6152983e-05
1.6092096e-05
1.6031085e-05
1.5970583e-05
1.5909261e-05
1.5849721e-05
1.5787131e-05
1.5729134e-05
1.5671262e-05
1.5566492e-05
4.2965205e-07
4.6651549e-07
9.4284194e-07
2.2159982e-06
4.1435492e-06
6.4104906e-06
8.5158549e-06
1.0329568e-05
1.2012738e-05
1.363278e-05
1.5182051e-05
1.6642295e-05
1.8005797e-05
1.9279082e-05
2.0473954e-05
2.1616646e-05
2.270856e-05
2.3743837e-05
2.4718852e-05
2.5631532e-05
2.6482805e-05
2.7273714e-05
2.8003794e-05
2.8678866e-05
2.9303677e-05
2.9879312e-05
3.0419638e-05
3.0917321e-05
3.1375683e-05
3.1796673e-05
3.2185835e-05
3.2545849e-05
3.2878667e-05
3.3186632e-05
3.3469521e-05
3.3732034e-05
3.3968955e-05
3.4187981e-05
3.4388268e-05
3.4570429e-05
3.4735503e-05
3.4884617e-05
3.5018913e-05
3.513934e-05
3.5246776e-05
3.5342175e-05
3.5425831e-05
3.5498413e-05
3.556056e-05
3.5612851e-05
3.5655975e-05
3.5690463e-05
3.5716873e-05
3.5735716e-05
3.5747331e-05
3.5752228e-05
3.5750748e-05
3.5743163e-05
3.5729699e-05
3.5710729e-05
3.5686663e-05
3.5657817e-05
3.5624431e-05
3.5586763e-05
3.5545087e-05
3.5499626e-05
3.5450528e-05
3.5397988e-05
3.5342233e-05
3.5283452e-05
3.5221805e-05
3.5157439e-05
3.5090522e-05
3.5021224e-05
3.4949667e-05
3.4875967e-05
3.4800249e-05
3.4722634e-05
3.4643235e-05
3.456216e-05
3.4479509e-05
3.4395382e-05
3.4309869e-05
3.4223062e-05
3.4135042e-05
3.4045893e-05
3.395569e-05
3.3864522e-05
3.3772436e-05
3.367958e-05
3.3585873e-05
3.349177e-05
3.3396552e-05
3.3302121e-05
3.3204954e-05
3.311262e-05
3.3012e-05
3.2926968e-05
3.2833959e-05
3.2672076e-05
6.141056e-06
1.0844971e-06
4.1947437e-07
3.8515952e-07
5.7693114e-07
9.3148257e-07
1.7946835e-06
3.1771794e-06
4.8734798e-06
6.6180012e-06
8.3700329e-06
1.0254353e-05
1.2280967e-05
1.4412121e-05
1.658898e-05
1.8758359e-05
2.0881949e-05
2.2938487e-05
2.4920035e-05
2.682314e-05
2.8643774e-05
3.0378117e-05
3.2026593e-05
3.3587744e-05
3.5063395e-05
3.6452845e-05
3.7760511e-05
3.8991437e-05
4.0148347e-05
4.1238293e-05
4.2264472e-05
4.3230991e-05
4.4141614e-05
4.500143e-05
4.5811294e-05
4.657854e-05
4.7286457e-05
4.7959081e-05
4.8587012e-05
4.9174876e-05
4.9724774e-05
5.0238901e-05
5.0719417e-05
5.1168196e-05
5.158709e-05
5.1978036e-05
5.2341506e-05
5.2679163e-05
5.2992263e-05
5.3282051e-05
5.3549959e-05
5.3797103e-05
5.4024715e-05
5.4233887e-05
5.4425379e-05
5.4600325e-05
5.4759465e-05
5.4903428e-05
5.5032746e-05
5.5148266e-05
5.5250872e-05
5.5341263e-05
5.5419988e-05
5.5487657e-05
5.5544885e-05
5.5592178e-05
5.5629896e-05
5.5658503e-05
5.5678507e-05
5.5690337e-05
5.5694371e-05
5.5690957e-05
5.5680486e-05
5.5663355e-05
5.5639851e-05
5.5610261e-05
5.5574879e-05
5.5533991e-05
5.5487867e-05
5.5436765e-05
5.538093e-05
5.5320598e-05
5.5255993e-05
5.5187333e-05
5.5114824e-05
5.5038669e-05
5.4959057e-05
5.4876201e-05
5.4790249e-05
5.47015e-05
5.4609917e-05
5.4516271e-05
5.4419585e-05
5.4322808e-05
5.4220872e-05
5.4125072e-05
5.4016413e-05
5.3931591e-05
5.3831082e-05
5.3661171e-05
5.557882e-05
1.6641169e-05
4.7597227e-06
1.8538783e-06
9.7479131e-07
6.6235751e-07
5.8920972e-07
6.8856293e-07
9.1764295e-07
1.4627363e-06
2.391121e-06
3.5568934e-06
5.0024276e-06
6.6401503e-06
8.5189164e-06
1.0680436e-05
1.3103307e-05
1.5724614e-05
1.8461222e-05
2.1232223e-05
2.3977272e-05
2.6662151e-05
2.9272135e-05
3.1798694e-05
3.4234302e-05
3.6571579e-05
3.8807556e-05
4.0942981e-05
4.2982704e-05
4.4928985e-05
4.6783272e-05
4.8548466e-05
5.0227696e-05
5.1822454e-05
5.3337618e-05
5.478091e-05
5.6146674e-05
5.7444304e-05
5.8676472e-05
5.9843966e-05
6.0949308e-05
6.199606e-05
6.2987132e-05
6.3925067e-05
6.48127e-05
6.5653175e-05
6.6447673e-05
6.7197641e-05
6.7904622e-05
6.8570672e-05
6.9198105e-05
6.9788586e-05
7.0343891e-05
7.08658e-05
7.1355816e-05
7.1815946e-05
7.2247255e-05
7.2650796e-05
7.3027456e-05
7.3378755e-05
7.3706148e-05
7.4010781e-05
7.4293578e-05
7.4555627e-05
7.4797973e-05
7.5021479e-05
7.5226764e-05
7.5414668e-05
7.5586073e-05
7.5741712e-05
7.5882254e-05
7.6008317e-05
7.6120608e-05
7.6219831e-05
7.6306486e-05
7.63811e-05
7.6444204e-05
7.6496312e-05
7.653791e-05
7.6569467e-05
7.6591427e-05
7.6604221e-05
7.6608258e-05
7.6603936e-05
7.6591634e-05
7.6571726e-05
7.6544563e-05
7.6510522e-05
7.6469902e-05
7.6423187e-05
7.6370445e-05
7.6312747e-05
7.624901e-05
7.618299e-05
7.6108657e-05
7.6039841e-05
7.5953677e-05
7.5896543e-05
7.5814787e-05
7.5683276e-05
0.00012338161
7.8871269e-05
3.8712813e-05
1.8210312e-05
9.0540193e-06
4.9271163e-06
2.9392825e-06
1.9129985e-06
1.3570759e-06
1.0781345e-06
1.0010429e-06
1.077377e-06
1.28835e-06
1.8063531e-06
2.6137594e-06
3.7162799e-06
5.1791333e-06
6.950916e-06
9.0901516e-06
1.1616741e-05
1.4488977e-05
1.7616816e-05
2.0890971e-05
2.4212397e-05
2.7513014e-05
3.0755978e-05
3.3922951e-05
3.7001526e-05
3.9982497e-05
4.28601e-05
4.5632027e-05
4.8298215e-05
5.0859353e-05
5.3315873e-05
5.5669743e-05
5.7926172e-05
6.0084739e-05
6.214944e-05
6.4124013e-05
6.6011277e-05
6.7814348e-05
6.9535455e-05
7.1177372e-05
7.2743093e-05
7.4234718e-05
7.5654821e-05
7.7007291e-05
7.8294861e-05
7.9520435e-05
8.0686421e-05
8.1794943e-05
8.2847847e-05
8.3847524e-05
8.479628e-05
8.5696395e-05
8.6550884e-05
8.736078e-05
8.8127614e-05
8.8853226e-05
8.9539665e-05
9.0188552e-05
9.0801462e-05
9.1379712e-05
9.1924713e-05
9.2438211e-05
9.2921527e-05
9.3375544e-05
9.3801588e-05
9.4200967e-05
9.4574742e-05
9.4923923e-05
9.5249451e-05
9.5552426e-05
9.583391e-05
9.6094642e-05
9.6335449e-05
9.6557151e-05
9.6760536e-05
9.6946357e-05
9.711534e-05
9.7268177e-05
9.740554e-05
9.7528066e-05
9.763638e-05
9.7731077e-05
9.7812741e-05
9.7881929e-05
9.793922e-05
9.7985105e-05
9.802028e-05
9.8044971e-05
9.8060541e-05
9.806591e-05
9.8065468e-05
9.8052632e-05
9.8042921e-05
9.8010865e-05
9.8010739e-05
9.797276e-05
9.7927079e-05
0.00015039438
0.00013347266
0.00010266387
7.069652e-05
4.5518378e-05
2.8926442e-05
1.8530227e-05
1.208406e-05
8.0712471e-06
5.4866108e-06
3.8371455e-06
2.7530406e-06
2.0538118e-06
1.6502378e-06
1.4683717e-06
1.4697941e-06
1.6310405e-06
2.1199194e-06
2.9240053e-06
4.0916871e-06
5.7136217e-06
7.7493058e-06
1.0270911e-05
1.3267836e-05
1.6663916e-05
2.0334714e-05
2.4147154e-05
2.7995174e-05
3.1814738e-05
3.557408e-05
3.9255153e-05
4.2843558e-05
4.6328478e-05
4.9703778e-05
5.2966767e-05
5.6117787e-05
5.915596e-05
6.2082176e-05
6.4898614e-05
6.7607484e-05
7.0211252e-05
7.2712189e-05
7.5112746e-05
7.7415688e-05
7.9623471e-05
8.1738622e-05
8.3764506e-05
8.5704263e-05
8.7561044e-05
8.9337754e-05
9.1037e-05
9.26619e-05
9.421469e-05
9.5697696e-05
9.7113533e-05
9.8463722e-05
9.9751572e-05
0.0001009797
0.00010215079
0.00010326676
0.0001043296
0.00010534132
0.00010630355
0.00010721836
0.00010808803
0.00010891413
0.00010969776
0.00011044083
0.0001111449
0.00011181157
0.00011244237
0.00011303876
0.0001136019
0.00011413306
0.00011463343
0.0001151042
0.00011554651
0.00011596146
0.00011635011
0.00011671346
0.00011705249
0.00011736816
0.00011766136
0.00011793297
0.00011818385
0.00011841482
0.00011862668
0.00011882025
0.00011899622
0.00011915556
0.00011929866
0.0001194272
0.00011954017
0.00011964247
0.00011972726
0.00011981118
0.00011986685
0.00011995583
0.0001199874
0.00012007717
0.00015726902
0.00015442427
0.00014293175
0.00012350984
0.00010052947
7.8274788e-05
5.9362321e-05
4.4325633e-05
3.2810481e-05
2.4175598e-05
1.7771863e-05
1.3041162e-05
9.5304773e-06
6.9549996e-06
5.0855497e-06
3.7609738e-06
2.8424535e-06
2.2724829e-06
1.9714156e-06
1.9030627e-06
2.0456473e-06
2.5833514e-06
3.4931126e-06
4.8691534e-06
6.7930082e-06
9.260996e-06
1.2316269e-05
1.5904986e-05
1.9899148e-05
2.4139512e-05
2.8484634e-05
3.2840461e-05
3.7157068e-05
4.1407294e-05
4.5570989e-05
4.9633259e-05
5.3584643e-05
5.7420215e-05
6.1137502e-05
6.4735293e-05
6.8213675e-05
7.1573482e-05
7.4815944e-05
7.7942814e-05
8.0956045e-05
8.3857711e-05
8.6650475e-05
8.9337214e-05
9.192094e-05
9.4404629e-05
9.6791069e-05
9.9083332e-05
0.00010128412
0.00010339603
0.00010542186
0.00010736377
0.00010922479
0.00011100785
0.00011271597
0.00011435164
0.00011591729
0.00011741526
0.0001188482
0.00012021803
0.00012152645
0.00012277578
0.00012396873
0.00012510703
0.00012619256
0.00012722725
0.00012821297
0.00012915155
0.00013004457
0.00013089372
0.00013170041
0.00013246622
0.00013319262
0.00013388103
0.00013453283
0.00013514934
0.00013573184
0.00013628157
0.00013679973
0.00013728749
0.00013774596
0.00013817624
0.0001385794
0.00013895651
0.00013930853
0.00013963666
0.00013994155
0.00014022514
0.00014048659
0.00014073122
0.00014095208
0.00014116668
0.00014134594
0.000141559
0.00014168763
0.0001419649
0.00015865206
0.00015987826
0.00015783423
0.00015071101
0.00013863549
0.00012314338
0.00010632594
8.981602e-05
7.4624196e-05
6.1192785e-05
4.963264e-05
3.9854717e-05
3.1689706e-05
2.4946766e-05
1.9429809e-05
1.4953193e-05
1.1353519e-05
8.5360824e-06
6.3831066e-06
4.7853482e-06
3.6367291e-06
2.9057307e-06
2.5040847e-06
2.3926662e-06
2.6096714e-06
3.2864033e-06
4.4517605e-06
6.2365025e-06
8.6487318e-06
1.1750513e-05
1.5509085e-05
1.9798239e-05
2.4436667e-05
2.925011e-05
3.4115207e-05
3.8963542e-05
4.3758163e-05
4.8473265e-05
5.308928e-05
5.7593736e-05
6.1979685e-05
6.6242839e-05
7.0380498e-05
7.4391577e-05
7.8276055e-05
8.2034478e-05
8.5668155e-05
8.9178968e-05
9.2569184e-05
9.58413e-05
9.8997837e-05
0.00010204156
0.00010497518
0.00010780134
0.00011052282
0.00011314208
0.00011566198
0.00011808553
0.00012041585
0.0001226558
0.00012480812
0.00012687542
0.00012886054
0.0001307659
0.00013259363
0.00013434619
0.00013602642
0.00013763662
0.000139179
0.00014065581
0.00014206923
0.00014342146
0.00014471454
0.00014595017
0.00014713043
0.00014825712
0.00014933205
0.00015035696
0.00015133353
0.00015226341
0.0001531482
0.00015398944
0.00015478862
0.00015554721
0.00015626663
0.00015694825
0.0001575934
0.00015820346
0.00015877964
0.00015932341
0.00015983568
0.00016031868
0.00016077176
0.00016120061
0.00016159832
0.00016198304
0.00016232407
0.00016269891
0.0001629544
0.00016347373
0.00015904716
0.00016092081
0.00016181809
0.000160514
0.00015622209
0.00014882308
0.00013882011
0.00012707615
0.00011443428
0.00010163552
8.9198539e-05
7.7446253e-05
6.6599361e-05
5.6726751e-05
4.7833416e-05
3.9897154e-05
3.2873381e-05
2.6718358e-05
2.1395128e-05
1.6857241e-05
1.3043773e-05
9.9490541e-06
7.5081733e-06
5.6473225e-06
4.3157187e-06
3.4658531e-06
3.0281647e-06
2.9498856e-06
3.4081208e-06
4.3961849e-06
6.0503722e-06
8.4515177e-06
1.1630658e-05
1.5581597e-05
2.0177096e-05
2.5213349e-05
3.0486078e-05
3.5847006e-05
4.1211857e-05
4.6534438e-05
5.1783205e-05
5.6934789e-05
6.1974044e-05
6.6891847e-05
7.1682209e-05
7.634124e-05
8.0867008e-05
8.525893e-05
8.9517359e-05
9.3643383e-05
9.7638505e-05
0.00010150466
0.00010524403
0.00010885889
0.00011235173
0.00011572491
0.00011898105
0.000122123
0.00012515378
0.00012807636
0.00013089362
0.00013360832
0.00013622337
0.0001387415
0.00014116518
0.000143497
0.00014573988
0.00014789649
0.00014996934
0.00015196094
0.00015387377
0.00015571028
0.00015747284
0.00015916353
0.00016078464
0.00016233834
0.0001638267
0.00016525179
0.00016661561
0.00016792011
0.00016916717
0.00017035866
0.00017149636
0.00017258203
0.00017361738
0.00017460408
0.00017554376
0.00017643804
0.00017728844
0.00017809671
0.00017886402
0.00017959289
0.00018028288
0.00018094003
0.00018155754
0.00018215413
0.00018269734
0.00018327424
0.00018368888
0.00018450747
0.00015951564
0.00016119725
0.00016262826
0.00016322506
0.00016242914
0.0001598304
0.00015527867
0.00014890281
0.00014101017
0.00013200729
0.00012230554
0.00011227725
0.00010214112
9.2128343e-05
8.2406823e-05
7.3088819e-05
6.4242292e-05
5.5905425e-05
4.8138613e-05
4.0962315e-05
3.4366928e-05
2.8380899e-05
2.3025882e-05
1.8307776e-05
1.4250655e-05
1.0888435e-05
8.2088204e-06
6.1593868e-06
4.7619712e-06
3.9150922e-06
3.5523115e-06
3.7650784e-06
4.615532e-06
6.2048796e-06
8.6518969e-06
1.1976499e-05
1.6184151e-05
2.1134749e-05
2.6597134e-05
3.2339761e-05
3.8196118e-05
4.4071555e-05
4.9912852e-05
5.5683337e-05
6.135655e-05
6.6915396e-05
7.2349114e-05
7.7650493e-05
8.2814994e-05
8.7840185e-05
9.2724953e-05
9.7469242e-05
0.00010207377
0.00010653973
0.00011086873
0.00011506257
0.00011912334
0.00012305341
0.00012685547
0.00013053229
0.00013408663
0.00013752124
0.00014083898
0.00014404267
0.00014713495
0.00015011851
0.00015299628
0.00015577111
0.00015844574
0.00016102286
0.00016350517
0.00016589531
0.00016819591
0.00017040937
0.00017253819
0.00017458478
0.00017655153
0.00017844075
0.00018025473
0.00018199569
0.00018366582
0.00018526725
0.00018680205
0.00018827227
0.00018967989
0.00019102688
0.00019231514
0.00019354658
0.00019472299
0.00019584641
0.00019691827
0.00019794138
0.00019891555
0.00019984712
0.00020072944
0.0002015818
0.0002023698
0.0002031914
0.00020380007
0.00020497782
0.00016027246
0.00016162957
0.00016293124
0.00016390696
0.00016428992
0.0001638085
0.00016223477
0.00015943571
0.00015538757
0.00015017236
0.00014394922
0.00013692724
0.00012929372
0.00012123264
0.00011291425
0.0001044851
9.6062955e-05
8.7741922e-05
7.9517117e-05
7.1460836e-05
6.3623992e-05
5.6049718e-05
4.878262e-05
4.1892759e-05
3.5406655e-05
2.9378895e-05
2.386933e-05
1.891896e-05
1.4652178e-05
1.11188e-05
8.3149874e-06
6.2904721e-06
4.9826368e-06
4.3078411e-06
4.3057699e-06
5.0688369e-06
6.6734503e-06
9.2495568e-06
1.2820542e-05
1.7381806e-05
2.276271e-05
2.8698029e-05
3.4933739e-05
4.1294411e-05
4.768137e-05
5.4036908e-05
6.0320788e-05
6.6504953e-05
7.2571331e-05
7.8508074e-05
8.4307183e-05
8.9963682e-05
9.5474709e-05
0.00010083877
0.00010605547
0.00011112509
0.00011604854
0.00012082725
0.00012546309
0.00012995826
0.00013431509
0.00013853603
0.00014262368
0.00014658073
0.00015040981
0.00015411357
0.00015769486
0.00016115655
0.00016450148
0.00016773243
0.0001708522
0.00017386359
0.00017676936
0.00017957215
0.00018227462
0.00018487941
0.00018738909
0.00018980623
0.00019213334
0.00019437288
0.0001965273
0.00019859897
0.00020059023
0.00020250338
0.00020434067
0.00020610433
0.00020779654
0.00020941947
0.00021097518
0.00021246599
0.00021389358
0.00021526105
0.00021656847
0.00021782244
0.00021901653
0.00022017059
0.00022124805
0.00022235918
0.00022319933
0.00022479895
0.00016134065
0.00016240085
0.00016345216
0.00016434771
0.00016497242
0.0001652045
0.00016490895
0.0001639527
0.00016222537
0.00015966113
0.00015624831
0.00015202912
0.00014707813
0.0001414895
0.00013536859
0.00012882399
0.00012195879
0.00011487305
0.00010762071
0.00010025629
9.2834198e-05
8.5402654e-05
7.801031e-05
7.0620659e-05
6.3277907e-05
5.6030577e-05
4.8935893e-05
4.2058585e-05
3.5482759e-05
2.9297427e-05
2.3572449e-05
1.8463666e-05
1.4104067e-05
1.0549942e-05
7.8957224e-06
6.1256982e-06
5.1443724e-06
4.9883317e-06
5.7317191e-06
7.4566294e-06
1.0273494e-05
1.4222461e-05
1.9258802e-05
2.5159727e-05
3.1621887e-05
3.8378499e-05
4.5256833e-05
5.2160192e-05
5.9028669e-05
6.5820361e-05
7.2507199e-05
7.907106e-05
8.5499693e-05
9.1784834e-05
9.7921221e-05
0.00010390559
0.00010973616
0.00011541232
0.00012093431
0.00012630303
0.00013151987
0.00013658654
0.00014150504
0.00014627764
0.00015090667
0.00015539456
0.00015974393
0.00016395749
0.000168038
0.00017198823
0.00017581097
0.00017950902
0.00018308524
0.00018654237
0.00018988318
0.00019311043
0.00019622685
0.00019923517
0.00020213807
0.00020493823
0.00020763826
0.00021024076
0.0002127483
0.00021516339
0.00021748853
0.00021972616
0.00022187872
0.00022394864
0.00022593821
0.00022785002
0.000229686
0.00023144951
0.00023314089
0.00023476697
0.00023632157
0.0002378251
0.00023923866
0.0002406862
0.00024179776
0.00024388479
0.0001627019
0.00016351798
0.00016433449
0.00016505573
0.00016562474
0.00016599641
0.00016611836
0.00016592177
0.0001653239
0.00016424225
0.00016260968
0.00016038498
0.00015755478
0.00015413028
0.00015014283
0.00014563906
0.00014067466
0.00013531319
0.00012961086
0.00012361692
0.00011737817
0.00011093788
0.00010434462
9.7609179e-05
9.0748736e-05
8.3786242e-05
7.6767746e-05
6.9652186e-05
6.2454512e-05
5.524295e-05
4.8060818e-05
4.1027915e-05
3.4260265e-05
2.7853554e-05
2.199277e-05
1.6883286e-05
1.2634526e-05
9.4101382e-06
7.2288216e-06
5.9901953e-06
5.7862486e-06
6.6101503e-06
8.5971576e-06
1.1796802e-05
1.6281914e-05
2.1927262e-05
2.8438999e-05
3.5478891e-05
4.2782608e-05
5.0191424e-05
5.7615109e-05
6.49946e-05
7.2289097e-05
7.9471706e-05
8.652452e-05
9.3435265e-05
0.00010019577
0.0001068007
0.00011324678
0.0001195322
0.00012565631
0.00013161927
0.00013742188
0.00014306546
0.00014855164
0.00015388231
0.00015905958
0.00016408581
0.00016896346
0.00017369509
0.00017828334
0.00018273092
0.00018704061
0.00019121516
0.00019525733
0.00019916994
0.00020295579
0.00020661769
0.00021015843
0.0002135808
0.00021688757
0.00022008149
0.00022316528
0.00022614167
0.00022901331
0.00023178288
0.00023445299
0.00023702631
0.00023950536
0.00024189294
0.00024419125
0.00024640385
0.00024853136
0.00025058081
0.0002525463
0.00025444881
0.00025624694
0.0002580796
0.00025950486
0.00026214769
0.00016433207
0.00016495269
0.00016557415
0.00016612769
0.0001665765
0.00016690294
0.00016709464
0.00016713062
0.00016697345
0.00016657177
0.00016586836
0.0001648086
0.00016334725
0.00016145235
0.00015910662
0.00015630712
0.0001530631
0.00014939486
0.00014532917
0.00014089493
0.0001361221
0.00013104022
0.00012568263
0.00012007431
0.00011423449
0.00010817891
0.00010193681
9.5508035e-05
8.8886936e-05
8.2086102e-05
7.5141162e-05
6.798723e-05
6.0668262e-05
5.3242556e-05
4.5801057e-05
3.8516352e-05
3.1502405e-05
2.4981998e-05
1.9218559e-05
1.4364268e-05
1.0682658e-05
8.193245e-06
6.7966084e-06
6.7047295e-06
7.7581989e-06
1.0187663e-05
1.3979931e-05
1.9169462e-05
2.5539349e-05
3.2725215e-05
4.037387e-05
4.824249e-05
5.6192337e-05
6.4140043e-05
7.2029294e-05
7.9822356e-05
8.7494284e-05
9.5027989e-05
0.00010241177
0.00010963779
0.00011670091
0.00012359799
0.00013032734
0.00013688837
0.00014328124
0.0001495067
0.00015556593
0.00016146055
0.00016719242
0.00017276363
0.00017817648
0.00018343337
0.00018853685
0.00019348953
0.00019829408
0.00020295322
0.00020746972
0.00021184638
0.00021608602
0.00022019148
0.00022416559
0.00022801119
0.00023173112
0.00023532821
0.00023880526
0.00024216511
0.00024541054
0.00024854437
0.00025156934
0.00025448843
0.00025730405
0.00026001998
0.00026263708
0.00026516255
0.00026759079
0.00026994336
0.00027217621
0.00027444445
0.00027622787
0.0002794977
0.00016621008
0.00016667473
0.00016713871
0.00016755095
0.000167883
0.00016812432
0.00016827539
0.00016833683
0.00016830021
0.00016814513
0.00016784084
0.00016734968
0.00016663141
0.00016564735
0.00016436378
0.00016275413
0.0001607998
0.00015849061
0.00015582427
0.00015280455
0.00014943977
0.00014574113
0.00014172342
0.00013740229
0.00013279222
0.00012790484
0.00012275574
0.00011735547
0.00011170686
0.00010581022
9.9683216e-05
9.3303671e-05
8.6660014e-05
7.9762272e-05
7.2609032e-05
6.5165328e-05
5.7490155e-05
4.9666716e-05
4.1906695e-05
3.4337339e-05
2.7242853e-05
2.0931671e-05
1.5587632e-05
1.161261e-05
8.9579008e-06
7.5873672e-06
7.7185838e-06
9.2578956e-06
1.2324006e-05
1.6944553e-05
2.3023208e-05
3.0223461e-05
3.8129996e-05
4.640855e-05
5.4854806e-05
6.3351624e-05
7.1823654e-05
8.0219995e-05
8.8506877e-05
9.6661408e-05
0.00010466786
0.0001125156
0.00012019746
0.00012770881
0.00013504678
0.0001422098
0.00014919727
0.00015600935
0.00016264681
0.00016911087
0.00017540308
0.0001815253
0.00018747963
0.00019326831
0.00019889374
0.00020435842
0.00020966494
0.00021481599
0.00021981431
0.00022466267
0.00022936389
0.00023392083
0.00023833635
0.00024261334
0.00024675469
0.00025076331
0.0002546421
0.00025839403
0.00026202196
0.00026552902
0.00026891784
0.00027219231
0.00027535358
0.00027840892
0.00028135309
0.00028420821
0.00028692747
0.0002896833
0.00029187137
0.00029584216
0.0001683194
0.00016865898
0.00016899618
0.00016929286
0.0001695256
0.00016968506
0.00016977342
0.00016979734
0.00016976067
0.00016966065
0.00016948694
0.00016922185
0.00016884164
0.00016831857
0.00016762328
0.00016672703
0.00016560327
0.00016422906
0.00016258604
0.00016066057
0.00015844351
0.00015592953
0.00015311696
0.00015000716
0.00014660347
0.00014290952
0.00013893047
0.00013467183
0.00013013699
0.00012532546
0.00012024198
0.00011488253
0.00010923636
0.00010329684
9.7058709e-05
9.0490839e-05
8.3579105e-05
7.634612e-05
6.8725601e-05
6.076177e-05
5.2555347e-05
4.4332884e-05
3.6234831e-05
2.8657378e-05
2.1893191e-05
1.6257623e-05
1.2129577e-05
9.4779046e-06
8.4806214e-06
9.0602391e-06
1.1340324e-05
1.5300744e-05
2.0963692e-05
2.8055447e-05
3.6130638e-05
4.476758e-05
5.3682168e-05
6.2711338e-05
7.175562e-05
8.074881e-05
8.9647038e-05
9.8420931e-05
0.0001070503
0.00011552129
0.0001238244
0.00013195317
0.00013990336
0.00014767236
0.0001552588
0.00016266221
0.00016988287
0.00017692159
0.00018377961
0.00019045855
0.00019696023
0.00020328675
0.00020944035
0.00021542342
0.00022123848
0.00022688815
0.00023237511
0.00023770212
0.000242872
0.00024788759
0.00025275181
0.00025746758
0.00026203786
0.00026646567
0.00027075399
0.00027490603
0.00027892456
0.0002828136
0.00028657451
0.00029021463
0.00029372908
0.00029714048
0.00030039924
0.00030369607
0.00030633712
0.00031108543
0.00017064731
0.00017088582
0.00017112042
0.00017132279
0.00017147346
0.00017156318
0.00017159281
0.00017156886
0.00017149821
0.00017138512
0.00017122981
0.00017102769
0.00017076908
0.00017043965
0.00017002134
0.00016949348
0.00016883391
0.00016802022
0.00016703084
0.00016584593
0.0001644479
0.00016282167
0.0001609548
0.0001588375
0.00015646245
0.00015382409
0.00015091851
0.00014774315
0.00014429608
0.00014057417
0.00013657529
0.00013229603
0.00012772918
0.00012286557
0.00011769685
0.00011220589
0.00010636961
0.00010018369
9.3605551e-05
8.6605357e-05
7.9193052e-05
7.1331662e-05
6.3020312e-05
5.4404849e-05
4.5700494e-05
3.7135753e-05
2.9144129e-05
2.2024303e-05
1.6340908e-05
1.2299244e-05
9.9427685e-06
9.5446881e-06
1.0938762e-05
1.4214587e-05
1.9386588e-05
2.6276334e-05
3.4441427e-05
4.3387029e-05
5.2742488e-05
6.2288244e-05
7.1895558e-05
8.1480935e-05
9.0988954e-05
0.00010038263
0.00010963662
0.00011873341
0.00012766084
0.00013641055
0.00014497685
0.00015335607
0.00016154599
0.00016954549
0.00017735434
0.00018497291
0.00019240212
0.00019964327
0.00020669797
0.00021356813
0.00022025582
0.00022676334
0.0002330931
0.00023924764
0.0002452296
0.00025104171
0.00025668679
0.00026216771
0.00026748739
0.00027264887
0.00027765513
0.00028250946
0.00028721469
0.0002917749
0.00029619167
0.0003004723
0.00030461234
0.00030863485
0.00031248744
0.00031637993
0.00031952393
0.00032512882
0.00017318386
0.00017334004
0.00017349101
0.00017361596
0.00017369882
0.00017373057
0.00017371048
0.00017364327
0.00017353532
0.0001733924
0.00017321865
0.00017301566
0.00017278196
0.00017251269
0.00017219968
0.00017183176
0.00017139508
0.00017087375
0.00017025053
0.00016950756
0.00016862698
0.00016759143
0.00016638452
0.00016499115
0.00016339772
0.00016159215
0.0001595638
0.00015730341
0.00015480294
0.00015205478
0.00014905188
0.00014578735
0.00014225331
0.0001384402
0.00013433787
0.0001299334
0.00012520804
0.00012014704
0.00011472576
0.00010891109
0.00010268326
9.6004994e-05
8.8827286e-05
8.1162408e-05
7.2962697e-05
6.4238586e-05
5.5164957e-05
4.5941793e-05
3.696536e-05
2.8648521e-05
2.1421798e-05
1.592136e-05
1.2217444e-05
1.0667431e-05
1.1107188e-05
1.3684091e-05
1.8308677e-05
2.4920386e-05
3.3105427e-05
4.2313921e-05
5.2087203e-05
6.2139254e-05
7.230525e-05
8.248164e-05
9.2600211e-05
0.00010261564
0.00011249698
0.00012222283
0.00013177829
0.00014115298
0.00015033974
0.00015933377
0.00016813198
0.00017673257
0.00018513474
0.00019333844
0.00020134421
0.00020915305
0.00021676635
0.0002241858
0.00023141334
0.00023845112
0.00024530147
0.00025196685
0.00025844987
0.00026475324
0.00027087977
0.0002768324
0.00028261408
0.00028822806
0.00029367721
0.00029896557
0.00030409495
0.0003090725
0.00031389424
0.00031858359
0.00032308537
0.0003276293
0.00033132767
0.00033787053
0.00017592111
0.00017600968
0.00017609199
0.00017615294
0.0001761794
0.00017616286
0.00017610143
0.00017599802
0.00017585756
0.00017568533
0.00017548613
0.00017526364
0.00017501997
0.00017475526
0.00017446746
0.00017415228
0.0001738031
0.00017341108
0.00017296543
0.00017245374
0.00017186232
0.00017117661
0.00017038156
0.00016946204
0.00016840313
0.00016719041
0.00016581015
0.00016424941
0.00016249611
0.00016053886
0.00015836688
0.00015596985
0.0001533375
0.00015045904
0.00014732306
0.00014391711
0.00014022574
0.00013623272
0.00013191882
0.00012725825
0.00012222534
0.00011679008
0.00011090892
0.000104555
9.768166e-05
9.0229999e-05
8.2228077e-05
7.3573918e-05
6.4352975e-05
5.4745735e-05
4.502966e-05
3.5728637e-05
2.7200358e-05
2.0252166e-05
1.5192633e-05
1.227225e-05
1.1774024e-05
1.3582774e-05
1.7652483e-05
2.3966697e-05
3.2141083e-05
4.15872e-05
5.1764804e-05
6.2318012e-05
7.3041739e-05
8.381039e-05
9.4542036e-05
0.00010518249
0.000115695
0.00012605412
0.00013624212
0.00014624655
0.00015605872
0.00016567265
0.00017508435
0.00018429133
0.0001932922
0.00020208645
0.00021067426
0.00021905632
0.00022723379
0.00023520815
0.0002429812
0.00025055496
0.00025793166
0.00026511374
0.00027210375
0.00027890444
0.00028551864
0.00029194944
0.00029819971
0.00030427338
0.00031017241
0.00031590376
0.00032146391
0.00032687657
0.00033208378
0.00033733587
0.00034164128
0.00034920561
0.00017885257
0.00017888527
0.00017891082
0.00017891852
0.00017889771
0.00017884063
0.00017874464
0.00017861123
0.00017844394
0.00017824698
0.00017802468
0.00017778095
0.00017751897
0.00017724087
0.00017694758
0.00017663863
0.00017631199
0.00017596397
0.0001755892
0.00017518069
0.00017472993
0.000174227
0.00017366081
0.00017301931
0.00017228977
0.00017145901
0.00017051364
0.00016944029
0.00016822574
0.00016685705
0.0001653216
0.00016360703
0.00016170122
0.00015959199
0.0001572669
0.00015471303
0.00015191619
0.00014886092
0.00014553015
0.00014190338
0.00013795739
0.00013366646
0.00012899696
0.00012391538
0.00011838345
0.00011234549
0.00010577657
9.8602013e-05
9.0769954e-05
8.2305446e-05
7.3083988e-05
6.3292354e-05
5.308348e-05
4.2984044e-05
3.3431642e-05
2.508171e-05
1.8662936e-05
1.4443132e-05
1.2948277e-05
1.3929205e-05
1.7432884e-05
2.3431004e-05
3.1574332e-05
4.1242659e-05
5.1817941e-05
6.2871928e-05
7.4155866e-05
8.5520552e-05
9.6869805e-05
0.00010814027
0.00011928917
0.00013028696
0.00014111298
0.00015175271
0.00016219589
0.00017243536
0.00018246622
0.00019228523
0.00020189044
0.00021128088
0.00022045636
0.00022941729
0.00023816458
0.00024669953
0.00025502379
0.00026313928
0.00027104818
0.00027875289
0.00028625596
0.00029356029
0.0003006686
0.00030758463
0.00031431043
0.00032085269
0.00032720835