/*--------------------------------*- C++ -*----------------------------------*\
| =========                 |                                                 |
| \\      /  F ield         | OpenFOAM: The Open Source CFD Toolbox           |
|  \\    /   O peration     | Version:  2206                                  |
|   \\  /    A nd           | Website:  www.openfoam.com                      |
|    \\/     M anipulation  |                                                 |
\*---------------------------------------------------------------------------*/
FoamFile
{
    version     2.0;
    format      ascii;
    arch        "LSB;label=32;scalar=64";
    class       volScalarField;
    location    "900";
    object      p;
}
// * * * * * * * * * * * * * * * * * * * * * * * * * * * * * * * * * * * * * //

dimensions      [0 2 -2 0 0 0 0];

internalField   nonuniform List<scalar> 
7480
(
0.062748108
0.051827247
0.036419241
0.027074419
0.021813669
0.018661517
0.016676853
0.015160589
0.01383072
0.012722156
0.011842846
0.011152386
0.010629586
0.010248168
0.0099775957
0.0097954192
0.0096813824
0.0096215997
0.0095951477
0.0095927016
0.0096154662
0.0096388166
0.0096551519
0.0096673569
0.0096734319
0.0096720962
0.0096641131
0.0096496921
0.0096274414
0.0095979207
0.0095623659
0.0095212204
0.0094749937
0.0094244456
0.0093695328
0.0093104809
0.0092474267
0.0091802398
0.0091094055
0.0090353137
0.0089580028
0.0088773755
0.0087939749
0.0087078906
0.0086190936
0.0085279797
0.0084343727
0.0083383816
0.0082402142
0.0081396169
0.0080369359
0.0079321449
0.0078252578
0.007716451
0.0076054775
0.0074925766
0.0073776624
0.0072607329
0.0071417937
0.0070207717
0.0068977993
0.0067727362
0.0066456806
0.0065165284
0.0063853026
0.0062519564
0.0061164488
0.0059787518
0.0058388266
0.0056966683
0.005552218
0.0054054711
0.0052563684
0.0051049175
0.0049510521
0.0047947796
0.0046360418
0.0044748658
0.0043112049
0.0041451068
0.0039765454
0.0038055975
0.0036322838
0.0034567073
0.003278994
0.0030992678
0.0029178411
0.0027349076
0.0025511341
0.0023666837
0.0021833786
0.0020002288
0.001824043
0.0016457182
0.0014957569
0.0013212357
0.0012594358
0.0010554598
0.0018132364
-0.0017860904
0.059056603
0.050817611
0.038480929
0.029216665
0.022934889
0.019160489
0.016922126
0.015313046
0.013946165
0.012821904
0.011931657
0.011231512
0.010700446
0.01031119
0.010033049
0.0098440058
0.0097241
0.0096588726
0.0096318943
0.0096307402
0.0096453107
0.0096616438
0.0096756889
0.009685889
0.0096901581
0.0096872732
0.0096779436
0.0096623175
0.0096389986
0.0096085509
0.0095721835
0.0095303075
0.0094834244
0.0094322838
0.0093768323
0.0093172937
0.009253801
0.0091862176
0.0091150201
0.0090405959
0.0089629786
0.0088820691
0.0087984089
0.0087120829
0.0086230613
0.0085317385
0.0084379362
0.0083417637
0.0082434266
0.0081426702
0.0080398404
0.007934909
0.0078278898
0.0077189583
0.0076078669
0.0074948548
0.0073798354
0.0072628063
0.0071437729
0.0070226617
0.0068996044
0.0067744605
0.0066473283
0.0065181031
0.0063868078
0.0062533955
0.0061178251
0.0059800682
0.0058400859
0.0056978732
0.0055533709
0.0054065745
0.0052574246
0.0051059285
0.0049520201
0.0047957065
0.0046369295
0.0044757161
0.0043120195
0.0041458873
0.0039772933
0.0038063143
0.0036329709
0.0034573661
0.0032796259
0.003099874
0.0029184229
0.0027354663
0.002551671
0.0023671999
0.0021838758
0.002000708
0.0018245072
0.0016461675
0.001496198
0.0013216682
0.001259874
0.0010559813
0.0018136526
-0.0017855319
0.055288438
0.048499946
0.037711351
0.028979717
0.023194442
0.019672072
0.017421343
0.015716868
0.014265591
0.013090414
0.012163233
0.011432229
0.010877147
0.010467646
0.010172079
0.00996847
0.0098357258
0.009758991
0.0097230047
0.0097125922
0.0097157945
0.0097244216
0.0097322261
0.0097366725
0.0097359124
0.009728752
0.0097157088
0.0096966853
0.0096703245
0.009637235
0.0095985657
0.0095546218
0.0095058831
0.0094530659
0.0093960969
0.0093351652
0.0092704163
0.0092017193
0.0091294878
0.0090541202
0.0089756383
0.0088939355
0.0088095505
0.0087225547
0.0086329147
0.00854102
0.0084466848
0.0083500199
0.0082512258
0.008150043
0.0080468175
0.007941516
0.0078341511
0.0077248954
0.0076134994
0.0075002021
0.007384914
0.0072676322
0.0071483609
0.0070270256
0.0069037571
0.0067784133
0.0066510922
0.0065216884
0.0063902241
0.0062566518
0.0061209296
0.005983029
0.0058429103
0.0057005683
0.0055559431
0.0054090299
0.005259769
0.0051081675
0.0049541587
0.0047977498
0.0046388821
0.0044775824
0.0043138037
0.0041475933
0.0039789249
0.0038078752
0.0036344645
0.0034587958
0.0032809946
0.003101185
0.0029196792
0.0027366707
0.0025528267
0.0023683096
0.0021849434
0.0020017353
0.0018255018
0.0016471272
0.0014971436
0.001322586
0.0012608224
0.0010569384
0.0018147361
-0.001784799
0.05238835
0.046776013
0.037451878
0.029288718
0.023768363
0.020225011
0.017881097
0.016125851
0.0146424
0.013437371
0.012476219
0.011710004
0.011125813
0.010690633
0.010371748
0.010147289
0.0099953093
0.0099014363
0.0098502192
0.0098263918
0.0098183555
0.0098173885
0.0098165865
0.0098133758
0.0098057338
0.0097924927
0.0097740744
0.0097501304
0.0097193344
0.009682361
0.0096402445
0.0095931633
0.0095415948
0.0094862125
0.0094269136
0.0093637658
0.0092970121
0.0092265576
0.0091526539
0.0090757664
0.0089958908
0.0089129056
0.008827348
0.0087392678
0.0086486266
0.0085558049
0.0084606028
0.0083631375
0.0082636002
0.0081617239
0.0080578559
0.007951954
0.0078440293
0.0077342498
0.0076223615
0.0075086045
0.0073928836
0.0072751946
0.0071555404
0.0070338455
0.0069102389
0.0067845756
0.0066569534
0.0065272652
0.0063955324
0.0062617058
0.006125743
0.0059876149
0.0058472808
0.0057047345
0.0055599156
0.0054128186
0.0052633834
0.0051116165
0.0049574505
0.0048008923
0.0046418828
0.0044804483
0.0043165414
0.0041502093
0.0039814252
0.0038102654
0.0036367501
0.003460982
0.0032830864
0.0031031872
0.0029215965
0.0027385077
0.0025545881
0.0023699996
0.0021865679
0.0020032972
0.0018270119
0.0016485831
0.0014985731
0.0013239722
0.0012622445
0.0010583152
0.0018164058
-0.0017838123
0.049689657
0.044952252
0.036981025
0.0296378
0.024405855
0.020810168
0.018343364
0.016492499
0.014937696
0.013715184
0.01275045
0.011976592
0.01137605
0.01091863
0.010580092
0.010337779
0.010169414
0.010060625
0.009993835
0.0099552737
0.0099343619
0.0099218382
0.0099117567
0.0099009292
0.0098865009
0.0098671086
0.0098431646
0.0098141613
0.0097787198
0.0097375764
0.0096916343
0.0096409821
0.0095861247
0.0095277292
0.0094656738
0.0093998818
0.0093307168
0.0092581129
0.009182159
0.0091033932
0.0090217842
0.0089371949
0.0088501645
0.0087607156
0.008668807
0.0085748095
0.0084785011
0.0083800081
0.008279514
0.0081767431
0.0080720456
0.007965367
0.0078567175
0.0077462602
0.0076337352
0.007519384
0.0074031026
0.0072848857
0.0071647352
0.0070425748
0.0069185309
0.0067924545
0.0066644432
0.0065343878
0.0064023084
0.0062681538
0.0061318806
0.0059934592
0.0058528477
0.0057100385
0.0055649703
0.0054176371
0.005267978
0.0051159987
0.004961631
0.0048048814
0.0046456901
0.004484083
0.0043200122
0.0041535243
0.0039845921
0.0038132917
0.0036396427
0.0034637476
0.0032857315
0.0031057179
0.0029240188
0.0027408273
0.002556811
0.0023721311
0.002188615
0.0020052641
0.0018289101
0.0016504123
0.0015003606
0.0013257048
0.0012640023
0.0010600172
0.0018184812
-0.0017825824
0.047215227
0.043072678
0.036299451
0.029771128
0.024832216
0.021299822
0.018793497
0.016887445
0.015295813
0.014033357
0.013028956
0.012214741
0.011587546
0.011111391
0.01076348
0.010509214
0.010323988
0.010204495
0.010128506
0.01008172
0.010053191
0.010031916
0.0100129
0.0099934087
0.0099709799
0.0099448065
0.009915441
0.0098818291
0.0098421771
0.0097972403
0.0097477533
0.0096936844
0.0096355814
0.0095741462
0.0095092436
0.0094407401
0.0093690707
0.009294154
0.0092160086
0.0091352132
0.0090517086
0.0089653426
0.0088766686
0.0087856776
0.008692326
0.0085969871
0.008499415
0.0083997444
0.0082981507
0.0081943455
0.0080886846
0.0079810999
0.0078716029
0.0077603523
0.0076470822
0.0075320344
0.0074150939
0.0072962562
0.0071755223
0.0070528139
0.0069282547
0.0068016909
0.0066732201
0.0065427312
0.0064102432
0.0062757015
0.006139062
0.0060002946
0.0058593558
0.0057162366
0.0055708743
0.0054232626
0.0052733399
0.0051211105
0.0049665053
0.0048095304
0.0046501252
0.0044883151
0.0043240514
0.0041573804
0.0039882743
0.0038168086
0.0036430026
0.0034669585
0.0032888008
0.0031086528
0.0029268264
0.0027435142
0.0025593841
0.0023745966
0.0021909804
0.0020075349
0.0018310974
0.0016525183
0.0015024087
0.0013276881
0.0012659916
0.0010619503
0.0018208282
-0.0017811505
0.045057683
0.041335534
0.035512217
0.029721702
0.025119134
0.021703856
0.0191919
0.017253735
0.015650916
0.014362534
0.013328367
0.012486059
0.0118282
0.011321544
0.010944758
0.010663194
0.010455264
0.010322789
0.01023816
0.010183171
0.010147829
0.010123035
0.010102306
0.010081064
0.010055672
0.010024815
0.0099899113
0.0099507623
0.0099060629
0.0098571515
0.0098044564
0.0097474568
0.0096865961
0.0096225531
0.0095551101
0.0094841274
0.0094101226
0.0093329755
0.0092526802
0.009169875
0.0090844624
0.0089962768
0.0089059032
0.0088132977
0.0087184164
0.008621647
0.0085227219
0.0084217876
0.0083190091
0.0082140801
0.0081073674
0.0079987889
0.0078883571
0.0077762282
0.0076621274
0.0075463005
0.0074286234
0.0073090927
0.0071877068
0.0070643834
0.0069392443
0.0068121307
0.0066831411
0.0065521626
0.0064192127
0.0062842328
0.0061471783
0.0060080187
0.0058667088
0.0057232382
0.0055775428
0.0054296154
0.0052793933
0.00512688
0.0049720052
0.0048147745
0.0046551265
0.004493086
0.0043286034
0.0041617246
0.0039924209
0.0038207676
0.0036467834
0.00347057
0.0032922515
0.0031119509
0.0029299798
0.0027465304
0.0025622707
0.0023773607
0.0021936298
0.0020100761
0.0018335406
0.0016548686
0.0015046839
0.0013298884
0.0012681752
0.0010640721
0.0018233898
-0.0017795224
0.043160789
0.039822184
0.034749588
0.029580136
0.025305019
0.022024384
0.01953588
0.017586892
0.015978256
0.014670483
0.013615144
0.012755301
0.012075365
0.011543126
0.011142799
0.010837232
0.010604721
0.0104508
0.010345117
0.010271687
0.010222607
0.010190457
0.010166338
0.010142668
0.0101174
0.010088268
0.010054718
0.010015992
0.0099697025
0.0099176245
0.0098611685
0.0098004903
0.0097365908
0.0096701714
0.0096006248
0.0095276235
0.0094517236
0.0093727072
0.0092905387
0.00920594
0.0091187756
0.0090288793
0.0089368835
0.0088427099
0.0087463233
0.0086481302
0.008547839
0.0084456185
0.0083416241
0.0082355313
0.0081277249
0.008018106
0.007906689
0.007793629
0.0076786395
0.0075619756
0.0074435067
0.0073232299
0.0072011395
0.0070771488
0.0069513788
0.0068236658
0.00669411
0.0065625947
0.0064291368
0.0062936752
0.0061561645
0.0060165729
0.0058748535
0.0057309947
0.0055849314
0.0054366549
0.0052861014
0.0051332734
0.0049780997
0.0048205853
0.0046606678
0.0044983714
0.0043336457
0.0041665358
0.0039970126
0.0038251507
0.0036509682
0.0034745665
0.0032960691
0.0031155984
0.002933466
0.0027498636
0.002565459
0.0023804119
0.002196552
0.0020128769
0.001836229
0.0016574525
0.0015071749
0.0013322941
0.001270539
0.001066364
0.0018261347
-0.0017776818
0.041453152
0.038477395
0.034053932
0.029422934
0.025442623
0.022291984
0.01984029
0.017892402
0.016282842
0.014963863
0.013892708
0.013017022
0.012316533
0.011763449
0.011339943
0.011013513
0.010762488
0.010588169
0.010463603
0.010373627
0.010309595
0.010263246
0.010226617
0.010192474
0.010160733
0.010129997
0.010096532
0.010058507
0.010015234
0.0099663136
0.0099120808
0.0098516817
0.0097861439
0.0097171302
0.0096448689
0.0095695273
0.0094918718
0.0094113615
0.0093277409
0.0092417642
0.0091532054
0.0090618888
0.0089685071
0.008872946
0.0087751927
0.0086756821
0.0085740981
0.0084706444
0.0083654699
0.0082582322
0.0081493409
0.0080386794
0.0079262677
0.0078122609
0.0076963608
0.0075788346
0.0074595437
0.007338488
0.0072156588
0.0070909657
0.0069645293
0.0068361813
0.0067060239
0.0065739354
0.006439933
0.0063039549
0.0061659546
0.0060258981
0.0058837369
0.0057394588
0.005592997
0.0054443423
0.005293429
0.005140259
0.0049847602
0.004826937
0.0046667258
0.0045041503
0.0043391591
0.0041717969
0.0040020336
0.0038299436
0.0036555441
0.0034789359
0.0033002424
0.0031195852
0.0029372756
0.002753505
0.0025689408
0.0023837426
0.0021997397
0.0020159303
0.0018391556
0.001660263
0.001509874
0.0013348972
0.0012730726
0.0010688133
0.0018290349
-0.0017756057
0.039899144
0.037245473
0.033390124
0.02924924
0.025551202
0.022531544
0.020124385
0.018183493
0.016574671
0.015247651
0.01416273
0.013272305
0.012553623
0.011981406
0.011536204
0.011190057
0.010921181
0.01072701
0.010584867
0.010480203
0.010402481
0.010343179
0.010295675
0.010252167
0.010211923
0.010173296
0.010132476
0.0100886
0.010043629
0.009995477
0.0099427676
0.009885535
0.0098236714
0.0097574506
0.0096863979
0.009610372
0.0095309694
0.0094484924
0.0093631341
0.0092758841
0.0091862524
0.0090938932
0.0089995052
0.008902888
0.008804044
0.0087034428
0.0086007428
0.0084961979
0.0083899556
0.0082816582
0.0081717496
0.008060095
0.0079467257
0.0078317977
0.0077150017
0.0075966205
0.0074765063
0.0073546646
0.0072310846
0.0071056739
0.0069785534
0.0068495498
0.0067187686
0.0065860837
0.0064515128
0.0063149932
0.0061764778
0.0060359308
0.0058933025
0.0057485798
0.0056016947
0.0054526373
0.0053013402
0.0051478049
0.0049919582
0.004833804
0.0046732777
0.0045104022
0.0043451255
0.0041774915
0.0040074694
0.0038351332
0.0036604991
0.0034836679
0.0033047619
0.0031239026
0.0029414008
0.0027574475
0.0025727096
0.0023873468
0.0022031874
0.002019231
0.001842315
0.0016632951
0.0015127752
0.0013376915
0.0012757679
0.0010714093
0.0018320642
-0.001773267
0.038478584
0.036104362
0.032736863
0.029040926
0.025620406
0.022740904
0.020390221
0.018464839
0.016859693
0.015526663
0.014429208
0.013524626
0.012788863
0.012198142
0.011732598
0.011367116
0.011080589
0.010867564
0.010708488
0.010588358
0.010496849
0.010425477
0.010367583
0.010315673
0.010267834
0.010222122
0.010174984
0.010125866
0.010075898
0.010022714
0.0099653741
0.0099061127
0.0098450083
0.0097806593
0.00971244
0.0096400458
0.0095635827
0.0094827167
0.0093972036
0.0093087492
0.0092176671
0.0091240488
0.0090287618
0.008931375
0.0088317792
0.0087304239
0.0086269017
0.0085215158
0.0084144114
0.0083052182
0.0081944277
0.0080818883
0.0079676496
0.0078518722
0.0077342352
0.0076150426
0.0074941369
0.0073715313
0.007247215
0.0071210943
0.0069932921
0.0068636301
0.0067322189
0.0065989285
0.0064637775
0.0063267025
0.0061876563
0.0060466022
0.0059034893
0.0057583036
0.0056109765
0.0054614973
0.0053097974
0.0051558777
0.0049996642
0.0048411603
0.0046803004
0.0045171069
0.0043515268
0.0041836038
0.0040133061
0.0038407071
0.0036658226
0.0034887527
0.0033096194
0.0031285434
0.0029458352
0.0027616854
0.0025767605
0.00239122
0.0022068908
0.0020227751
0.0018457035
0.001666545
0.0015158744
0.0013406724
0.0012786184
0.0010741435
0.0018351971
-0.0017706337
0.037175774
0.035044212
0.032092013
0.028794358
0.025642844
0.022912035
0.020631025
0.018732138
0.017136375
0.015801051
0.014693429
0.013775763
0.013023789
0.012415079
0.011929928
0.011545362
0.011241251
0.011009934
0.010833998
0.010698526
0.010593408
0.010509905
0.010441334
0.010380642
0.010325122
0.010272757
0.010220191
0.010166448
0.010111925
0.010054512
0.0099936653
0.0099310498
0.0098664253
0.0097984939
0.0097281581
0.0096563822
0.0095817976
0.0095035636
0.009421527
0.0093359233
0.0092464353
0.0091528398
0.0090566673
0.0089581985
0.0088577196
0.008755739
0.0086516566
0.0085457358
0.0084380629
0.0083282288
0.0082167757
0.0081035309
0.0079885719
0.0078720688
0.0077536913
0.0076337714
0.0075121422
0.007388828
0.007263819
0.007137022
0.0070085637
0.0068782612
0.0067462321
0.0066123431
0.006476615
0.0063389834
0.0061994023
0.0060578346
0.0059142283
0.0057685695
0.0056207886
0.005470875
0.0053187588
0.0051644407
0.0050078459
0.0048489774
0.0046877689
0.0045242425
0.0043583441
0.0041901172
0.004019529
0.0038466529
0.0036715036
0.0034941811
0.0033148066
0.0031335005
0.0029505728
0.0027662136
0.0025810888
0.0023953582
0.0022108465
0.0020265597
0.0018493181
0.00167001
0.0015191681
0.0013438366
0.0012816188
0.0010770084
0.0018384077
-0.001767669
0.035977294
0.034057492
0.031458555
0.028514332
0.025619089
0.023041741
0.020841503
0.018979906
0.017400511
0.016067885
0.014953596
0.014024829
0.013258084
0.012632329
0.012128412
0.011725198
0.011403602
0.01115434
0.010961603
0.010810909
0.010692095
0.010596451
0.010517166
0.010447407
0.010384034
0.010324877
0.010266633
0.010207994
0.010149061
0.01008805
0.010024258
0.0099587422
0.0098911716
0.0098205873
0.0097478377
0.0096734801
0.0095961022
0.0095160561
0.0094346591
0.0093508843
0.0092639155
0.0091735628
0.0090800054
0.0089828541
0.0088823563
0.0087796665
0.0086747726
0.0085682746
0.008460189
0.008349955
0.0082381095
0.0081244115
0.0080089532
0.0078919123
0.0077729493
0.0076524333
0.0075301895
0.0074062582
0.0072806326
0.0071532221
0.0070241596
0.0068932577
0.0067606438
0.0066261816
0.0064898957
0.0063517214
0.0062116144
0.0060695381
0.0059254403
0.0057793073
0.0056310692
0.0054807158
0.0053281763
0.0051734515
0.0050164659
0.0048572227
0.0046956547
0.0045317839
0.0043655554
0.0041970125
0.0040261216
0.0038529561
0.0036775297
0.0034999424
0.0033203145
0.0031387661
0.0029556069
0.0027710264
0.0025856899
0.0023997576
0.0022150511
0.0020305816
0.001853156
0.0016736875
0.0015226531
0.0013471809
0.0012847639
0.0010799967
0.0018416688
-0.0017643306
0.034871536
0.03313741
0.030839536
0.028207519
0.025553416
0.023130871
0.021019667
0.019204723
0.017648672
0.016324096
0.015207198
0.014269984
0.013490451
0.012849054
0.012327512
0.011906344
0.011567552
0.01130076
0.011091406
0.010925553
0.01079301
0.01068515
0.010595054
0.010516102
0.010444762
0.010378613
0.010314455
0.010250752
0.010187332
0.010122566
0.0100556
0.0099871752
0.0099170547
0.0098443965
0.0097696766
0.0096931655
0.0096137498
0.0095319183
0.0094485417
0.009362531
0.0092742206
0.0091846245
0.009092855
0.0089981871
0.0089006456
0.0088002153
0.0086962329
0.0085895903
0.0084809285
0.0083701185
0.0082579062
0.0081439271
0.0080282004
0.0079108583
0.0077915238
0.0076706002
0.0075479
0.0074234854
0.0072973559
0.0071694268
0.0070398406
0.0069084065
0.0067752643
0.0066402755
0.00650347
0.0063647836
0.0062241748
0.0060816084
0.0059370328
0.0057904352
0.005641746
0.0054909558
0.0053379935
0.0051828604
0.0050254805
0.0048658577
0.004703924
0.0045397015
0.0043731348
0.0042042672
0.0040330645
0.0038595998
0.0036838863
0.0035060239
0.0033261323
0.0031443311
0.0029609296
0.0027761172
0.002590558
0.0024044132
0.0022195005
0.0020348374
0.0018572139
0.0016775747
0.0015263261
0.0013507017
0.0012880483
0.0010831008
0.0018449507
-0.0017605708
0.033848421
0.032277779
0.030237257
0.027880333
0.025451072
0.023182021
0.021165563
0.019404966
0.0178787
0.016567422
0.015452137
0.01450949
0.01371949
0.013064182
0.012526397
0.012088201
0.011732715
0.011448916
0.011223246
0.011042372
0.010896149
0.01077604
0.010675063
0.010586775
0.010507317
0.010434032
0.010363807
0.01029491
0.010226879
0.010158179
0.01008788
0.010016461
0.0099436995
0.0098688048
0.009792052
0.009713666
0.0096327398
0.0095495214
0.0094645466
0.009376976
0.0092872778
0.009196038
0.0091024234
0.009007039
0.0089104222
0.0088117473
0.0087102435
0.0086061752
0.008499254
0.0083889742
0.0082765035
0.0081620591
0.0080459917
0.0079284386
0.0078089097
0.0076877908
0.0075648389
0.0074401238
0.0073136471
0.0071853324
0.0070553359
0.0069234652
0.0067898769
0.0066544311
0.0065171652
0.0063780163
0.006236947
0.0060939244
0.0059488983
0.0058018579
0.0056527345
0.0055015202
0.0053481444
0.005192609
0.0050348384
0.0048748371
0.0047125369
0.0045479605
0.0043810519
0.0042118547
0.0040403341
0.0038665637
0.0036905558
0.0035124104
0.0033322467
0.003150184
0.0029665314
0.0027814777
0.0025956862
0.0024093191
0.0022241894
0.0020393227
0.0018614879
0.0016816679
0.001530183
0.0013543953
0.0012914661
0.0010863125
0.0018482206
-0.0017563357
0.032899176
0.031472987
0.029653261
0.027538409
0.025317288
0.023198403
0.021280266
0.01958013
0.018089378
0.016796334
0.015686822
0.014741906
0.01394394
0.013276667
0.012724203
0.012270096
0.011898608
0.011598432
0.011356853
0.011161182
0.011001395
0.010869057
0.01075717
0.010659432
0.010571731
0.010491196
0.010414765
0.01034053
0.010267763
0.010194995
0.010121236
0.010046726
0.0099712173
0.0098939581
0.0098150885
0.0097347708
0.0096522128
0.0095675386
0.0094811959
0.0093925213
0.0093017734
0.0092092922
0.0091144879
0.0090179883
0.0089198794
0.0088196656
0.008718159
0.0086151894
0.0085099686
0.0084021973
0.0082918883
0.0081785587
0.0080626622
0.0079448276
0.0078249685
0.0077036636
0.0075805891
0.0074557544
0.0073291186
0.0072005913
0.0070703369
0.0069381593
0.0068042365
0.0066684289
0.0065307846
0.0063912434
0.0062497737
0.0061063457
0.0059609119
0.0058134645
0.0056639362
0.0055123219
0.0053585514
0.0052026289
0.0050444788
0.0048841074
0.0047214463
0.0045565192
0.0043892699
0.0042197428
0.0040479025
0.0038738232
0.0036975167
0.0035190833
0.0033386417
0.003156311
0.0029724
0.0027870976
0.0026010656
0.0024144677
0.0022291114
0.0020440317
0.0018659726
0.0016859627
0.0015342188
0.0013582568
0.0012950102
0.0010896225
0.0018514419
-0.0017515645
0.032016142
0.030717966
0.029088443
0.027186528
0.025156954
0.023183373
0.021365359
0.019730369
0.0182801
0.017009833
0.015910081
0.014966083
0.014162734
0.013485571
0.012920117
0.01245136
0.012064718
0.011748893
0.011491913
0.011281754
0.011108578
0.010964085
0.010841297
0.010734033
0.010637992
0.01055011
0.010467344
0.010387639
0.010310031
0.010233083
0.010155746
0.010078047
0.009999694
0.0099199717
0.009838899
0.0097565723
0.0096722887
0.0095860853
0.0094983289
0.0094084492
0.0093166111
0.0092231182
0.0091274989
0.0090301324
0.0089310131
0.0088298588
0.0087274088
0.0086230274
0.0085167561
0.0084094718
0.008300518
0.008189091
0.0080754054
0.0079591568
0.007839879
0.007718487
0.0075951558
0.0074701549
0.0073434369
0.0072148425
0.0070844987
0.0069521761
0.0068180645
0.0066820207
0.0065441062
0.0064042659
0.006262476
0.0061187122
0.0059729303
0.0058251269
0.005675237
0.0055232591
0.0053691245
0.0052128399
0.0050543308
0.0048936056
0.0047305964
0.0045653284
0.0043977456
0.0042278932
0.004055736
0.0038813489
0.0037047432
0.00352602
0.0033452976
0.0031626949
0.0029785208
0.0027929639
0.002606685
0.0024198493
0.002234258
0.0020489573
0.0018706616
0.0016904531
0.0015384272
0.0013622806
0.0012986727
0.00109302
0.0018545734
-0.0017461888
0.03119261
0.030008166
0.028543197
0.026828662
0.02497452
0.023140231
0.021422656
0.019856221
0.018450646
0.017207274
0.016121046
0.015181106
0.014374981
0.013690076
0.013113401
0.012631361
0.01223054
0.011899878
0.011628091
0.011403829
0.011217507
0.011060982
0.01092734
0.010810511
0.010706057
0.010610746
0.010521534
0.010436241
0.010353694
0.01027246
0.010191436
0.010110456
0.010029178
0.0099469084
0.0098635583
0.0097791554
0.0096930707
0.0096052646
0.0095160281
0.0094248685
0.0093318844
0.0092373357
0.0091408053
0.0090425878
0.0089427138
0.0088409321
0.0087376991
0.0086324878
0.00852547
0.0084172169
0.0083070441
0.0081954084
0.0080824961
0.0079676015
0.0078504224
0.0077308401
0.0076084289
0.0074835876
0.0073567091
0.0072279643
0.0070975621
0.0069652075
0.0068310562
0.0066949263
0.006556879
0.0064168595
0.0062748532
0.0061308432
0.005984791
0.0058366991
0.005686506
0.0055342148
0.005379759
0.0052231488
0.0050643114
0.0049032581
0.004739922
0.0045743304
0.0044064277
0.0042362609
0.0040637947
0.0038891055
0.0037122044
0.0035331934
0.0033521905
0.0031693149
0.0029848755
0.0027990609
0.0026125306
0.0024254519
0.0022396188
0.0020540901
0.0018755465
0.0016951317
0.0015428007
0.0013664593
0.001302444
0.0010964922
0.0018575685
-0.0017401322
0.03042269
0.02933952
0.028017536
0.026468068
0.024773976
0.023072146
0.021454087
0.019958472
0.018601049
0.017388247
0.016319054
0.015386227
0.014579923
0.01388946
0.013303386
0.012809512
0.012395584
0.012050971
0.011765048
0.01152714
0.01132797
0.01115959
0.01101518
0.010888783
0.01077587
0.010673063
0.010577311
0.010486326
0.010398748
0.010313128
0.010228313
0.010143966
0.010059684
0.0099747882
0.0098890919
0.0098025553
0.0097146071
0.0096251411
0.0095343735
0.0094418758
0.0093476855
0.0092520202
0.0091545177
0.0090554117
0.0089547323
0.0088522343
0.0087483067
0.0086425378
0.0085349911
0.0084260478
0.0083151922
0.0082029247
0.0080889413
0.0079732126
0.0078564212
0.0077379814
0.0076172295
0.0074942017
0.0073684974
0.0072401454
0.0071096933
0.0069772122
0.006843017
0.0067068864
0.006568835
0.0064287733
0.0062866787
0.0061425357
0.0059963118
0.0058480171
0.0056975953
0.0055450559
0.0053903355
0.0052334487
0.0050743251
0.0049129797
0.0047493471
0.0045834575
0.0044152562
0.0042447924
0.0040720315
0.0038970514
0.0037198635
0.003540571
0.003359292
0.003176146
0.0029914421
0.0028053692
0.0026185855
0.0024312607
0.0022451805
0.0020594186
0.0018806168
0.0016999892
0.0015473295
0.0013707842
0.0013063128
0.0011000244
0.0018603741
-0.0017333086
0.029701187
0.028708399
0.0275112
0.026107374
0.024558865
0.022982123
0.02146163
0.020038084
0.018731534
0.017552513
0.016503591
0.015580813
0.014776892
0.014083068
0.013489456
0.012985257
0.012559382
0.012201767
0.011902446
0.011651412
0.011439752
0.01125974
0.011104687
0.010968754
0.010847361
0.010737013
0.010634642
0.010537872
0.010445177
0.010355079
0.010266376
0.010178578
0.010091217
0.010003617
0.0099155081
0.0098267823
0.0097369116
0.0096457332
0.0095533918
0.009459509
0.0093640696
0.0092672473
0.0091687272
0.0090686805
0.008967138
0.0088638768
0.0087592324
0.0086528397
0.0085447156
0.0084352281
0.0083239446
0.0082111415
0.0080965632
0.0079803009
0.0078627475
0.0077433776
0.007622548
0.0075002965
0.0073758919
0.0072492978
0.0071201892
0.0069882822
0.0068541346
0.0067179165
0.006579834
0.0064397905
0.0062977171
0.0061535652
0.0060072883
0.0058588972
0.0057083398
0.0055556334
0.0054007193
0.0052436182
0.0050842626
0.0049226724
0.0047587841
0.0045926314
0.0044241613
0.0042534258
0.0040803912
0.0039051377
0.0037276771
0.0035481144
0.0033665681
0.0031831581
0.0029981941
0.0028118656
0.0026248292
0.0024372576
0.0022509273
0.0020649288
0.0018858596
0.0017050139
0.0015520023
0.0013752446
0.001310266
0.0011035991
0.0018629293
-0.001725622
0.029023511
0.028111566
0.027023735
0.025748673
0.024332294
0.022872975
0.021447275
0.020096151
0.018842489
0.017699982
0.016674266
0.01576432
0.014965286
0.014270295
0.013671029
0.013158066
0.012721472
0.012351864
0.012039942
0.011776364
0.011552625
0.011361254
0.011195723
0.011050322
0.010920454
0.010802539
0.010693488
0.010590853
0.010492963
0.010398302
0.010305619
0.010214288
0.010123775
0.010033398
0.0099428098
0.0098518396
0.0097599889
0.0096670464
0.0095730892
0.0094777771
0.0093810501
0.0092830384
0.009183465
0.009082445
0.0089800061
0.0088759452
0.0087705351
0.0086634654
0.0085547346
0.0084446734
0.0083328874
0.0082195902
0.0081046165
0.0079879722
0.0078699043
0.0077500237
0.0076286623
0.0075055553
0.0073807854
0.0072546426
0.007126552
0.0069962563
0.0068635055
0.0067279909
0.0065900549
0.0064499643
0.0063078708
0.0061637507
0.0060175138
0.0058691382
0.005718555
0.005565781
0.0054107605
0.0052535217
0.0050940013
0.0049322252
0.0047681329
0.0046017625
0.0044330627
0.0042620892
0.0040888095
0.0039133071
0.0037355943
0.0035557784
0.0033739786
0.0031903157
0.0030051002
0.0028185222
0.0026312371
0.0024434209
0.0022568398
0.0020706032
0.0018912593
0.0017101919
0.0015568049
0.0013798276
0.001314288
0.0011071959
0.0018651654
-0.0017169651
0.028385595
0.027546131
0.026554558
0.025393602
0.024096965
0.022747318
0.02141299
0.020133865
0.018934439
0.017830697
0.016830798
0.01593629
0.01514456
0.014450572
0.013847547
0.013327417
0.012881396
0.012500859
0.012177191
0.01190171
0.011666355
0.011463944
0.01128814
0.011133374
0.010995067
0.010869579
0.010753805
0.010645238
0.010542083
0.01044278
0.010346032
0.010251091
0.010157354
0.010064127
0.0099709966
0.0098777272
0.0097838402
0.0096890825
0.0095934674
0.0094966823
0.0093986295
0.0092993965
0.0091987362
0.0090967155
0.0089933551
0.008888467
0.0087822663
0.0086744915
0.0085651208
0.0084544398
0.008342106
0.0082283001
0.0081128772
0.0079958103
0.0078773449
0.007757143
0.0076353684
0.0075118117
0.007386647
0.0072597717
0.0071310966
0.0070010358
0.006869159
0.0067350232
0.0065984619
0.0064591596
0.006317294
0.0061731658
0.0060269219
0.0058785881
0.0057280586
0.0055753182
0.0054202925
0.0052630084
0.005103405
0.004941515
0.0047772819
0.0046107494
0.0044418689
0.0042707003
0.0040972129
0.0039214936
0.0037435561
0.0035635104
0.0033814767
0.0031975771
0.0030121232
0.0028253061
0.0026377798
0.0024497244
0.0022628947
0.0020764212
0.0018967969
0.001715506
0.0015617206
0.0013845177
0.0013183606
0.0011107909
0.0018670176
-0.0017072173
0.02778383
0.027009512
0.026103004
0.025043421
0.023855204
0.022607554
0.021360698
0.020152489
0.019008032
0.017944827
0.016973016
0.016096343
0.015314227
0.014623365
0.014018474
0.013492802
0.013038697
0.012648347
0.012313838
0.01202715
0.011780696
0.011567613
0.01138178
0.01121779
0.011071109
0.010938066
0.010815543
0.010700993
0.010592514
0.010488498
0.010387605
0.01028898
0.01019195
0.010095804
0.010000067
0.0099044441
0.0098084656
0.0097118417
0.0096145263
0.0095162252
0.0094168082
0.0093163214
0.009214541
0.0091114922
0.0090071851
0.0089014447
0.0087944353
0.0086859347
0.0085759019
0.0084645803
0.0083516746
0.0082373248
0.008121407
0.0080038914
0.0078850022
0.007764422
0.0076422791
0.0075184306
0.0073929249
0.0072656577
0.0071366332
0.0070059987
0.0068735023
0.0067393967
0.0066035432
0.0064654272
0.0063248887
0.0061815959
0.0060356391
0.0058873297
0.0057368058
0.0055841157
0.0054291539
0.0052719163
0.0051123229
0.004950405
0.0047861073
0.0046194799
0.0044504779
0.0042791666
0.0041055176
0.003929622
0.0037514949
0.0035712499
0.0033890082
0.0032048938
0.0030192199
0.0028321787
0.002644423
0.0024561375
0.0022690645
0.0020823582
0.0019024501
0.0017209359
0.0015667297
0.0013892966
0.0013224629
0.0011143559
0.0018684345
-0.0016962424
0.027215006
0.026499393
0.025668358
0.024699077
0.023608992
0.022455871
0.021292255