/*--------------------------------*- C++ -*----------------------------------*\
| =========                 |                                                 |
| \\      /  F ield         | OpenFOAM: The Open Source CFD Toolbox           |
|  \\    /   O peration     | Version:  2206                                  |
|   \\  /    A nd           | Website:  www.openfoam.com                      |
|    \\/     M anipulation  |                                                 |
\*---------------------------------------------------------------------------*/
FoamFile
{
    version     2.0;
    format      ascii;
    arch        "LSB;label=32;scalar=64";
    class       surfaceScalarField;
    location    "900";
    object      phi;
}
// * * * * * * * * * * * * * * * * * * * * * * * * * * * * * * * * * * * * * //

dimensions      [0 3 -1 0 0 0 0];

oriented        oriented;

internalField   nonuniform List<scalar> 
14782
(
0.00064615691
7.5195272e-05
-0.00072135218
0.00055263183
9.3525086e-05
0.00046307416
8.9557664e-05
0.00039112174
7.1952418e-05
0.00033985201
5.1269737e-05
0.000303741
3.6111006e-05
0.00027697593
2.676507e-05
0.00025583891
2.1137018e-05
0.00023834388
1.7495036e-05
0.00022360334
1.4740537e-05
0.00021113744
1.2465896e-05
0.00020056653
1.0570915e-05
0.00019158995
8.9765735e-06
0.0001839529
7.6370593e-06
0.00017743111
6.5217828e-06
0.00017184338
5.5877278e-06
0.00016704074
4.8026409e-06
0.00016290146
4.1392821e-06
0.00015931113
3.5903268e-06
0.00015616585
3.145288e-06
0.00015338868
2.777169e-06
0.00015090048
2.4882018e-06
0.00014864588
2.2546003e-06
0.00014658578
2.0600988e-06
0.000144688
1.8977798e-06
0.00014292719
1.7608061e-06
0.00014128392
1.643276e-06
0.00013974052
1.5433955e-06
0.00013828015
1.4603732e-06
0.00013689128
1.3888702e-06
0.00013556708
1.3241994e-06
0.00013430108
1.2660017e-06
0.00013308716
1.2139198e-06
0.00013192013
1.167028e-06
0.0001307954
1.1247324e-06
0.00012970755
1.0878465e-06
0.000128652
1.0555496e-06
0.00012762639
1.0256067e-06
0.00012662776
9.9863453e-07
0.00012565351
9.7425195e-07
0.00012470154
9.5196382e-07
0.00012376974
9.317999e-07
0.00012285696
9.1278595e-07
0.00012196201
8.9494567e-07
0.0001210836
8.7841182e-07
0.0001202209
8.6270205e-07
0.00011937255
8.4834802e-07
0.00011853753
8.3501671e-07
0.00011771527
8.2226192e-07
0.00011690483
8.1044433e-07
0.00011610582
7.9900477e-07
0.00011531776
7.8806052e-07
0.00011454019
7.7757427e-07
0.00011377286
7.673246e-07
0.0001130152
7.5766201e-07
0.00011226699
7.4820926e-07
0.00011152783
7.3915637e-07
0.00011079731
7.3052216e-07
0.00011007511
7.2220253e-07
0.00010936099
7.1411919e-07
0.00010865494
7.0605303e-07
0.00010795671
6.9822895e-07
0.00010726617
6.9054161e-07
0.00010658312
6.8304807e-07
0.00010590744
6.756744e-07
0.00010523896
6.6848603e-07
0.00010457746
6.6150137e-07
0.0001039228
6.5465345e-07
0.00010327489
6.4791619e-07
0.00010263361
6.412771e-07
0.00010199883
6.3477488e-07
0.00010137046
6.2837289e-07
0.00010074839
6.2207e-07
0.00010013255
6.1584636e-07
9.9522785e-05
6.0976015e-07
9.8919006e-05
6.0377897e-07
9.8321086e-05
5.979206e-07
9.7728936e-05
5.9214992e-07
9.7142436e-05
5.8649939e-07
9.6561496e-05
5.8094017e-07
9.5985987e-05
5.7550911e-07
9.5415806e-05
5.7018079e-07
9.4850815e-05
5.6499106e-07
9.429088e-05
5.5993552e-07
9.373585e-05
5.5503e-07
9.3185527e-05
5.5032267e-07
9.2639717e-05
5.4581014e-07
9.2098129e-05
5.4158759e-07
9.156047e-05
5.3765904e-07
9.1026246e-05
5.3422488e-07
9.0494985e-05
5.3126058e-07
8.9965616e-05
5.2936869e-07
8.9437508e-05
5.2810792e-07
8.8907379e-05
5.3012941e-07
8.8375918e-05
5.3146121e-07
8.782806e-05
5.4785805e-07
8.7277497e-05
5.5056225e-07
8.6631508e-05
6.4598922e-07
8.6362273e-05
2.6923479e-07
1.1875396e-06
0.00078820268
8.1326429e-05
-0.00079433384
0.00076957438
0.00011215339
0.0007346732
0.00012445885
0.00068733649
0.00011928913
0.0006351694
0.00010343683
0.00058548334
8.5797066e-05
0.00054175408
7.0494325e-05
0.00050459089
5.8300215e-05
0.00047327958
4.8806341e-05
0.00044686027
4.1159852e-05
0.00042443842
3.4887739e-05
0.00040527662
2.9732719e-05
0.00038882443
2.5428766e-05
0.00037465261
2.1808877e-05
0.00036241163
1.8762758e-05
0.00035181296
1.6186398e-05
0.00034260058
1.401502e-05
0.00033455127
1.21886e-05
0.00032747375
1.0667844e-05
0.00032120744
9.411596e-06
0.00031561601
8.3685983e-06
0.00031058087
7.5233475e-06
0.00030600858
6.8268866e-06
0.00030182625
6.2424278e-06
0.00029797378
5.7502533e-06
0.000294403
5.3315875e-06
0.00029107538
4.97089e-06
0.00028795667
4.6621032e-06
0.00028501728
4.39977e-06
0.00028223474
4.1714122e-06
0.00027959264
3.9662939e-06
0.00027707627
3.7823772e-06
0.00027467247
3.6177179e-06
0.00027236981
3.4696851e-06
0.00027015873
3.335813e-06
0.00026802839
3.2181839e-06
0.00026596967
3.1142763e-06
0.00026397717
3.0181003e-06
0.00026204428
2.9315264e-06
0.00026016544
2.8530918e-06
0.00025833614
2.7812664e-06
0.00025655211
2.7158286e-06
0.00025481023
2.6546686e-06
0.00025310762
2.5975565e-06
0.00025144148
2.5445463e-06
0.00024980954
2.4946396e-06
0.00024820911
2.4487833e-06
0.00024663795
2.4061707e-06
0.00024509444
2.3657777e-06
0.00024357673
2.3281566e-06
0.00024208359
2.2921428e-06
0.00024061379
2.2578585e-06
0.00023916623
2.225138e-06
0.00023774004
2.1935062e-06
0.00023633412
2.163586e-06
0.00023494772
2.1346138e-06
0.00023357993
2.1069417e-06
0.00023222985
2.0805989e-06
0.00023089674
2.0553165e-06
0.00022958003
2.0308324e-06
0.00022827941
2.0066734e-06
0.00022699435
1.9832822e-06
0.00022572443
1.960462e-06
0.0002244692
1.9382811e-06
0.0002232283
1.9165787e-06
0.00022200129
1.8954938e-06
0.00022078773
1.8750611e-06
0.00021958727
1.8551078e-06
0.00021839964
1.8355536e-06
0.00021722454
1.8163695e-06
0.00021606169
1.7976272e-06
0.00021491082
1.7792438e-06
0.0002137717
1.7611955e-06
0.00021264409
1.7434469e-06
0.00021152773
1.7261207e-06
0.00021042236
1.7091494e-06
0.00020932773
1.692556e-06
0.00020824361
1.6762677e-06
0.00020716977
1.6603439e-06
0.00020610598
1.6447286e-06
0.00020505199
1.6294949e-06
0.00020400758
1.6145948e-06
0.00020297246
1.600106e-06
0.00020194637
1.5860257e-06
0.000200929
1.5724002e-06
0.00019991999
1.5593402e-06
0.00019891892
1.5468802e-06
0.00019792529
1.5352135e-06
0.00019693847
1.5244824e-06
0.0001959577
1.51499e-06
0.00019498174
1.5072248e-06
0.00019400945
1.501654e-06
0.00019303778
1.4997769e-06
0.00019206492
1.502993e-06
0.00019108309
1.5132891e-06
0.00019008378
1.5471654e-06
0.00018905272
1.5816232e-06
0.00018794395
1.7547634e-06
0.00018704328
1.1699017e-06
2.7264286e-06
0.00082970851
7.7931724e-05
-0.00082631381
0.00083399394
0.00010786795
0.00083502874
0.00012342406
0.00082818214
0.00012613572
0.00080994446
0.0001216745
0.00078229339
0.00011344814
0.00074955112
0.0001032366
0.00071530479
9.2546546e-05
0.00068175518
8.2355946e-05
0.00065023108
7.2683948e-05
0.00062138213
6.3736689e-05
0.00059541222
5.5702635e-05
0.00057227303
4.8567956e-05
0.00055175686
4.2325042e-05
0.00053358881
3.6930813e-05
0.00051749082
3.228439e-05
0.00050319567
2.8310161e-05
0.00049046426
2.4920017e-05
0.00047908676
2.2045345e-05
0.00046888014
1.9618215e-05
0.00045968109
1.7567646e-05
0.00045134767
1.5856764e-05
0.00044375877
1.4415792e-05
0.00043681208
1.3189112e-05
0.00043041961
1.2142731e-05
0.00042450506
1.1246132e-05
0.00041900625
1.0469706e-05
0.00041387271
9.7956424e-06
0.00040906076
9.2117147e-06
0.00040453373
8.6984405e-06
0.00040026054
8.2394918e-06
0.00039621402
7.8288902e-06
0.00039237066
7.4610769e-06
0.00038871045
7.1299023e-06
0.00038521621
6.8300478e-06
0.00038186998
6.5644118e-06
0.00037865712
6.3271385e-06
0.00037556679
6.1084299e-06
0.00037258717
5.9111482e-06
0.00036970881
5.7314532e-06
0.00036692354
5.5665382e-06
0.0003642237
5.4156648e-06
0.00036160293
5.2754352e-06
0.00035905549
5.1449984e-06
0.00035657603
5.0240076e-06
0.00035415993
4.9107429e-06
0.00035180251
4.806201e-06
0.00034949972
4.7089645e-06
0.00034724817
4.6173208e-06
0.00034504454
4.5317885e-06
0.00034288611
4.450573e-06
0.00034077032
4.3736517e-06
0.00033869485
4.3006036e-06
0.00033665776
4.2305977e-06
0.00033465699
4.1643578e-06
0.00033269085
4.100749e-06
0.0003307576
4.0401909e-06
0.00032885558
3.9826205e-06
0.00032698337
3.9275321e-06
0.00032513976
3.8744442e-06
0.00032332379
3.8226355e-06
0.00032153439
3.7726844e-06
0.00031977058
3.7242751e-06
0.00031803143
3.6774286e-06
0.00031631613
3.6318811e-06
0.00031462381
3.5878096e-06
0.00031295365
3.545228e-06
0.00031130492
3.503835e-06
0.00030967699
3.4634788e-06
0.00030806927
3.4240932e-06
0.00030648115
3.385751e-06
0.00030491208
3.3483105e-06
0.00030336156
3.3117104e-06
0.00030182912
3.2758959e-06
0.00030031421
3.2410309e-06
0.00029881635
3.2070054e-06
0.00029733507
3.1738331e-06
0.00029586994
3.1414008e-06
0.0002944205
3.1097797e-06
0.00029298635
3.078886e-06
0.00029156702
3.0488179e-06
0.00029016211
3.0195065e-06
0.00028877115
2.9910673e-06
0.00028739367
2.9635011e-06
0.00028602918
2.9368916e-06
0.00028467711
2.9114154e-06
0.00028333681
2.8871807e-06
0.00028200755
2.8644655e-06
0.00028068836
2.8436722e-06
0.00027937827
2.8250839e-06
0.00027807529
2.8102073e-06
0.00027677835
2.7985909e-06
0.00027548216
2.7959686e-06
0.0002741867
2.7984518e-06
0.0002728762
2.823789e-06
0.00027155039
2.8729797e-06
0.00027016701
2.965001e-06
0.00026873323
3.1885441e-06
0.00026729736
2.6057705e-06
4.3880963e-06
0.00085986699
7.4365745e-05
-0.00085630102
0.00086603543
0.00010169952
0.00087205645
0.00011740304
0.00087628377
0.00012190841
0.00087770599
0.00012025228
0.00087487771
0.00011627642
0.00086655105
0.00011156326
0.00085242223
0.00010667537
0.00083336452
0.00010141365
0.00081106696
9.4981511e-05
0.00078692661
8.7877037e-05
0.00076205551
8.057374e-05
0.00073737654
7.324692e-05
0.00071357851
6.6123081e-05
0.00069112283
5.9386488e-05
0.00067026796
5.3139262e-05
0.00065109769
4.748043e-05
0.00063357913
4.2438573e-05
0.00061760915
3.8015327e-05
0.00060305535
3.4172015e-05
0.00058977978
3.0843216e-05
0.00057764996
2.7986588e-05
0.00056654173
2.5524024e-05
0.00055634059
2.3390251e-05
0.00054694152
2.1541801e-05
0.00053824852
1.9939126e-05
0.00053017891
1.8539318e-05
0.00052266421
1.7310344e-05
0.00051564378
1.6232148e-05
0.00050906417
1.5278048e-05
0.0005028786
1.4425063e-05
0.00049704593
1.3661563e-05
0.0004915298
1.2977202e-05
0.00048629934
1.2360363e-05
0.00048132777
1.1801615e-05
0.00047659107
1.1301118e-05
0.00047206791
1.0850295e-05
0.00046773923
1.0437111e-05
0.00046358803
1.0062344e-05
0.00045959938
9.7201059e-06
0.00045576013
9.405785e-06
0.00045205816
9.1176392e-06
0.0004484829
8.8506901e-06
0.00044502484
8.6030584e-06
0.00044167521
8.3736387e-06
0.00043842642
8.1595401e-06
0.00043527122
7.9613919e-06
0.00043220314
7.7770522e-06
0.00042921656
7.6038938e-06
0.00042630616
7.4421898e-06
0.00042346728
7.289455e-06
0.00042069557
7.1453607e-06
0.0004179871
7.0090773e-06
0.00041533846
6.8792341e-06
0.00041274635
6.7564735e-06
0.00041020781
6.6392828e-06
0.00040771999
6.5280141e-06
0.00040528027
6.4223415e-06
0.00040288636
6.3214411e-06
0.00040053618
6.2246227e-06
0.00039822789
6.1309208e-06
0.00039595964
6.0409404e-06
0.00039372973
5.9541805e-06
0.00039153661
5.8705538e-06
0.00038937883
5.7896632e-06
0.00038725497
5.7116665e-06
0.0003851637
5.6364969e-06
0.00038310383
5.5637029e-06
0.00038107426
5.4930484e-06
0.00037907396
5.4243978e-06
0.00037710193
5.3577815e-06
0.00037515726
5.2929804e-06
0.00037323908
5.2298875e-06
0.00037134656
5.1684135e-06
0.00036947887
5.108727e-06
0.00036763521
5.0506593e-06
0.00036581485
4.9942003e-06
0.00036401706
4.9391893e-06
0.00036224115
4.8856918e-06
0.00036048644
4.8335894e-06
0.00035875227
4.7829916e-06
0.00035703797
4.7338045e-06
0.00035534287
4.6861727e-06
0.00035366627
4.6400988e-06
0.00035200746
4.5957038e-06
0.00035036564
4.5532286e-06
0.00034873995
4.5128758e-06
0.00034712941
4.474999e-06
0.00034553275
4.4403357e-06
0.00034394876
4.4090783e-06
0.0003423749
4.3840629e-06
0.00034081003
4.3634583e-06
0.00033924737
4.3586334e-06
0.0003376878
4.3580171e-06
0.00033611055
4.4010429e-06
0.00033452002
4.4635048e-06
0.00033285619
4.6288372e-06
0.00033115873
4.8859976e-06
0.00032930564
4.45886e-06
6.1615898e-06
0.00088977286
7.1366391e-05
-0.00088677351
0.00089558537
9.5887013e-05
0.00090191111
0.0001110773
0.00090724662
0.0001165729
0.0009110006
0.00011649829
0.0009135249
0.00011375212
0.00091461843
0.00011046973
0.00091388443
0.00010740937
0.00091102207
0.00010427601
0.00090502996
0.00010097361
0.00089548889
9.741811e-05
0.00088253074
9.3531887e-05
0.00086678484
8.8992824e-05
0.00084896142
8.3946502e-05
0.00082970448
7.8643424e-05
0.00080965353
7.3190211e-05
0.00078941717
6.7716789e-05
0.00076952296
6.2332781e-05
0.00075037362
5.7164673e-05
0.00073223249
5.231314e-05
0.00071523002
4.784569e-05
0.00069939105
4.3825562e-05
0.00068467766
4.023741e-05
0.00067102303
3.7044883e-05
0.00065834923
3.4215596e-05
0.00064657512
3.1713239e-05
0.00063562076
2.9493678e-05
0.0006254102
2.7520904e-05
0.00061587153
2.5770818e-05
0.00060693971
2.4209862e-05
0.00059855677
2.2808011e-05
0.00059066994
2.1548393e-05
0.00058323141
2.0415725e-05
0.00057619943
1.9392346e-05
0.00056953652
1.846452e-05
0.00056321075
1.7626888e-05
0.00055719339
1.686766e-05
0.00055145688
1.6173622e-05
0.00054597767
1.5541552e-05
0.00054073476
1.4963019e-05
0.00053570919
1.4431353e-05
0.00053088337
1.3943463e-05
0.00052624179
1.3492266e-05
0.00052177041
1.3074436e-05
0.00051745623
1.2687821e-05
0.00051328802
1.2327747e-05
0.00050925558
1.1993836e-05
0.00050534965
1.1682985e-05
0.00050156203
1.1391512e-05
0.00049788484
1.1119377e-05
0.00049431103
1.0863268e-05
0.00049083409
1.0622299e-05
0.0004874481
1.0395066e-05
0.00048414786
1.0179477e-05
0.00048092838
9.9759483e-06
0.00047778516
9.7825015e-06
0.00047471398
9.5991966e-06
0.00047171109
9.425237e-06
0.0004687731
9.2594262e-06
0.00046589681
9.1009166e-06
0.00046307927
8.9484558e-06
0.00046031768
8.8025346e-06
0.00045760947
8.6623844e-06
0.00045495228
8.527749e-06
0.0004523439
8.3980466e-06
0.00044978222
8.2733395e-06
0.00044726531
8.1534051e-06
0.00044479139
8.0376247e-06
0.00044235878
7.9256594e-06
0.00043996592
7.8172576e-06
0.00043761135
7.7123582e-06
0.00043529368
7.6106443e-06
0.00043301161
7.5119569e-06
0.00043076388
7.4161431e-06
0.00042854928
7.3233294e-06
0.00042636667
7.2332677e-06
0.00042421496
7.1459087e-06
0.00042209312
7.0610309e-06
0.00042000014
6.9786754e-06
0.00041793505
6.8986758e-06
0.00041589691
6.8211379e-06
0.00041388478
6.7459333e-06
0.00041189772
6.6732245e-06
0.00040993481
6.6030096e-06
0.00040799508
6.5354419e-06
0.00040607748
6.4708224e-06
0.0004041809
6.4094576e-06
0.00040230413
6.351772e-06
0.00040044558
6.2988807e-06
0.00039860381
6.2508524e-06
0.00039677584
6.2120321e-06
0.00039496032
6.178975e-06
0.00039314948
6.169477e-06
0.00039134446
6.1630306e-06
0.00038952147
6.2240399e-06
0.00038768703
6.2979462e-06
0.00038577021
6.5456518e-06
0.00038382965
6.8265586e-06
0.00038162076
6.6677541e-06
8.0720731e-06
0.00092062255
6.8773622e-05
-0.00091802978
0.00092579291
9.0716653e-05
0.00093159618
0.00010527402
0.00093671398
0.0001114551
0.00094080647
0.0001124058
0.00094379429
0.0001107643
0.00094591598
0.00010834805
0.00094739113
0.00010593422
0.00094835075
0.00010331639
0.00094865336
0.000100671
0.00094797834
9.8093126e-05
0.00094603138
9.5478844e-05
0.00094219155
9.2832663e-05
0.00093600178
9.0136264e-05
0.00092725956
8.7385648e-05
0.00091607695
8.4372823e-05
0.00090278242
8.1011314e-05
0.00088770825
7.7406957e-05
0.00087124927
7.3623655e-05
0.00085388764
6.9674767e-05
0.00083613954
6.559379e-05
0.00081847508
6.1490025e-05
0.00080127141
5.7441079e-05
0.00078478141
5.3534884e-05
0.0007691372
4.9859796e-05
0.00075438069
4.6469753e-05
0.00074050223
4.3372141e-05
0.00072746669
4.0556442e-05
0.00071522603
3.8011476e-05
0.00070372798
3.5707914e-05
0.00069291855
3.3617442e-05
0.00068274333
3.1723608e-05
0.00067315036
3.0008694e-05
0.00066409195
2.8450757e-05
0.00065552304
2.7033439e-05
0.00064740298
2.5746944e-05
0.0006396958
2.4574835e-05
0.00063236726
2.3502167e-05
0.00062538637
2.2522447e-05
0.0006187258
2.1623582e-05
0.00061236064
2.0796516e-05
0.00060626763
2.0036476e-05
0.000600426
1.9333895e-05
0.00059481683
1.8683607e-05
0.0005894226
1.8082044e-05
0.00058422786
1.7522492e-05
0.00057921855
1.7003146e-05
0.00057438205
1.6519485e-05
0.00056970703
1.6066537e-05
0.00056518267
1.5643737e-05
0.00056079926
1.5246677e-05
0.00055654784
1.4873713e-05
0.00055242016
1.4522748e-05
0.00054840882
1.4190813e-05
0.00054450675
1.3878021e-05
0.00054070756
1.3581694e-05
0.00053700551
1.3301244e-05
0.00053339545
1.3035299e-05
0.0005298726
1.2782273e-05
0.00052643239
1.2541125e-05
0.00052307065
1.2310204e-05
0.00051978342
1.208976e-05
0.00051656714
1.1878662e-05
0.00051341845
1.1676446e-05
0.00051033419
1.1482302e-05
0.00050731146
1.129607e-05
0.00050434758
1.1117285e-05
0.00050144005
1.0945155e-05
0.00049858651
1.0779202e-05
0.00049578477
1.0618994e-05
0.0004930328
1.0464326e-05
0.00049032868
1.0314767e-05
0.00048767054
1.01701e-05
0.00048505662
1.0030055e-05
0.00048248529
9.8946637e-06
0.00047995498
9.7635779e-06
0.0004774642
9.6366904e-06
0.00047501153
9.5136993e-06
0.00047259561
9.3945996e-06
0.00047021512
9.2791594e-06
0.0004678688
9.1674624e-06
0.0004655554
9.0593321e-06
0.00046327369
8.9549347e-06
0.00046102244
8.8542538e-06
0.00045880042
8.7574663e-06
0.00045660632
8.6649261e-06
0.00045443873
8.577046e-06
0.00045229618
8.494317e-06
0.00045017681
8.4182559e-06
0.00044807887
8.3487933e-06
0.00044599901
8.2918899e-06
0.00044393561
8.242373e-06
0.00044188016
8.2249256e-06
0.00043983373
8.2094582e-06
0.00043777056
8.2872168e-06
0.00043569798
8.3705263e-06
0.00043353788
8.7057532e-06
0.00043136121
9.0032297e-06
0.0004288247
9.2042599e-06
1.0137365e-05
0.00095252314
6.6506716e-05
-0.00095025623
0.00095712016
8.6119633e-05
0.00096244899
9.9945183e-05
0.00096723873
0.00010666536
0.00097112017
0.00010852436
0.00097410019
0.00010778428
0.00097640976
0.00010603847
0.00097828195
0.00010406203
0.00097972607
0.00010187227
0.00098079259
9.9604485e-05
0.00098153873
9.7346977e-05
0.00098197512
9.5042457e-05
0.00098202497
9.2782813e-05
0.00098149708
9.0664161e-05
0.00098024151
8.8641217e-05
0.00097787988
8.6734446e-05
0.00097393814
8.4953053e-05
0.00096813037
8.3214729e-05
0.00096026815
8.148588e-05
0.00095035546
7.9587454e-05
0.00093853207
7.7417178e-05
0.00092500288
7.5019216e-05
0.00091009602
7.2347938e-05
0.00089425628
6.9374625e-05
0.00087797168
6.6144398e-05
0.00086168729
6.2754144e-05
0.00084574993
5.9309494e-05
0.00083038209
5.5924291e-05
0.00081569477
5.2698793e-05
0.0008017274
4.9675283e-05
0.00078848067
4.6864172e-05
0.00077593522
4.4269054e-05
0.00076406098
4.1882942e-05
0.00075282187
3.9689862e-05
0.00074217756
3.7677747e-05
0.00073208714
3.583737e-05
0.00072251228
3.4149693e-05
0.00071341572
3.2598722e-05
0.00070476178
3.1176389e-05
0.00069651795
2.9867415e-05
0.0006886542
2.866026e-05
0.00068114237
2.7548309e-05
0.00067395681
2.6519455e-05
0.00066707386
2.5566552e-05
0.00066047162
2.4684284e-05
0.00065413024
2.3863876e-05
0.00064803133
2.3102058e-05
0.0006421583
2.239251e-05
0.00063649623
2.1728613e-05
0.00063103105
2.1108914e-05
0.00062575008
2.0527642e-05
0.00062064159
1.9982208e-05
0.00061569472
1.9469619e-05
0.00061089966
1.8985871e-05
0.00060624706
1.8530627e-05
0.00060172842
1.8100326e-05
0.00059733609
1.7693577e-05
0.00059306309
1.7308304e-05
0.00058890296
1.6942396e-05
0.00058484964
1.6594445e-05
0.00058089755
1.6262298e-05
0.00057704146
1.594585e-05
0.0005732766
1.5643517e-05
0.00056959842
1.5354629e-05
0.00056600266
1.5078064e-05
0.00056248548
1.4813251e-05
0.00055904334
1.4559417e-05
0.00055567289
1.431561e-05
0.00055237095
1.4081144e-05
0.00054913459
1.3855351e-05
0.00054596108
1.3637834e-05
0.00054284786
1.3427994e-05
0.00053979244
1.3225519e-05
0.00053679251
1.3029986e-05
0.00053384588
1.2841287e-05
0.00053095052
1.2658944e-05
0.00052810444
1.2482766e-05
0.0005253058
1.2312344e-05
0.00052255279
1.2147602e-05
0.00051984373
1.198822e-05
0.00051717696
1.1834238e-05
0.00051455088
1.1685414e-05
0.00051196391
1.15419e-05
0.00050941451
1.1403653e-05
0.00050690112
1.1270861e-05
0.00050442212
1.1143919e-05
0.00050197583
1.1023344e-05
0.00049956045
1.0909689e-05
0.00049717383
1.0804883e-05
0.0004948139
1.0708715e-05
0.00049247697
1.0628824e-05
0.00049016108
1.0558261e-05
0.00048785714
1.0528869e-05
0.00048556594
1.050066e-05
0.00048326033
1.0592819e-05
0.00048094782
1.0683043e-05
0.00047854508
1.1108494e-05
0.00047613235
1.1415955e-05
0.00047327932
1.2057288e-05
1.2370723e-05
0.0009856042
6.4502613e-05
-0.0009836001
0.00098968747
8.2036361e-05
0.000994585
9.5047654e-05
0.00099913016
0.0001021202
0.0010028779
0.00010477659
0.0010058064
0.00010485583
0.0010081014
0.00010374348
0.001009968
0.00010219541
0.001011484
0.0001003563
0.001012721
9.8367489e-05
0.0010137296
9.633838e-05
0.0010145011
9.4270977e-05
0.0010150428
9.2241127e-05
0.0010154226
9.0284344e-05
0.0010155876
8.847621e-05
0.0010154869
8.6835071e-05
0.0010150933
8.5346731e-05
0.0010142406
8.4067358e-05
0.0010127361
8.2990375e-05
0.0010102481
8.207548e-05
0.0010064055
8.1259807e-05
0.0010008998
8.0524944e-05
0.00099352963
7.9718074e-05
0.00098424433
7.8659928e-05
0.00097310045
7.7288271e-05
0.00096028485
7.556975e-05
0.0009461445
7.3449839e-05
0.00093114305
7.0925742e-05
0.00091576009
6.8081751e-05
0.00090040868
6.5026697e-05
0.00088538253
6.1890327e-05
0.00087085319
5.8798385e-05
0.00085690333
5.5832806e-05
0.00084356488
5.3028314e-05
0.0008308422
5.0400429e-05
0.0008187234
4.7956167e-05
0.00080718733
4.568576e-05
0.00079620623
4.3579818e-05
0.00078574894
4.1633685e-05
0.00077578434
3.9832016e-05
0.00076628164
3.8162953e-05
0.00075721061
3.6619345e-05
0.00074854281
3.518725e-05
0.00074025128
3.385808e-05
0.00073231056
3.262501e-05
0.00072469715
3.1477289e-05
0.00071738886
3.0410343e-05
0.00071036536
2.9416011e-05
0.00070360809
2.8485884e-05
0.00069709959
2.7617418e-05
0.00069082394
2.6803286e-05
0.00068476639
2.6039762e-05
0.00067891333
2.532268e-05
0.00067325235
2.4646849e-05
0.00066777172
2.4011259e-05
0.00066246068
2.3411362e-05
0.00065730928
2.2844975e-05
0.00065230844
2.2309152e-05
0.00064744979
2.1801046e-05
0.00064272555
2.1318681e-05
0.00063812856
2.0859286e-05
0.0006336521
2.042231e-05
0.00062929
2.0005619e-05
0.0006250364
1.9608228e-05
0.00062088584
1.9228623e-05
0.00061683335
1.8865744e-05
0.00061287433
1.8518436e-05
0.00060900444
1.8185496e-05
0.00060521961
1.7865979e-05
0.00060151602
1.7558936e-05
0.00059789014
1.7263722e-05
0.00059433863
1.6979503e-05
0.00059085834
1.6705809e-05
0.00058744629
1.6442032e-05
0.0005840997
1.6187881e-05
0.00058081592
1.5942721e-05
0.00057759245
1.5706235e-05
0.00057442692
1.5477878e-05
0.00057131705
1.5257472e-05
0.00056826069
1.5044583e-05
0.00056525574
1.4839183e-05
0.00056230021
1.4640943e-05
0.00055939213
1.4449981e-05
0.00055652958
1.4266206e-05
0.00055371063
1.4089804e-05
0.00055093335
1.39212e-05
0.00054819569
1.3761004e-05
0.00054549556
1.3609826e-05
0.00054283043
1.3470011e-05
0.00054019794
1.3341204e-05
0.000537594
1.3232761e-05
0.00053501632
1.3135943e-05
0.00053245527
1.3089915e-05
0.00052991128
1.3044659e-05
0.00052735613
1.3147961e-05
0.00052479714
1.3242041e-05
0.00052214688
1.3758752e-05
0.0005194936
1.4069233e-05
0.00051632547
1.5225419e-05
1.4783859e-05
0.0010198786
6.2689634e-05
-0.0010180656
0.0010235159
7.8399e-05
0.0010279973
9.0566331e-05
0.0010323094
9.7808101e-05
0.0010359739
0.00010111208
0.0010389042
0.00010192553
0.0010412251
0.0001014225
0.0010431054
0.0001003152
0.0010446353
9.8826327e-05
0.0010458885
9.7114338e-05
0.0010469216
9.5305255e-05
0.0010477582
9.343442e-05
0.0010484242
9.1575033e-05
0.0010489378
8.9770783e-05
0.0010493153
8.8098697e-05
0.001049563
8.6587385e-05
0.0010496975
8.5212238e-05
0.0010497201
8.4044778e-05
0.0010496034
8.3107099e-05
0.0010493045
8.2374317e-05
0.0010487216
8.1842771e-05
0.0010477345
8.1512038e-05
0.0010461213
8.1331268e-05
0.0010435374
8.124376e-05
0.0010396338
8.1191921e-05
0.0010340884
8.1115146e-05
0.0010266992
8.0838993e-05
0.001017414
8.0210964e-05
0.0010062986
7.9197185e-05
0.00099359932
7.7725958e-05
0.00097973055
7.5759096e-05
0.00096518039
7.3348551e-05
0.00095040295
7.0610246e-05
0.00093574541
6.7685854e-05
0.00092142726
6.4718573e-05
0.00090756633
6.1817103e-05
0.00089422012
5.903197e-05
0.00088141257
5.6387367e-05
0.00086914722
5.3899029e-05
0.00085741506
5.1564183e-05
0.00084619838
4.9379631e-05
0.00083547454
4.7343187e-05
0.00082521929
4.5442494e-05
0.00081540726
4.3670108e-05
0.00080601287
4.2019398e-05
0.0007970115
4.0478664e-05
0.00078837902
3.9042825e-05
0.00078009264
3.7702391e-05
0.00077213105
3.6447471e-05
0.00076447388
3.5274586e-05
0.00075710234
3.417483e-05
0.00074999878
3.3143315e-05
0.00074314688
3.2174583e-05
0.0007365316
3.126213e-05
0.00073013871
3.040415e-05
0.0007239551
2.9594971e-05
0.00071796851
2.8831568e-05
0.00071216762
2.8110039e-05
0.00070654201
2.742666e-05
0.00070108196
2.6778728e-05
0.00069577854
2.6162705e-05
0.00069062333
2.5577517e-05
0.0006856086
2.5020358e-05
0.00068072707
2.4489754e-05
0.00067597198
2.3983716e-05
0.00067133701
2.350071e-05
0.00066681634
2.3039103e-05
0.00066240454
2.2597303e-05
0.00065809648
2.2174039e-05
0.00065388738
2.176803e-05
0.00064977277
2.1378335e-05
0.00064574846
2.1003813e-05
0.0006418105
2.064377e-05
0.00063795517
2.0297363e-05
0.00063417897
1.9964081e-05
0.0006304786
1.9643088e-05
0.00062685093
1.9333902e-05
0.00062329301
1.9035803e-05
0.000619802
1.8748478e-05
0.00061637524
1.8471348e-05
0.00061301013
1.820429e-05
0.00060970421
1.7946858e-05
0.00060645508
1.7699115e-05
0.00060326038
1.7460903e-05
0.0006001178
1.7232383e-05
0.00059702501
1.7013996e-05
0.00059397958
1.6806434e-05
0.00059097905
1.6610352e-05
0.00058802055
1.642851e-05
0.00058510135
1.626041e-05
0.00058221697
1.6117143e-05
0.00057936472
1.5988189e-05
0.00057653451
1.5920129e-05
0.00057372628
1.5852888e-05
0.00057091098
1.5963257e-05
0.00056809553
1.6057497e-05
0.00056518901
1.6665265e-05
0.00056228729
1.6970959e-05
0.00055879927
1.8713437e-05
1.7388315e-05
0.0010553205
6.1010365e-05
-0.0010536413
0.0010585868
7.5132732e-05
0.0010626794
8.6473797e-05
0.0010667442
9.3743275e-05
0.0010703149
9.7541403e-05
0.0010732543
9.8986106e-05
0.0010756253
9.9051468e-05
0.0010775558
9.8384735e-05
0.0010791305
9.7251569e-05
0.0010804185
9.5826412e-05
0.0010814759
9.4247832e-05
0.0010823352
9.2575091e-05
0.0010830278
9.0882492e-05
0.0010835751
8.9223387e-05
0.0010840047
8.7669182e-05
0.0010843359
8.6256117e-05
0.0010845727
8.4975462e-05
0.0010847296
8.3887857e-05
0.0010848276
8.3009154e-05
0.0010848628
8.233908e-05
0.0010848295
8.187612e-05
0.0010847264
8.1615068e-05
0.0010845106
8.1547064e-05
0.0010841162
8.1638184e-05
0.0010834416
8.1866491e-05
0.0010823419
8.2214902e-05
0.0010805419
8.2638949e-05
0.0010776739
8.3078955e-05
0.0010733776
8.3493515e-05
0.0010673539
8.374967e-05
0.0010594404
8.3672619e-05
0.0010496154
8.317355e-05
0.0010380447
8.2180916e-05
0.0010250939
8.0636698e-05
0.0010112462
7.8566232e-05
0.00099697932
7.6083991e-05
0.00098267483
7.3336453e-05
0.00096858389
7.0478306e-05
0.00095484911
6.7633807e-05
0.0009415471
6.48662e-05
0.00092871674
6.220999e-05
0.00091637362
5.9686303e-05
0.00090451853
5.7297584e-05
0.00089314187
5.5046772e-05
0.00088222802
5.2933253e-05
0.00087175848
5.0948203e-05
0.00086171242
4.9088882e-05
0.00085206841
4.7346398e-05
0.00084280514
4.5710746e-05
0.00083390125
4.4178469e-05
0.00082533648
4.2739603e-05
0.00081709131
4.1388486e-05
0.00080914733
4.0118567e-05
0.00080148733
3.8922128e-05
0.00079409485
3.7796626e-05
0.0007869546
3.6735225e-05
0.00078005213
3.5734039e-05
0.00077337398
3.4788188e-05
0.00076690762
3.3893017e-05
0.00076064135
3.3045e-05
0.00075456434
3.2239716e-05
0.00074866638
3.1475475e-05
0.00074293804
3.0748699e-05
0.00073737049
3.0057301e-05
0.00073195551
2.9398698e-05
0.00072668538
2.8770839e-05
0.00072155293
2.8171557e-05
0.00071655147
2.7598764e-05
0.00071167473
2.705078e-05
0.00070691684
2.6525922e-05
0.00070227228
2.6022893e-05
0.0006977359
2.5540191e-05
0.00069330285
2.5076819e-05
0.00068896857
2.4631641e-05
0.00068472876
2.4203891e-05
0.00068057937
2.3792474e-05
0.00067651658
2.3396701e-05
0.00067253674
2.3015635e-05
0.00066863643
2.2648792e-05
0.00066481237
2.2295412e-05
0.00066106141
2.1955242e-05
0.00065738058
2.1627695e-05
0.00065376695
2.1312745e-05
0.0006502177
2.1010146e-05
0.00064673007
2.0720013e-05
0.00064330129
2.0442781e-05
0.00063992851
2.0179209e-05
0.00063660888
1.9929985e-05
0.00063333911
1.9698278e-05
0.00063011608
1.9483444e-05
0.0006269349
1.929832e-05
0.00062379247
1.9130621e-05
0.0006206782
1.9034396e-05
0.00061759154
1.8939549e-05
0.00061450267
1.9052131e-05
0.00061141803
1.9142137e-05
0.00060824353
1.9839764e-05
0.00060508269
2.0131796e-05
0.00060126554
2.2530594e-05
2.0196107e-05
0.0010919214
5.943027e-05
-0.0010903414
0.0010948825
7.2171715e-05
0.0010986276
8.2728709e-05
0.0011024422
8.9928626e-05
0.0011058949
9.4088713e-05
0.0011088227
9.6058325e-05
0.0011112381
9.6636036e-05
0.0011132284
9.6394455e-05
0.0011148643
9.5615686e-05
0.0011162067
9.4483939e-05
0.0011173089
9.3145629e-05
0.001118206
9.167808e-05
0.0011189299
9.0158523e-05
0.0011195057
8.8647613e-05
0.0011199611
8.7213743e-05
0.0011203188
8.589843e-05
0.0011205891
8.4705218e-05
0.0011207907
8.3686184e-05
0.0011209383
8.2861578e-05
0.0011210412
8.2236186e-05
0.0011211062
8.1811096e-05
0.0011211428
8.1578542e-05
0.0011211536
8.1536267e-05
0.0011211291
8.166262e-05
0.0011210544
8.1941257e-05
0.0011209051
8.2364147e-05
0.0011206343
8.2909712e-05
0.001120158
8.3555334e-05
0.0011193599
8.4291578e-05
0.001118022
8.5087551e-05
0.0011158036
8.5891013e-05
0.0011123225
8.6654664e-05
0.0011072179
8.728551e-05
0.0011002443
8.7610268e-05
0.0010913182
8.7492413e-05
0.0010805485
8.6853678e-05
0.0010682671
8.5617844e-05
0.0010549526
8.3792811e-05
0.0010410955
8.1490875e-05
0.0010270948
7.8866911e-05
0.0010132167
7.6088043e-05
0.00099961732
7.3285727e-05
0.00098638511
7.0529801e-05
0.00097356911
6.7862773e-05
0.00096119354
6.5308818e-05
0.00094926641
6.2875329e-05
0.00093778423
6.0571064e-05
0.00092673698
5.8393649e-05
0.00091611059
5.633714e-05
0.00090588797
5.4401082e-05
0.0008960512