/*--------------------------------*- C++ -*----------------------------------*\
| =========                 |                                                 |
| \\      /  F ield         | OpenFOAM: The Open Source CFD Toolbox           |
|  \\    /   O peration     | Version:  2206                                  |
|   \\  /    A nd           | Website:  www.openfoam.com                      |
|    \\/     M anipulation  |                                                 |
\*---------------------------------------------------------------------------*/
FoamFile
{
    version     2.0;
    format      ascii;
    arch        "LSB;label=32;scalar=64";
    class       volVectorField;
    location    "900";
    object      U;
}
// * * * * * * * * * * * * * * * * * * * * * * * * * * * * * * * * * * * * * //

dimensions      [0 1 -1 0 0 0 0];

internalField   nonuniform List<vector> 
7480
(
(0.86074384 0.014750562 5.8389517e-16)
(0.7449888 0.025620961 0)
(0.62909176 0.027267259 0)
(0.52573824 0.019492862 0)
(0.45003564 0.0094053834 0)
(0.39778856 0.0037517657 0)
(0.36005349 0.0017192385 0)
(0.33093375 0.0012084142 0)
(0.30723054 0.0010850959 0)
(0.28734068 0.00096745678 0)
(0.2705111 0.00081743433 0)
(0.25625679 0.00067103702 0)
(0.24416267 0.00054324931 0)
(0.23388157 0.00043793759 0)
(0.22511983 0.0003542866 0)
(0.21762147 0.0002870643 0)
(0.21118595 0.00023280697 0)
(0.20565122 0.00018407642 0)
(0.20085037 0.00025199006 -1.1951322e-17)
(0.196704 0.00029941409 -1.7242917e-17)
(0.19302906 0.00013646314 0)
(0.18976033 9.0200324e-05 0)
(0.18681887 7.729879e-05 0)
(0.18413939 6.8795188e-05 0)
(0.18168011 6.1440588e-05 0)
(0.1794047 5.5169063e-05 0)
(0.17728807 4.9850106e-05 0)
(0.17530602 4.5521797e-05 0)
(0.17343688 4.2114958e-05 0)
(0.17166235 3.919627e-05 0)
(0.16997209 3.6481325e-05 0)
(0.1683585 3.403844e-05 0)
(0.16681331 3.1865836e-05 0)
(0.16532999 2.991131e-05 0)
(0.16390132 2.8158035e-05 0)
(0.16252364 2.6648354e-05 0)
(0.16118693 2.531208e-05 0)
(0.15988954 2.403885e-05 0)
(0.15862776 2.2891337e-05 0)
(0.1573977 2.1840026e-05 0)
(0.15619666 2.0865554e-05 0)
(0.15502195 1.9974553e-05 0)
(0.15387154 1.9116409e-05 0)
(0.15274416 1.830256e-05 0)
(0.1516381 1.7542168e-05 0)
(0.15055224 1.6810404e-05 0)
(0.14948513 1.6134473e-05 0)
(0.14843513 1.5496238e-05 0)
(0.14740141 1.4878692e-05 0)
(0.14638297 1.4301524e-05 0)
(0.14537898 1.3739453e-05 0)
(0.14438897 1.3201165e-05 0)
(0.14341226 1.2685846e-05 0)
(0.14244855 1.2184889e-05 0)
(0.14149722 1.1712676e-05 0)
(0.1405578 1.1253575e-05 0)
(0.13962995 1.0815658e-05 0)
(0.13871314 1.0398039e-05 0)
(0.13780685 9.9971271e-06 0)
(0.13691074 9.6119758e-06 0)
(0.13602472 9.236151e-06 0)
(0.13514864 8.8768488e-06 0)
(0.13428223 8.5294947e-06 0)
(0.13342527 8.1962456e-06 0)
(0.1325776 7.8746424e-06 0)
(0.13173903 7.5660729e-06 0)
(0.13090928 7.2703125e-06 0)
(0.13008815 6.9856487e-06 0)
(0.12927549 6.7116018e-06 0)
(0.12847118 6.4475854e-06 0)
(0.12767507 6.1942058e-06 0)
(0.12688701 5.9502621e-06 0)
(0.12610686 5.7157255e-06 0)
(0.12533454 5.4897651e-06 0)
(0.1245699 5.273199e-06 0)
(0.12381279 5.064936e-06 0)
(0.12306306 4.8651899e-06 0)
(0.12232059 4.6729612e-06 0)
(0.12158524 4.488654e-06 0)
(0.12085689 4.3113717e-06 0)
(0.12013539 4.1415028e-06 0)
(0.11942061 3.9782527e-06 0)
(0.1187124 3.8218742e-06 0)
(0.11801057 3.67193e-06 0)
(0.11731498 3.5282206e-06 0)
(0.11662538 3.3910424e-06 0)
(0.11594156 3.2595724e-06 0)
(0.11526316 3.1349352e-06 0)
(0.11458996 3.0153231e-06 0)
(0.11392118 2.9044352e-06 0)
(0.11325691 2.7956161e-06 0)
(0.11259466 2.7046065e-06 0)
(0.11193698 2.6002899e-06 0)
(0.11127361 2.5551721e-06 0)
(0.11062 2.4227167e-06 0)
(0.10993351 2.5300101e-06 0)
(0.10927859 2.2275847e-06 -2.1374792e-21)
(0.10850433 6.1924908e-06 6.6107193e-20)
(0.1079006 -1.6246778e-06 -3.2054652e-19)
(0.10673122 1.2208909e-05 -1.1158834e-18)
(0.9575916 0.024807145 0)
(0.94365691 0.032449595 0)
(0.91261739 0.032587853 0)
(0.86103815 0.028786848 0)
(0.79821105 0.022942689 0)
(0.73519403 0.017295479 0)
(0.67829797 0.012897217 0)
(0.62954269 0.0098270551 0)
(0.58852959 0.0077471458 0)
(0.55402181 0.0062559175 0)
(0.52481489 0.0051165847 0)
(0.49992556 0.0042182259 0)
(0.47859131 0.0034890865 0)
(0.46023623 0.0028908462 0)
(0.44439788 0.0023999081 0)
(0.43070302 0.0019955666 0)
(0.41882494 0.0016644646 0)
(0.40847672 0.0013950468 0)
(0.39940155 0.0011767926 0)
(0.39139807 0.00099387961 0)
(0.38428158 0.00084809122 0)
(0.3779009 0.00074373807 0)
(0.3721289 0.00065490652 0)
(0.36686571 0.00058022124 0)
(0.3620339 0.00051834981 0)
(0.35756604 0.00046643939 0)
(0.35341472 0.00042218124 0)
(0.34953375 0.00038462846 0)
(0.34588528 0.00035293333 0)
(0.34243737 0.00032549055 0)
(0.33916785 0.00030099694 0)
(0.33605858 0.00027913714 0)
(0.3330924 0.00025962674 0)
(0.33025511 0.0002421345 0)
(0.32753267 0.00022637034 0)
(0.32491654 0.00021242557 0)
(0.32238888 0.00019998471 0)
(0.31994541 0.00018850612 0)
(0.31757779 0.00017810512 0)
(0.31527821 0.00016860604 0)
(0.31304098 0.0001598659 0)
(0.31086078 0.00015183625 0)
(0.3087331 0.00014433462 0)
(0.30665455 0.00013732658 0)
(0.30462154 0.0001307969 0)
(0.30263127 0.00012466104 0)
(0.30068061 0.00011896162 0)
(0.29876642 0.00011362906 0)
(0.29688657 0.00010858937 0)
(0.29503888 0.00010386383 0)
(0.29322152 9.9374055e-05 0)
(0.29143308 9.5118386e-05 0)
(0.28967204 9.1079782e-05 0)
(0.28793739 8.7226711e-05 0)
(0.28622781 8.3583402e-05 0)
(0.28454222 8.0104049e-05 0)
(0.28287969 7.6798262e-05 0)
(0.28123907 7.3660217e-05 0)
(0.27961931 7.0672009e-05 0)
(0.27801959 6.7817529e-05 0)
(0.27643951 6.5072762e-05 0)
(0.27487858 6.2451346e-05 0)
(0.27333616 5.9940648e-05 0)
(0.27181171 5.7539464e-05 0)
(0.27030479 5.5237864e-05 0)
(0.26881493 5.3036647e-05 0)
(0.26734156 5.0932912e-05 0)
(0.26588418 4.891744e-05 0)
(0.26444245 4.6984495e-05 0)
(0.26301603 4.5130075e-05 0)
(0.26160457 4.3353376e-05 0)
(0.26020773 4.1649013e-05 0)
(0.25882519 4.0013666e-05 0)
(0.25745673 3.8443649e-05 0)
(0.25610201 3.6939615e-05 0)
(0.2547607 3.5497194e-05 0)
(0.2534325 3.4114598e-05 0)
(0.25211713 3.2787691e-05 0)
(0.25081431 3.1515702e-05 0)
(0.24952377 3.0295132e-05 0)
(0.24824522 2.9125512e-05 0)
(0.24697836 2.80037e-05 0)
(0.24572291 2.6929275e-05 0)
(0.24447851 2.5900107e-05 0)
(0.24324485 2.4915037e-05 0)
(0.24202149 2.3974066e-05 0)
(0.24080803 2.307543e-05 0)
(0.23960381 2.2220504e-05 0)
(0.23840839 2.1408405e-05 0)
(0.23722043 2.0642634e-05 0)
(0.23603997 1.9924146e-05 0)
(0.23486279 1.9262747e-05 0)
(0.23369289 1.865959e-05 0)
(0.23251329 1.8158086e-05 0)
(0.23134882 1.7709999e-05 0)
(0.23012935 1.7634797e-05 0)
(0.2289589 1.7369121e-05 3.8364386e-21)
(0.22758812 1.9238871e-05 0)
(0.22649396 1.0025317e-05 0)
(0.22441261 3.0741786e-05 0)
(0.96640812 0.026175166 0)
(0.97128424 0.035041851 0)
(0.9762915 0.038624545 0)
(0.97510144 0.037515473 0)
(0.96049999 0.034303463 0)
(0.93233907 0.029964918 0)
(0.8956655 0.025268378 0)
(0.85564092 0.020870532 0)
(0.8155341 0.017143272 0)
(0.77727307 0.014084522 0)
(0.74190803 0.011602768 0)
(0.70988933 0.0096045648 0)
(0.68126649 0.0079828092 0)
(0.65585799 0.0066592601 0)
(0.63335746 0.0055784783 0)
(0.61343461 0.0046923449 0)
(0.5957656 0.0039642908 0)
(0.5800539 0.0033644342 0)
(0.56603539 0.0028685889 0)
(0.55348368 0.0024614143 0)
(0.54219859 0.0021326908 0)
(0.53199965 0.0018644181 0)
(0.52273497 0.0016417971 0)
(0.51427504 0.001456351 0)
(0.50650971 0.0013010669 0)
(0.49934336 0.0011700051 0)
(0.49269444 0.0010579603 0)
(0.48649889 0.000961772 0)
(0.48070204 0.00087929752 0)
(0.47525781 0.00080748944 0)
(0.47012659 0.00074386735 0)
(0.46527484 0.00068734362 0)
(0.46067296 0.00063700651 0)
(0.45629586 0.00059195134 0)
(0.45212144 0.00055141501 0)
(0.44813207 0.00051545652 0)
(0.44430325 0.00048328794 0)
(0.44062526 0.00045381738 0)
(0.4370827 0.00042713689 0)
(0.43366333 0.00040280885 0)
(0.43035723 0.00038048739 0)
(0.42715515 0.00036001038 0)
(0.42404881 0.00034101906 0)
(0.42103135 0.00032338245 0)
(0.41809619 0.00030701372 0)
(0.4152377 0.00029173256 0)
(0.41245039 0.00027756122 0)
(0.40972901 0.00026435067 0)
(0.40706939 0.00025194393 0)
(0.40446757 0.0002403381 0)
(0.40192001 0.00022938431 0)
(0.39942373 0.00021905357 0)
(0.39697577 0.0002092955 0)
(0.39457378 0.00020004001 0)
(0.39221534 0.00019130653 0)
(0.38989832 0.00018301043 0)
(0.38762074 0.00017515458 0)
(0.38538056 0.00016771764 0)
(0.38317595 0.00016065763 0)
(0.38100537 0.00015393581 0)
(0.37886766 0.00014750501 0)
(0.37676162 0.00014137967 0)
(0.37468601 0.00013553365 0)
(0.37263973 0.00012995708 0)
(0.37062177 0.0001246282 0)
(0.3686312 0.00011954364 0)
(0.36666695 0.00011469391 0)
(0.36472813 0.00011005844 0)
(0.36281397 0.00010562318 0)
(0.36092376 0.00010137785 0)
(0.3590568 9.7317488e-05 0)
(0.3572124 9.3430008e-05 0)
(0.35538996 8.9706586e-05 0)
(0.35358892 8.6138853e-05 0)
(0.35180868 8.2725479e-05 0)
(0.35004864 7.9456975e-05 0)
(0.34830823 7.6327882e-05 0)
(0.34658694 7.3329398e-05 0)
(0.34488425 7.045815e-05 0)
(0.34319965 6.7706732e-05 0)
(0.34153264 6.5072649e-05 0)
(0.33988272 6.2549298e-05 0)
(0.33824938 6.0134644e-05 0)
(0.33663206 5.7823957e-05 0)
(0.33503023 5.5614379e-05 0)
(0.33344323 5.3504975e-05 0)
(0.33187043 5.1492773e-05 0)
(0.3303109 4.9578704e-05 0)
(0.32876397 4.7763809e-05 0)
(0.32722781 4.6049526e-05 0)
(0.32570238 4.4450519e-05 0)
(0.32418222 4.296118e-05 0)
(0.32267217 4.1642738e-05 0)
(0.32115074 4.046496e-05 0)
(0.3196487 3.9586614e-05 0)
(0.31807819 3.9166722e-05 0)
(0.31656775 3.9070446e-05 2.8296423e-21)
(0.31480592 4.1266358e-05 0)
(0.3133751 2.9948524e-05 0)
(0.31070844 5.6710663e-05 -1.176289e-20)
(0.96913515 0.024325533 0)
(0.97470688 0.032476049 0)
(0.98271624 0.036276391 0)
(0.98929816 0.036575449 0)
(0.99282413 0.034824761 0)
(0.99247046 0.032347699 0)
(0.98628084 0.029717392 0)
(0.97345039 0.027092115 0)
(0.95413776 0.02442713 0)
(0.93029087 0.021580113 0)
(0.90367 0.018756533 0)
(0.87566261 0.016134826 0)
(0.84742228 0.01379607 0)
(0.81985729 0.011765559 0)
(0.79361614 0.010024855 0)
(0.76909623 0.0085435128 0)
(0.74647609 0.0072948121 0)
(0.7257688 0.0062485261 0)
(0.70688245 0.0053796915 0)
(0.68967441 0.0046611414 0)
(0.67398889 0.0040642946 0)
(0.65966975 0.0035678138 0)
(0.64657277 0.003151505 0)
(0.6345631 0.0027992664 0)
(0.62351571 0.002500312 0)
(0.6133182 0.0022456253 0)
(0.6038667 0.0020268384 0)
(0.59507782 0.0018379541 0)
(0.58687959 0.0016745964 0)
(0.579208 0.0015318813 0)
(0.57200615 0.0014058038 0)
(0.56522473 0.0012941541 0)
(0.55882039 0.0011950199 0)
(0.55275449 0.0011065079 0)
(0.54699555 0.0010270579 0)
(0.54151474 0.00095619478 0)
(0.53628668 0.00089269366 0)
(0.53128838 0.00083493817 0)
(0.52649988 0.00078266488 0)
(0.52190282 0.00073512982 0)
(0.51748164 0.00069166159 0)
(0.51322215 0.00065189105 0)
(0.50911141 0.0006152175 0)
(0.50513828 0.00058134059 0)
(0.50129237 0.00055003563 0)
(0.49756447 0.00052096311 0)
(0.49394636 0.00049406697 0)
(0.49043008 0.00046908603 0)
(0.48700892 0.00044574393 0)
(0.48367677 0.00042397791 0)
(0.48042794 0.00040354866 0)
(0.47725741 0.00038437371 0)
(0.47416041 0.00036634479 0)
(0.47113289 0.00034933042 0)
(0.46817107 0.00033332203 0)
(0.46527142 0.0003181872 0)
(0.46243068 0.00030390648 0)
(0.45964569 0.00029042584 0)
(0.4569137 0.00027766722 0)
(0.45423226 0.00026556245 0)
(0.45159919 0.00025403584 0)
(0.44901241 0.00024309164 0)
(0.44646988 0.00023268238 0)
(0.44396978 0.00022278159 0)
(0.44151043 0.00021335024 0)
(0.43909024 0.00020437481 0)
(0.43670758 0.0001958333 0)
(0.43436107 0.00018768945 0)
(0.43204942 0.00017991731 0)
(0.42977142 0.0001724965 0)
(0.42752592 0.00016541371 0)
(0.42531186 0.00015864715 0)
(0.42312822 0.00015217983 0)
(0.42097407 0.00014599634 0)
(0.41884844 0.00014009032 0)
(0.41675043 0.00013444494 0)
(0.41467915 0.00012904894 0)
(0.41263379 0.00012388717 0)
(0.41061356 0.00011895168 0)
(0.40861768 0.0001142297 0)
(0.40664539 0.00010971504 0)
(0.40469594 0.00010539643 0)
(0.40276859 0.00010126887 0)
(0.40086254 9.7323971e-05 0)
(0.39897703 9.355622e-05 0)
(0.39711118 8.9962735e-05 0)
(0.39526412 8.6539049e-05 0)
(0.39343468 8.3284377e-05 0)
(0.39162194 8.0202893e-05 0)
(0.38982374 7.729081e-05 0)
(0.38803984 7.4583875e-05 0)
(0.38626407 7.2047131e-05 0)
(0.38450146 6.9836537e-05 0)
(0.38272827 6.7784446e-05 0)
(0.38097761 6.6400417e-05 0)
(0.3791534 6.5438934e-05 0)
(0.3773941 6.5713317e-05 2.1616571e-21)
(0.37535947 6.7867968e-05 0)
(0.37367645 5.7132622e-05 0)
(0.37060088 8.4055714e-05 9.0670895e-21)
(0.97098983 0.023190801 0)
(0.97591498 0.030437483 0)
(0.98327299 0.034212928 0)
(0.99034522 0.034725547 0)
(0.99545769 0.033459826 0)
(0.9985361 0.031588861 0)
(1.0009673 0.029698224 0)
(1.000831 0.0279424 0)
(0.99923892 0.026251269 0)
(0.99454941 0.024510761 0)
(0.98606398 0.022703806 0)
(0.97359357 0.020838175 0)
(0.95765473 0.018863252 0)
(0.9390908 0.016858045 0)
(0.91861727 0.014924144 0)
(0.89692683 0.01312501 0)
(0.87472421 0.011505659 0)
(0.85264055 0.010062858 0)
(0.83119265 0.008795017 0)
(0.81074491 0.0076952264 0)
(0.79150728 0.0067494377 0)
(0.7735522 0.0059467485 0)
(0.75686092 0.0052670626 0)
(0.74136894 0.0046886025 0)
(0.72699331 0.0041937713 0)
(0.71364662 0.0037681366 0)
(0.70123928 0.0033991327 0)
(0.68968534 0.0030777254 0)
(0.67890402 0.0027976448 0)
(0.66881985 0.0025519625 0)
(0.65936584 0.0023349012 0)
(0.65048175 0.0021427361 0)
(0.64211276 0.0019721856 0)
(0.63420923 0.0018200702 0)
(0.62672918 0.0016838396 0)
(0.61963275 0.0015621548 0)
(0.61289024 0.0014529356 0)
(0.60646816 0.001354015 0)
(0.60033988 0.0012646369 0)
(0.59448071 0.0011834542 0)
(0.58886917 0.0011094253 0)
(0.58348526 0.0010418832 0)
(0.57831077 0.00097987623 0)
(0.57332979 0.00092284257 0)
(0.56852751 0.00087034769 0)
(0.56389049 0.00082180317 0)
(0.55940739 0.00077698372 0)
(0.55506737 0.00073546799 0)
(0.55086106 0.00069683027 0)
(0.54677974 0.00066091815 0)
(0.5428151 0.00062737002 0)
(0.53895985 0.00059601162 0)
(0.53520712 0.00056664743 0)
(0.53155089 0.00053905729 0)
(0.52798564 0.00051317979 0)
(0.52450618 0.00048881714 0)
(0.52110771 0.00046590307 0)
(0.51778584 0.00044432894 0)
(0.51453678 0.00042396829 0)
(0.5113569 0.00040471787 0)
(0.50824283 0.00038646372 0)
(0.50519146 0.00036918544 0)
(0.50219982 0.00035280377 0)
(0.49926522 0.00033726638 0)
(0.49638519 0.00032250944 0)
(0.49355739 0.00030850149 0)
(0.49077955 0.00029520042 0)
(0.48804969 0.00028254939 0)
(0.4853659 0.00027050609 0)
(0.48272643 0.00025903484 0)
(0.48012961 0.00024810892 0)
(0.4775739 0.00023769319 0)
(0.47505784 0.00022775965 0)
(0.47258002 0.00021828236 0)
(0.47013908 0.00020924608 0)
(0.46773376 0.00020062389 0)
(0.46536281 0.00019239624 0)
(0.4630251 0.00018453946 0)
(0.4607195 0.00017703877 0)
(0.45844494 0.00016987409 0)
(0.45620037 0.00016303364 0)
(0.45398476 0.00015649987 0)
(0.45179711 0.00015026326 0)
(0.44963637 0.0001443104 0)
(0.44750154 0.0001386319 0)
(0.44539149 0.00013322175 0)
(0.44330512 0.00012807331 0)
(0.44124101 0.00012318288 0)
(0.43919801 0.00011855811 0)
(0.43717369 0.00011418782 0)
(0.43516753 0.00011013316 0)
(0.43317299 0.0001063213 0)
(0.4311949 0.00010302425 0)
(0.42920853 9.9898992e-05 0)
(0.42724732 9.7893096e-05 0)
(0.4252123 9.6214503e-05 0)
(0.4232439 9.6941276e-05 1.7742904e-21)
(0.42099108 9.8657047e-05 5.3151798e-20)
(0.41909679 9.0551282e-05 0)
(0.41568946 0.00011330716 0)
(0.97255096 0.022364199 0)
(0.97692373 0.028800517 0)
(0.98327854 0.032385137 0)
(0.98947824 0.033143337 0)
(0.99446375 0.032316492 0)
(0.99818726 0.030799816 0)
(1.0007898 0.029149172 0)
(1.0026304 0.027600019 0)
(1.0038216 0.026086108 0)
(1.004681 0.024625633 0)
(1.0044441 0.023241136 0)
(1.0032182 0.021907415 0)
(1.0003038 0.020590003 0)
(0.99504641 0.019272252 0)
(0.9871577 0.017961044 0)
(0.97648634 0.016605546 0)
(0.96343251 0.015197869 0)
(0.94830402 0.013802525 0)
(0.93147951 0.012456009 0)
(0.91342661 0.011190232 0)
(0.89469975 0.010023015 0)
(0.87583495 0.0089619585 0)
(0.85729327 0.0080077817 0)
(0.83940997 0.0071596555 0)
(0.82238241 0.0064152553 0)
(0.80629174 0.0057681961 0)
(0.79114496 0.0052059602 0)
(0.7769132 0.0047148673 0)
(0.76355022 0.0042842986 0)
(0.75100167 0.0039041192 0)
(0.73921069 0.0035665342 0)
(0.72811939 0.0032666012 0)
(0.71767082 0.0029998195 0)
(0.70781199 0.0027616031 0)
(0.69849465 0.0025482881 0)
(0.68967169 0.0023573548 0)
(0.68130457 0.002185763 0)
(0.67335536 0.0020307619 0)
(0.66578953 0.0018907768 0)
(0.6585763 0.0017638059 0)
(0.65168839 0.0016482558 0)
(0.64510028 0.0015430302 0)
(0.63878855 0.00144673 0)
(0.63273245 0.0013584286 0)
(0.6269127 0.0012773888 0)
(0.62131168 0.0012027037 0)
(0.61591404 0.001133906 0)
(0.61070557 0.0010703444 0)
(0.60567377 0.0010113824 0)
(0.60080699 0.00095672809 0)
(0.59609423 0.000905856 0)
(0.59152576 0.00085846559 0)
(0.5870924 0.0008142443 0)
(0.5827859 0.00077285033 0)
(0.57859875 0.00073414604 0)
(0.57452362 0.00069783851 0)
(0.57055422 0.00066378101 0)
(0.56668475 0.00063179196 0)
(0.56291009 0.00060168418 0)
(0.55922523 0.00057330721 0)
(0.55562555 0.00054649496 0)
(0.55210675 0.00052118735 0)
(0.54866487 0.00049726044 0)
(0.54529626 0.00047462734 0)
(0.54199746 0.00045319124 0)
(0.53876527 0.00043289108 0)
(0.53559673 0.00041365553 0)
(0.53248914 0.00039540223 0)
(0.5294399 0.00037806671 0)
(0.52644661 0.00036159143 0)
(0.52350705 0.00034593054 0)
(0.52061914 0.00033103173 0)
(0.51778087 0.00031685255 0)
(0.51499031 0.00030335187 0)
(0.51224568 0.00029050102 0)
(0.50954528 0.0002782599 0)
(0.5068875 0.00026659788 0)
(0.50427081 0.00025548014 0)
(0.50169371 0.00024488242 0)
(0.49915482 0.00023477511 0)
(0.49665276 0.00022513862 0)
(0.49418619 0.00021594725 0)
(0.49175384 0.00020718513 0)
(0.48935437 0.00019883225 0)
(0.48698652 0.00019087387 0)
(0.48464891 0.00018329953 0)
(0.48234018 0.00017609938 0)
(0.48005868 0.00016926563 0)
(0.47780299 0.00016280914 0)
(0.47557046 0.00015670973 0)
(0.47336029 0.00015105604 0)
(0.47116566 0.00014573268 0)
(0.46899105 0.00014113935 0)
(0.46681143 0.0001367376 0)
(0.46465955 0.00013396092 0)
(0.46243623 0.00013139572 0)
(0.46028009 0.00013256951 0)
(0.4578383 0.00013355614 0)
(0.45575707 0.00012963643 1.1185713e-19)
(0.45205971 0.00014496066 0)
(0.97404049 0.021595348 0)
(0.9778447 0.027352522 0)
(0.98341197 0.030756862 0)
(0.98890725 0.031712444 0)
(0.99343064 0.031185295 0)
(0.99691446 0.029950839 0)
(0.99954361 0.028519389 0)
(1.0016216 0.027111765 0)
(1.0033213 0.025710417 0)
(1.0045854 0.02435478 0)
(1.0055024 0.023070386 0)
(1.0060949 0.02183516 0)
(1.0063993 0.020663109 0)
(1.0061857 0.019572784 0)
(1.0053107 0.018547183 0)
(1.0035958 0.01757097 0)
(1.0004424 0.016636562 0)
(0.99549825 0.015721016 0)
(0.9885059 0.014810738 0)
(0.97935003 0.013865008 0)
(0.96815943 0.012878198 0)
(0.95508967 0.011885748 0)
(0.94040744 0.010906157 0)
(0.92452071 0.0099604711 0)
(0.90793394 0.0090632162 0)
(0.89114299 0.0082258343 0)
(0.87456402 0.0074580355 0)
(0.85848853 0.0067648344 0)
(0.84307834 0.0061481737 0)
(0.82839936 0.0056025287 0)
(0.81446482 0.0051181517 0)
(0.80126215 0.0046865437 0)
(0.78876459 0.0043005289 0)
(0.77693716 0.0039539985 0)
(0.76574049 0.0036426256 0)
(0.75513131 0.0033630708 0)
(0.74506937 0.0031112828 0)
(0.73551609 0.002883816 0)
(0.72643376 0.0026783219 0)
(0.71778725 0.0024919935 0)
(0.70954482 0.0023225961 0)
(0.70167671 0.0021685067 0)
(0.69415526 0.0020277654 0)
(0.68695536 0.0018989884 0)
(0.68005369 0.0017810482 0)
(0.67342887 0.0016726313 0)
(0.66706139 0.0015729474 0)
(0.66093327 0.0014810429 0)
(0.65502853 0.001396014 0)
(0.6493324 0.0013173804 0)
(0.64383109 0.0012444048 0)
(0.63851224 0.0011766121 0)
(0.63336421 0.0011135312 0)
(0.62837649 0.0010546676 0)
(0.62353937 0.00099977482 0)
(0.61884353 0.00094844012 0)
(0.61428081 0.00090040998 0)
(0.6098437 0.00085540136 0)
(0.60552543 0.00081314541 0)
(0.60131955 0.000773428 0)
(0.59722011 0.00073601532 0)
(0.59322157 0.0007007901 0)
(0.58931883 0.000667571 0)
(0.58550717 0.00063622769 0)
(0.58178201 0.00060661801 0)
(0.5781392 0.00057863634 0)
(0.57457503 0.00055217379 0)
(0.57108596 0.00052711736 0)
(0.56766864 0.00050337304 0)
(0.56431994 0.00048085443 0)
(0.56103698 0.00045949011 0)
(0.55781705 0.00043920466 0)
(0.55465758 0.00041993643 0)
(0.5515561 0.00040162479 0)
(0.54851031 0.00038422292 0)
(0.54551805 0.00036767377 0)
(0.54257727 0.00035193221 0)
(0.539686 0.00033694914 0)
(0.53684239 0.00032268791 0)
(0.53404465 0.00030910669 0)
(0.53129106 0.00029617563 0)
(0.52857995 0.00028385865 0)
(0.52590973 0.00027213148 0)
(0.52327877 0.00026096564 0)
(0.52068552 0.00025033938 0)
(0.51812831 0.00024023623 0)
(0.51560555 0.00023064185 0)
(0.5131153 0.00022154307 0)
(0.51065592 0.00021295319 0)
(0.50822449 0.0002048418 0)
(0.50581993 0.00019732567 0)
(0.50343524 0.0001902442 0)
(0.50107446 0.00018413073 0)
(0.49871257 0.00017824136 0)
(0.49638118 0.00017452096 0)
(0.49398226 0.00017089557 0)
(0.4916509 0.00017245396 0)
(0.48903687 0.00017247349 0)
(0.48678458 0.00017401573 1.000545e-19)
(0.48282209 0.00017923073 0)
(0.97559501 0.02090328 0)
(0.97884562 0.026016384 0)
(0.98370691 0.029263505 0)
(0.98866245 0.030398204 0)
(0.99285453 0.030131692 0)
(0.99613622 0.029146897 0)
(0.99866432 0.027904032 0)
(1.0006725 0.026621355 0)
(1.0023281 0.02532627 0)
(1.0036773 0.02405886 0)
(1.0047803 0.022840834 0)
(1.0056645 0.021665056 0)
(1.0063111 0.020548067 0)
(1.0067312 0.019500252 0)
(1.0070686 0.018524641 0)
(1.0070487 0.01762624 0)
(1.0068592 0.016803396 0)
(1.0062715 0.01604812 0)
(1.0051561 0.015352767 0)
(1.0032739 0.014702389 0)
(1.0002036 0.014076043 0)
(0.99563069 0.013462594 0)
(0.98925686 0.012825931 0)
(0.98098394 0.012133158 0)
(0.97081357 0.011393119 0)
(0.95885592 0.010623543 0)
(0.94537468 0.0098434469 0)
(0.9307966 0.0090766179 0)
(0.91561368 0.0083367804 0)
(0.90028712 0.0076383106 0)
(0.88517231 0.0069921542 0)
(0.87049372 0.0064053016 0)
(0.8563662 0.0058781109 0)
(0.84283772 0.0054047991 0)
(0.82992263 0.0049785025 0)
(0.81761516 0.0045937915 0)
(0.80589773 0.0042454341 0)
(0.79474538 0.0039295627 0)
(0.78412803 0.0036434519 0)
(0.77401426 0.0033836343 0)
(0.76437342 0.0031472803 0)
(0.75517513 0.0029322286 0)
(0.74639012 0.0027359245 0)
(0.73799101 0.0025564796 0)
(0.72995177 0.0023923038 0)
(0.72224815 0.0022416273 0)
(0.71485755 0.0021032923 0)
(0.7077588 0.0019759709 0)
(0.70093274 0.0018584244 0)
(0.69436158 0.0017499183 0)
(0.68802874 0.0016494461 0)
(0.68191911 0.0015563152 0)
(0.67601857 0.0014698564 0)
(0.67031434 0.0013893845 0)
(0.66479448 0.0013145134 0)
(0.65944782 0.0012446749 0)
(0.6542641 0.0011794772 0)
(0.6492339 0.0011185146 0)
(0.64434863 0.0010614142 0)
(0.63960029 0.0010078735 0)
(0.63498152 0.00095757047 0)
(0.6304854 0.00091031489 0)
(0.62610558 0.00086585156 0)
(0.62183615 0.00082399239 0)
(0.61767145 0.00078453961 0)
(0.61360628 0.00074733186 0)
(0.60963598 0.00071221027 0)
(0.60575613 0.00067902154 0)
(0.60196254 0.00064763432 0)
(0.59825131 0.00061792556 0)
(0.59461879 0.00058979126 0)
(0.59106159 0.00056312642 0)
(0.58757653 0.00053784478 0)
(0.58416054 0.00051386034 0)
(0.58081077 0.00049110291 0)
(0.57752455 0.00046949455 0)
(0.57429932 0.00044897161 0)
(0.57113266 0.00042946703 0)
(0.56802228 0.00041092839 0)
(0.564966 0.0003932986 0)
(0.5619617 0.00037653473 0)
(0.55900735 0.00036058778 0)
(0.55610102 0.00034542269 0)
(0.55324075 0.00033100044 0)
(0.55042468 0.00031729029 0)
(0.54765087 0.00030426796 0)
(0.5449174 0.00029191313 0)
(0.54222211 0.00028020579 0)
(0.53956306 0.00026916059 0)
(0.5369371 0.00025873564 0)
(0.53434286 0.00024907574 0)
(0.53177318 0.00023997336 0)
(0.52923159 0.00023209846 0)
(0.52669332 0.00022449651 0)
(0.5241886 0.00021963803 0)
(0.5216212 0.0002147671 0)
(0.51912202 0.00021661003 0)
(0.51634544 0.00021542489 -1.8810446e-20)
(0.51393271 0.00022356887 0)
(0.5097206 0.00021628682 -2.9921461e-21)
(0.97714497 0.020292848 0)
(0.97994427 0.024813485 0)
(0.98416065 0.027854286 0)
(0.9886192 0.029119572 0)
(0.99253699 0.029102214 0)
(0.9956894 0.028361319 0)
(0.9981611 0.027302774 0)
(1.0001316 0.026145818 0)
(1.0017428 0.024949403 0)
(1.0030629 0.02375679 0)
(1.0041466 0.022596593 0)
(1.0050362 0.021473312 0)
(1.0057514 0.020403356 0)
(1.0063101 0.019392187 0)
(1.0067386 0.018452464 0)
(1.0070299 0.017586806 0)
(1.0072066 0.016782887 0)
(1.0072938 0.016050761 0)
(1.0072447 0.015393518 0)
(1.0070661 0.014800971 0)
(1.0066677 0.014262212 0)
(1.0059422 0.013772186 0)
(1.0047662 0.013317638 0)
(1.0028329 0.012882337 0)
(0.99979109 0.012448679 0)
(0.99532025 0.012001098 0)
(0.98912214 0.011504653 0)
(0.98111186 0.010938161 0)
(0.97127499 0.010322071 0)
(0.9597544 0.009670502 0)
(0.94688349 0.0090057389 0)
(0.93312474 0.0083454146 0)
(0.9189537 0.007707049 0)
(0.9047652 0.0071055932 0)
(0.890828 0.0065507654 0)
(0.877293 0.0060463287 0)
(0.86423472 0.0055889727 0)
(0.85168775 0.0051731619 0)
(0.83966328 0.0047946455 0)
(0.82815714 0.0044491878 0)
(0.81715552 0.0041337425 0)
(0.80663824 0.003845966 0)
(0.79658232 0.0035828862 0)
(0.78696384 0.0033422242 0)
(0.77775809 0.0031219778 0)
(0.76894089 0.0029199224 0)
(0.76048887 0.0027345233 0)
(0.75237934 0.0025640486 0)
(0.74459126 0.0024068825 0)
(0.73710462 0.0022619889 0)
(0.72990059 0.0021280452 0)
(0.72296177 0.0020040984 0)
(0.7162718 0.0018892322 0)
(0.70981575 0.0017825332 0)
(0.70357959 0.0016834372 0)
(0.69755021 0.0015911906 0)
(0.69171546 0.0015052449 0)
(0.68606401 0.0014250441 0)
(0.6805855 0.0013500811 0)
(0.67527026 0.0012799376 0)
(0.67010939 0.0012141821 0)
(0.66509458 0.0011525335 0)
(0.66021806 0.0010946459 0)
(0.65547269 0.0010402583 0)
(0.65085173 0.00098910212 0)
(0.6463489 0.00094094662 0)
(0.64195839 0.00089557225 0)
(0.63767483 0.0008527748 0)
(0.63349316 0.00081237541 0)
(0.62940863 0.00077420629 0)
(0.62541682 0.00073812316 0)
(0.62151356 0.0007039834 0)
(0.61769498 0.00067166839 0)
(0.61395738 0.0006410614 0)
(0.61029732 0.00061206388 0)
(0.60671154 0.00058457168 0)
(0.60319696 0.00055849804 0)
(0.59975066 0.00053375376 0)
(0.59636988 0.00051026682 0)
(0.59305197 0.0004879614 0)
(0.58979442 0.00046677827 0)
(0.58659482 0.00044665259 0)
(0.58345083 0.00042753587 0)
(0.58036016 0.00040937608 0)
(0.57732061 0.00039213127 0)
(0.57432992 0.00037576737 0)
(0.57138588 0.00036025623 0)
(0.56848604 0.00034556937 0)
(0.56562817 0.00033172146 0)
(0.56280889 0.0003186578 0)
(0.5600265 0.00030655053 0)
(0.5572737 0.00029514401 0)
(0.55455354 0.00028524596 0)
(0.55184152 0.00027568874 0)
(0.54916643 0.00026947653 0)
(0.54643417 0.00026315868 0)
(0.54377126 0.0002651572 5.9054e-22)
(0.54083746 0.00026251298 0)
(0.53827129 0.00027832779 8.6579491e-20)
(0.53381925 0.00025630573 0)
(0.978621 0.019737393 0)
(0.98107202 0.023745442 0)
(0.98473362 0.026562209 0)
(0.98871982 0.027894005 0)
(0.99236022 0.028078656 0)
(0.9953891 0.027559915 0)
(0.99782147 0.026684078 0)
(0.99978238 0.025660187 0)
(1.0013867 0.024566364 0)
(1.0027006 0.023452237 0)
(1.0037764 0.022353063 0)
(1.0046568 0.021281136 0)
(1.0053703 0.020252792 0)
(1.0059397 0.019276458 0)
(1.0063869 0.01836555 0)
(1.0067346 0.01752227 0)
(1.0069966 0.016739721 0)
(1.0071777 0.016027115 0)
(1.007285 0.015382372 0)
(1.0073581 0.01479828 0)
(1.0073487 0.014272151 0)
(1.007295 0.013801428 0)
(1.0071563 0.01337782 0)
(1.0068905 0.012991445 0)
(1.006421 0.012634914 0)
(1.0056335 0.012301768 0)
(1.0043706 0.01198123 0)
(1.0022775 0.011660903 0)
(0.99902806 0.011326581 0)
(0.99427576 0.010951809 0)
(0.98781516 0.010508396 0)
(0.97955229 0.010002227 0)
(0.96954258 0.009446966 0)
(0.95804195 0.0088620038 0)
(0.94547529 0.0082684231 0)
(0.93231606 0.0076840096 0)
(0.91897778 0.0071252467 0)
(0.90575288 0.0066033176 0)
(0.8928136 0.0061237288 0)
(0.88025194 0.0056849057 0)
(0.86811677 0.0052827939 0)
(0.85643125 0.0049140169 0)
(0.84520135 0.0045751996 0)
(0.83442188 0.004264072 0)
(0.82408025 0.0039785758 0)
(0.81416019 0.0037162394 0)
(0.80464323 0.0034752905 0)
(0.79550941 0.0032536687 0)
(0.78673885 0.0030494158 0)
(0.77831164 0.0028611993 0)
(0.77020836 0.0026873618 0)
(0.76241056 0.002526665 0)
(0.75490055 0.0023779139 0)
(0.74766189 0.0022399351 0)
(0.74067895 0.0021119556 0)
(0.73393696 0.0019930061 0)
(0.72742217 0.0018823572 0)
(0.72112159 0.0017792772 0)
(0.7150232 0.0016831 0)
(0.70911576 0.0015932666 0)
(0.70338883 0.0015092129 0)
(0.69783267 0.0014305478 0)
(0.69243816 0.0013568161 0)
(0.68719685 0.0012876628 0)
(0.68210084 0.0012227329 0)
(0.67714274 0.0011617174 0)
(0.67231563 0.0011043233 0)
(0.66761312 0.0010502806 0)
(0.66302918 0.0009993522 0)
(0.65855821 0.00095131634 0)
(0.6541949 0.00090597983 0)
(0.64993433 0.00086315407 0)
(0.64577185 0.00082268017 0)
(0.64170311 0.0007844038 0)
(0.63772399 0.00074819198 0)
(0.63383064 0.00071390886 0)
(0.63001938 0.00068143926 0)
(0.62628678 0.00065066714 0)
(0.62262955 0.00062149657 0)
(0.61904458 0.00059382901 0)
(0.61552891 0.00056758538 0)
(0.61207968 0.00054268167 0)
(0.60869417 0.00051905293 0)
(0.60536971 0.00049663137 0)
(0.60210373 0.00047536133 0)
(0.59889365 0.00045519661 0)
(0.59573693 0.00043609921 0)
(0.59263081 0.00041803032 0)
(0.58957276 0.00040100297 0)
(0.58655914 0.00038494825 0)
(0.58358795 0.00037006453 0)
(0.58065173 0.00035604703 0)
(0.57775302 0.00034384131 0)
(0.57486765 0.00033206553 0)
(0.57202296 0.00032426196 0)
(0.56912705 0.00031627701 0)
(0.56630221 0.00031827712 0)
(0.56321362 0.00031389663 0)
(0.56049836 0.00033841292 0)
(0.55581218 0.00029947351 0)
(0.97999462 0.019218438 0)
(0.98217036 0.022785245 0)
(0.98537064 0.025386574 0)
(0.98892679 0.026743358 0)
(0.99228381 0.027081738 0)
(0.99516994 0.026752166 0)
(0.99755097 0.026046131 0)
(0.99950309 0.025154911 0)
(1.0011125 0.024166243 0)
(1.0024363 0.023135058 0)
(1.0035222 0.022101092 0)
(1.0044107 0.021082691 0)
(1.0051315 0.02009746 0)
(1.0057089 0.019156863 0)
(1.0061653 0.018273615 0)
(1.0065251 0.017452252 0)
(1.0068039 0.016688911 0)
(1.0070125 0.01599087 0)
(1.0071645 0.015356823 0)
(1.0072761 0.01478309 0)
(1.0073485 0.014265982 0)
(1.0073921 0.013799219 0)
(1.007414 0.013379083 0)
(1.0074098 0.012999235 0)
(1.0073695 0.012653691 0)
(1.007275 0.012338921 0)
(1.0070993 0.012049686 0)
(1.0067859 0.011779205 0)
(1.0062406 0.011523177 0)