/*--------------------------------*- C++ -*----------------------------------*\
| =========                 |                                                 |
| \\      /  F ield         | OpenFOAM: The Open Source CFD Toolbox           |
|  \\    /   O peration     | Version:  2206                                  |
|   \\  /    A nd           | Website:  www.openfoam.com                      |
|    \\/     M anipulation  |                                                 |
\*---------------------------------------------------------------------------*/
FoamFile
{
    version     2.0;
    format      ascii;
    arch        "LSB;label=32;scalar=64";
    class       volScalarField;
    location    "1600";
    object      k;
}
// * * * * * * * * * * * * * * * * * * * * * * * * * * * * * * * * * * * * * //

dimensions      [0 2 -2 0 0 0 0];

internalField   nonuniform List<scalar> 
13056
(
8.9910163e-05
6.7851303e-05
6.6617045e-05
6.6497777e-05
6.6528288e-05
6.6544039e-05
6.654854e-05
6.6550664e-05
6.6552969e-05
6.6556033e-05
6.6560072e-05
6.6565278e-05
6.657189e-05
6.6580235e-05
6.659075e-05
6.66041e-05
6.6621247e-05
6.6643325e-05
6.6675727e-05
6.6705291e-05
6.6835366e-05
6.6624795e-05
6.8165723e-05
1.7779028e-05
3.1074791e-07
4.840891e-08
2.4562418e-08
1.6579337e-08
1.2675273e-08
1.0296922e-08
8.6895568e-09
7.5157711e-09
6.6186752e-09
5.9108198e-09
5.3369384e-09
4.861414e-09
4.460625e-09
4.1181028e-09
3.8218643e-09
3.562998e-09
3.3347819e-09
3.1320098e-09
2.9505339e-09
2.7872247e-09
2.6393793e-09
2.5048842e-09
2.3819781e-09
2.2691986e-09
2.1653215e-09
2.0693152e-09
1.9802993e-09
1.8975202e-09
1.8203298e-09
1.7481669e-09
1.6805456e-09
1.6170424e-09
1.557283e-09
1.5009376e-09
1.4477154e-09
1.3973582e-09
1.3496358e-09
1.3043445e-09
1.2613032e-09
1.220348e-09
1.1813302e-09
1.1441167e-09
1.1085884e-09
1.0746384e-09
1.04217e-09
1.0110971e-09
9.8134432e-10
9.5284488e-10
9.2553945e-10
8.9937666e-10
8.7431173e-10
8.5030698e-10
8.2733209e-10
8.0536738e-10
7.8441016e-10
7.6446487e-10
7.4554418e-10
7.2767101e-10
7.1087702e-10
6.9520772e-10
6.8073579e-10
6.6756629e-10
6.5582678e-10
6.4571332e-10
6.3764566e-10
6.3120895e-10
6.2865593e-10
6.2827958e-10
6.3194036e-10
6.398341e-10
6.5283643e-10
6.7173631e-10
6.9708035e-10
7.2886463e-10
7.673336e-10
8.121101e-10
8.6044708e-10
9.0743711e-10
9.5056531e-10
9.8326535e-10
1.0102853e-09
1.0298201e-09
1.0442498e-09
1.0547342e-09
1.0621131e-09
1.0669677e-09
1.0696964e-09
1.0705965e-09
1.0696939e-09
1.067021e-09
1.0628087e-09
1.0572641e-09
1.05063e-09
1.0432081e-09
1.035193e-09
1.026747e-09
1.0180792e-09
1.0093255e-09
1.0005407e-09
9.9178296e-10
9.8313995e-10
9.7465198e-10
9.6631648e-10
9.5811411e-10
9.5005071e-10
9.421241e-10
9.3436544e-10
9.2641609e-10
9.1886298e-10
9.0951671e-10
9.019641e-10
8.9103742e-10
8.9907116e-05
6.7844931e-05
6.6610577e-05
6.6491234e-05
6.6521725e-05
6.6537473e-05
6.6541973e-05
6.6544096e-05
6.6546401e-05
6.6549465e-05
6.6553504e-05
6.6558709e-05
6.6565321e-05
6.6573666e-05
6.6584181e-05
6.6597531e-05
6.6614678e-05
6.6636756e-05
6.6669157e-05
6.6698719e-05
6.6828792e-05
6.6618207e-05
6.8159126e-05
1.7781445e-05
4.7806363e-08
7.4340849e-09
3.7720119e-09
2.5460621e-09
1.9465218e-09
1.5812827e-09
1.3344424e-09
1.1541861e-09
1.0164206e-09
9.0771639e-10
8.1958632e-10
7.4656079e-10
6.8501231e-10
6.3241181e-10
5.8691906e-10
5.4716549e-10
5.1211883e-10
4.8097955e-10
4.531107e-10
4.2803167e-10
4.053274e-10
3.8467331e-10
3.6579893e-10
3.4847967e-10
3.3252756e-10
3.1778415e-10
3.0411426e-10
2.9140212e-10
2.7954821e-10
2.6846637e-10
2.5808197e-10
2.4832992e-10
2.3915282e-10
2.3050007e-10
2.2232703e-10
2.1459399e-10
2.072656e-10
2.0031057e-10
1.9370109e-10
1.87412e-10
1.8142046e-10
1.7570603e-10
1.7025041e-10
1.6503719e-10
1.6005151e-10
1.5528013e-10
1.5071139e-10
1.4633503e-10
1.4214242e-10
1.381256e-10
1.3427751e-10
1.3059239e-10
1.270656e-10
1.2369415e-10
1.2047764e-10
1.1741674e-10
1.1451316e-10
1.1176964e-10
1.0919324e-10
1.0679138e-10
1.0457427e-10
1.0255825e-10
1.0076316e-10
9.9219381e-11
9.7991325e-11
9.7013202e-11
9.6625977e-11
9.6590338e-11
9.7180507e-11
9.8427387e-11
1.0046671e-10
1.0342066e-10
1.0737336e-10
1.1232295e-10
1.1830357e-10
1.2524932e-10
1.3272784e-10
1.3998116e-10
1.466294e-10
1.5166797e-10
1.5583374e-10
1.5884938e-10
1.6108193e-10
1.6270927e-10
1.638593e-10
1.6462019e-10
1.6505254e-10
1.6520162e-10
1.6507111e-10
1.6466572e-10
1.6402091e-10
1.6316896e-10
1.6214768e-10
1.6100388e-10
1.5976787e-10
1.5846489e-10
1.5712734e-10
1.5577623e-10
1.5442016e-10
1.5306816e-10
1.5173377e-10
1.5042321e-10
1.4913615e-10
1.4786963e-10
1.4662457e-10
1.4540065e-10
1.4420259e-10
1.4297547e-10
1.4180904e-10
1.4036767e-10
1.3920168e-10
1.3751467e-10
8.9897386e-05
6.7824971e-05
6.6590337e-05
6.6470765e-05
6.6501196e-05
6.6516935e-05
6.6521433e-05
6.6523554e-05
6.6525858e-05
6.6528921e-05
6.6532959e-05
6.6538164e-05
6.6544775e-05
6.6553121e-05
6.6563635e-05
6.6576985e-05
6.659413e-05
6.6616207e-05
6.6648604e-05
6.6678159e-05
6.6808223e-05
6.6597615e-05
6.8138346e-05
1.7784174e-05
1.4956311e-08
2.3190418e-09
1.1766692e-09
7.9423909e-10
6.0721967e-10
4.9328868e-10
4.1629003e-10
3.6006099e-10
3.170863e-10
2.8317641e-10
2.5568433e-10
2.3290408e-10
2.1370432e-10
1.9729616e-10
1.8310539e-10
1.7070501e-10
1.5977292e-10
1.5005967e-10
1.4136662e-10
1.3354384e-10
1.2646188e-10
1.2001949e-10
1.1413232e-10
1.087303e-10
1.0375479e-10
9.9156386e-11
9.4892888e-11
9.0928077e-11
8.7230942e-11
8.3774595e-11
8.053572e-11
7.7493981e-11
7.4631562e-11
7.1933101e-11
6.9384921e-11
6.6974234e-11
6.4689914e-11
6.2522215e-11
6.0462475e-11
5.850287e-11
5.6636268e-11
5.4856309e-11
5.3157271e-11
5.1534024e-11
4.9981925e-11
4.8496669e-11
4.7074206e-11
4.571122e-11
4.4408024e-11
4.3161706e-11
4.1968981e-11
4.0828228e-11
3.9738126e-11
3.8698001e-11
3.7707923e-11
3.6768043e-11
3.5877753e-11
3.5033378e-11
3.4249747e-11
3.3532094e-11
3.2878307e-11
3.229505e-11
3.1790443e-11
3.1376161e-11
3.1073135e-11
3.085105e-11
3.0791746e-11
3.0940245e-11
3.1325954e-11
3.1965538e-11
3.2911353e-11
3.4210435e-11
3.5893209e-11
3.7955202e-11
4.039247e-11
4.3141653e-11
4.6002067e-11
4.8694354e-11
5.110805e-11
5.2941228e-11
5.4463195e-11
5.5594173e-11
5.6462491e-11
5.7127712e-11
5.7627523e-11
5.7986932e-11
5.8224084e-11
5.8352128e-11
5.8370636e-11
5.8279307e-11
5.8089737e-11
5.7815489e-11
5.747255e-11
5.707933e-11
5.6648532e-11
5.6190676e-11
5.5717888e-11
5.5238234e-11
5.4755575e-11
5.4273563e-11
5.379701e-11
5.3328286e-11
5.2867593e-11
5.2414187e-11
5.1968435e-11
5.1530378e-11
5.1101129e-11
5.0664193e-11
5.0245436e-11
4.974238e-11
4.9326364e-11
4.8723624e-11
8.9880673e-05
6.7790777e-05
6.6555669e-05
6.6435707e-05
6.6466037e-05
6.648176e-05
6.6486254e-05
6.6488373e-05
6.6490674e-05
6.6493736e-05
6.6497772e-05
6.6502977e-05
6.6509587e-05
6.6517932e-05
6.6528446e-05
6.6541794e-05
6.6558938e-05
6.6581011e-05
6.6613402e-05
6.6642944e-05
6.677299e-05
6.6562354e-05
6.8102714e-05
1.7787379e-05
6.6651869e-09
1.0226746e-09
5.1890555e-10
3.502623e-10
2.6780687e-10
2.1757877e-10
1.8363132e-10
1.5883944e-10
1.3989085e-10
1.2493732e-10
1.1281319e-10
1.0276696e-10
9.4300427e-11
8.7065877e-11
8.0809652e-11
7.5343165e-11
7.052412e-11
6.6242457e-11
6.2410642e-11
5.8962631e-11
5.5841384e-11
5.300228e-11
5.0408134e-11
4.802807e-11
4.5836241e-11
4.3810891e-11
4.1933314e-11
4.0187239e-11
3.8559091e-11
3.7036997e-11
3.5610562e-11
3.4270729e-11
3.3009921e-11
3.1822586e-11
3.0703413e-11
2.9645625e-11
2.8644025e-11
2.7694365e-11
2.6792885e-11
2.5936206e-11
2.5121152e-11
2.4344992e-11
2.3605183e-11
2.2899468e-11
2.2225799e-11
2.1581838e-11
2.096467e-11
2.0372536e-11
1.9813971e-11
1.9286625e-11
1.8786123e-11
1.8312349e-11
1.7865223e-11
1.7445337e-11
1.7053493e-11
1.6689952e-11
1.6351873e-11
1.6026102e-11
1.5752087e-11
1.5540814e-11
1.5378708e-11
1.5274073e-11
1.5237258e-11
1.5281672e-11
1.5422647e-11
1.5630831e-11
1.5892061e-11
1.649508e-11
1.7342717e-11
1.8469401e-11
1.9933926e-11
2.1791037e-11
2.4076228e-11
2.6790513e-11
2.9915094e-11
3.3327596e-11
3.6752916e-11
3.9889003e-11
4.2591246e-11
4.4718526e-11
4.6462865e-11
4.7840756e-11
4.8962774e-11
4.9886362e-11
5.0638774e-11
5.1239235e-11
5.1704154e-11
5.2041851e-11
5.2249022e-11
5.2320383e-11
5.2263771e-11
5.2097732e-11
5.1844274e-11
5.1525345e-11
5.1158168e-11
5.0756832e-11
5.0334164e-11
4.9899266e-11
4.9457991e-11
4.9014965e-11
4.8574581e-11
4.8139429e-11
4.7710658e-11
4.7288474e-11
4.6873335e-11
4.6465731e-11
4.6065011e-11
4.5665032e-11
4.5271675e-11
4.4840857e-11
4.445756e-11
4.3899805e-11
8.9856504e-05
6.7741339e-05
6.6505548e-05
6.6385023e-05
6.6415205e-05
6.6430905e-05
6.6435394e-05
6.6437508e-05
6.6439807e-05
6.6442866e-05
6.6446901e-05
6.6452104e-05
6.6458714e-05
6.6467058e-05
6.647757e-05
6.6490917e-05
6.6508058e-05
6.6530126e-05
6.6562509e-05
6.6592032e-05
6.6722047e-05
6.6511376e-05
6.8051183e-05
1.7791366e-05
3.6787142e-09
5.4594836e-10
2.7703038e-10
1.8701233e-10
1.4303784e-10
1.1625829e-10
9.8155393e-11
8.4931439e-11
7.4822708e-11
6.6841335e-11
6.0368563e-11
5.5005005e-11
5.048629e-11
4.6627177e-11
4.3291351e-11
4.0377583e-11
3.7809324e-11
3.5527682e-11
3.3486096e-11
3.1649471e-11
2.998747e-11
2.8476335e-11
2.7096263e-11
2.5830812e-11
2.4666209e-11
2.3590923e-11
2.2594745e-11
2.166837e-11
2.0804772e-11
1.9997593e-11
1.9241077e-11
1.8530209e-11
1.7861521e-11
1.7234517e-11
1.6647854e-11
1.6095642e-11
1.5574541e-11
1.5082401e-11
1.4617361e-11
1.4177788e-11
1.3761916e-11
1.3368463e-11
1.2996125e-11
1.2643799e-11
1.2310472e-11
1.1994167e-11
1.1691272e-11
1.1400341e-11
1.1141959e-11
1.0913197e-11
1.0706452e-11
1.0523102e-11
1.0364525e-11
1.0233192e-11
1.0131725e-11
1.006167e-11
1.0018558e-11
9.9769734e-12
1.0013134e-11
1.0150832e-11
1.0365367e-11
1.0674323e-11
1.110024e-11
1.1672479e-11
1.2422959e-11
1.3345494e-11
1.4405515e-11
1.6031546e-11
1.8121262e-11
2.0765993e-11
2.408432e-11
2.818908e-11
3.3155126e-11
3.8994975e-11
4.5667321e-11
5.2894367e-11
6.0089501e-11
6.6648269e-11
7.2222837e-11
7.670073e-11
8.0343519e-11
8.329289e-11
8.5741049e-11
8.7799566e-11
8.9514273e-11
9.0920482e-11
9.2050834e-11
9.2917739e-11
9.3512535e-11
9.3820127e-11
9.3851629e-11
9.364778e-11
9.3257016e-11
9.2725038e-11
9.2089549e-11
9.1381251e-11
9.0625417e-11
8.984055e-11
8.9039936e-11
8.8233451e-11
8.7429059e-11
8.6631945e-11
8.5845301e-11
8.5070521e-11
8.4308578e-11
8.3560881e-11
8.282433e-11
8.2098056e-11
8.13723e-11
8.0624117e-11
7.9925299e-11
7.8905649e-11
8.9824238e-05
6.7675288e-05
6.6438581e-05
6.6317303e-05
6.6347287e-05
6.6362956e-05
6.6367438e-05
6.6369547e-05
6.6371841e-05
6.6374897e-05
6.637893e-05
6.6384132e-05
6.639074e-05
6.6399083e-05
6.6409594e-05
6.6422938e-05
6.6440075e-05
6.6462136e-05
6.6494508e-05
6.6524006e-05
6.665398e-05
6.6443265e-05
6.7982331e-05
1.7796607e-05
2.4154772e-09
3.2961275e-10
1.6728808e-10
1.1296243e-10
8.6501023e-11
7.0402175e-11
5.9512436e-11
5.1550901e-11
4.5461797e-11
4.0647203e-11
3.6739777e-11
3.350168e-11
3.0776163e-11
2.8452153e-11
2.6445863e-11
2.4695273e-11
2.3153071e-11
2.1783432e-11
2.0558574e-11
1.9457636e-11
1.8462521e-11
1.7559009e-11
1.6735239e-11
1.5981366e-11
1.5289124e-11
1.4651726e-11
1.4062556e-11
1.3514988e-11
1.3005161e-11
1.2529255e-11
1.2083488e-11
1.166457e-11
1.1271345e-11
1.0907523e-11
1.0574769e-11
1.0265935e-11
9.9781374e-12
9.7103141e-12
9.461636e-12
9.2314604e-12
9.0185874e-12
8.8225995e-12
8.6430258e-12
8.4795859e-12
8.3320246e-12
8.1983634e-12
8.0737311e-12
7.9566877e-12
7.8830355e-12
7.8494913e-12
7.8446415e-12
7.8722195e-12
7.9363855e-12
8.0430413e-12
8.1988835e-12
8.4098834e-12
8.6752096e-12
8.9652023e-12
9.3811476e-12
9.9651274e-12
1.0697436e-11
1.1615263e-11
1.2766746e-11
1.4215235e-11
1.6031535e-11
1.8251249e-11
2.0843913e-11
2.4466036e-11
2.9040014e-11
3.4771846e-11
4.1910125e-11
5.0693173e-11
6.1281223e-11
7.3709841e-11
8.7898861e-11
1.0326385e-10
1.1857134e-10
1.3255256e-10
1.444184e-10
1.5401195e-10
1.61796e-10
1.6813192e-10
1.7340662e-10
1.7785538e-10
1.8157346e-10
1.8463703e-10
1.8711701e-10
1.8903851e-10
1.9038283e-10
1.9111609e-10
1.9125925e-10
1.9089975e-10
1.9014159e-10
1.8908164e-10
1.8780074e-10
1.8636466e-10
1.8482624e-10
1.8322446e-10
1.8158804e-10
1.7993804e-10
1.7829073e-10
1.76657e-10
1.7504402e-10
1.7345523e-10
1.7189272e-10
1.7035966e-10
1.688486e-10
1.6736378e-10
1.6587328e-10
1.6436364e-10
1.6293329e-10
1.6084465e-10
8.9783078e-05
6.7590898e-05
6.6353016e-05
6.6230772e-05
6.6260504e-05
6.6276131e-05
6.6280605e-05
6.6282707e-05
6.6284996e-05
6.6288048e-05
6.6292078e-05
6.6297277e-05
6.6303884e-05
6.6312225e-05
6.6322734e-05
6.6336076e-05
6.6353207e-05
6.637526e-05
6.6407617e-05
6.6437084e-05
6.6567002e-05
6.6356233e-05
6.7894372e-05
1.7803765e-05
1.9070273e-09
2.1990458e-10
1.1166741e-10
7.5463137e-11
5.7966733e-11
4.7350415e-11
4.0156886e-11
3.4885745e-11
3.0848858e-11
2.7646328e-11
2.504265e-11
2.2884448e-11
2.1071678e-11
1.9531576e-11
1.8206176e-11
1.7052882e-11
1.6038302e-11
1.5138071e-11
1.433423e-11
1.3613439e-11
1.2964009e-11
1.2376673e-11
1.1843682e-11
1.1358616e-11
1.0916051e-11
1.0511771e-11
1.0140562e-11
9.7966319e-12
9.4779856e-12
9.1822027e-12
8.9064464e-12
8.6482319e-12
8.4080577e-12
8.1937454e-12
8.0098277e-12
7.8469688e-12
7.7022141e-12
7.5752835e-12
7.4661537e-12
7.3750171e-12
7.3008438e-12
7.2440107e-12
7.2051927e-12
7.1853014e-12
7.1852262e-12
7.2037308e-12
7.2358809e-12
7.2808885e-12
7.3857424e-12
7.5491749e-12
7.7594025e-12
8.0241429e-12
8.3523484e-12
8.7559222e-12
9.2488636e-12
9.8453026e-12
1.0552026e-11
1.1335564e-11
1.233589e-11
1.3625456e-11
1.5197672e-11
1.7125286e-11
1.9502819e-11
2.2455438e-11
2.612613e-11
3.0625795e-11
3.5956327e-11
4.3149992e-11
5.219205e-11
6.3495448e-11
7.7546711e-11
9.4813707e-11
1.156135e-10
1.4002471e-10
1.6790302e-10
1.9811982e-10
2.2827433e-10
2.5587846e-10
2.7932293e-10
2.9832731e-10
3.1373131e-10
3.2628301e-10
3.3673162e-10
3.4554238e-10
3.5290573e-10
3.5897637e-10
3.6389752e-10
3.6771939e-10
3.7040568e-10
3.7188905e-10
3.7220946e-10
3.7153947e-10
3.7008424e-10
3.6803428e-10
3.6554903e-10
3.6275819e-10
3.5976529e-10
3.5664685e-10
3.5345967e-10
3.5024519e-10
3.4703511e-10
3.438508e-10
3.4070655e-10
3.3760941e-10
3.3456345e-10
3.3157503e-10
3.2862904e-10
3.2573691e-10
3.2283017e-10
3.1990023e-10
3.1711333e-10
3.1304296e-10
8.9732071e-05
6.7486096e-05
6.6246742e-05
6.6123294e-05
6.6152711e-05
6.6168288e-05
6.617275e-05
6.6174844e-05
6.6177126e-05
6.6180173e-05
6.6184199e-05
6.6189396e-05
6.6196001e-05
6.6204339e-05
6.6214846e-05
6.6228184e-05
6.6245309e-05
6.6267351e-05
6.6299689e-05
6.6329119e-05
6.6458966e-05
6.6248129e-05
6.7785158e-05
1.7813744e-05
1.8419323e-09
1.635903e-10
8.3168936e-11
5.6300863e-11
4.3543202e-11
3.5849479e-11
3.0616231e-11
2.6762076e-11
2.3801679e-11
2.1439115e-11
1.95119e-11
1.791351e-11
1.6575821e-11
1.544682e-11
1.4481121e-11
1.3645789e-11
1.2913251e-11
1.2264648e-11
1.168755e-11
1.1172958e-11
1.0712797e-11
1.0300524e-11
9.9306382e-12
9.5986101e-12
9.3005529e-12
9.0338549e-12
8.7933344e-12
8.5733051e-12
8.3730414e-12
8.1911694e-12
8.0255443e-12
7.8742393e-12
7.7389162e-12
7.6304136e-12
7.5555608e-12
7.5037057e-12
7.4720371e-12
7.4610523e-12
7.4715994e-12
7.5048381e-12
7.5596315e-12
7.6373397e-12
7.7403073e-12
7.8712375e-12
8.0327835e-12
8.225032e-12
8.4434241e-12
8.6885409e-12
9.022455e-12
9.4475617e-12
9.9528682e-12
1.0552705e-11
1.1264005e-11
1.2108748e-11
1.3113265e-11
1.4305596e-11
1.5706057e-11
1.7277375e-11
1.9222036e-11
2.1661493e-11
2.4613675e-11
2.8211687e-11
3.2628815e-11
3.809541e-11
4.4878588e-11
5.3221995e-11
6.3208042e-11
7.6451448e-11
9.3071652e-11
1.1383381e-10
1.3963011e-10
1.7131995e-10
2.0948887e-10
2.5429119e-10
3.0548053e-10
3.6101562e-10
4.1651986e-10
4.6742309e-10
5.1069659e-10
5.4582396e-10
5.7428115e-10
5.9747229e-10
6.1676689e-10
6.330257e-10
6.4660561e-10
6.577989e-10
6.6687446e-10
6.7392688e-10
6.7889048e-10
6.8164129e-10
6.8225221e-10
6.8104086e-10
6.783849e-10
6.7463462e-10
6.7008349e-10
6.6497017e-10
6.5948484e-10
6.5376817e-10
6.4792471e-10
6.4203073e-10
6.3614436e-10
6.3030482e-10
6.2453856e-10
6.1885864e-10
6.1327257e-10
6.0779209e-10
6.0238916e-10
5.9708655e-10
5.9175514e-10
5.8638907e-10
5.8127889e-10
5.738148e-10
8.9670116e-05
6.7358459e-05
6.6117296e-05
6.5992373e-05
6.6021405e-05
6.6036919e-05
6.6041367e-05
6.604345e-05
6.6045724e-05
6.6048765e-05
6.6052786e-05
6.605798e-05
6.6064582e-05
6.6072918e-05
6.6083422e-05
6.6096755e-05
6.6113872e-05
6.6135902e-05
6.6168217e-05
6.6197601e-05
6.6327361e-05
6.6116441e-05
6.7652183e-05
1.7827732e-05
2.1276522e-09
1.4015188e-10
7.1398482e-11
4.847581e-11
3.7928614e-11
3.1640293e-11
2.7333289e-11
2.4132416e-11
2.1661227e-11
1.9674737e-11
1.8046825e-11
1.6695285e-11
1.5568853e-11
1.4625909e-11
1.3826385e-11
1.3141689e-11
1.2544666e-11
1.2018132e-11
1.155278e-11
1.1142242e-11
1.0780487e-11
1.0462409e-11
1.0183674e-11
9.9407524e-12
9.7305307e-12
9.5515437e-12
9.3974313e-12
9.2618056e-12
9.1450546e-12
9.046777e-12
8.965397e-12
8.8994195e-12
8.8517114e-12
8.8366383e-12
8.863761e-12
8.9208126e-12
9.0051502e-12
9.1182463e-12
9.2621072e-12
9.439232e-12
9.6481021e-12
9.8914867e-12
1.017429e-11
1.0502005e-11
1.0880077e-11
1.1310789e-11
1.1790499e-11
1.2322338e-11
1.2990982e-11
1.380469e-11
1.4754474e-11
1.5865371e-11
1.7167263e-11
1.8698521e-11
2.050562e-11
2.2639506e-11
2.5143637e-11
2.7978551e-11
3.144285e-11
3.5734771e-11
4.0916169e-11
4.7218741e-11
5.4944474e-11
6.4495891e-11
7.6344805e-11
9.0961027e-11
1.0858971e-10
1.3171719e-10
1.6072257e-10
1.9694842e-10
2.4195124e-10
2.9723212e-10
3.6381773e-10
4.4198984e-10
5.3134361e-10
6.2835968e-10
7.2544122e-10
8.1460446e-10
8.9046704e-10
9.5210549e-10
1.0020227e-09
1.0426993e-09
1.0765224e-09
1.1050042e-09
1.1287789e-09
1.1483682e-09
1.1642498e-09
1.1765926e-09
1.1852835e-09
1.1901059e-09
1.1911871e-09
1.1890825e-09
1.1844524e-09
1.177909e-09
1.1699656e-09
1.1610394e-09
1.1514627e-09
1.1414812e-09
1.1312779e-09
1.1209861e-09
1.1107073e-09
1.10051e-09
1.0904406e-09
1.0805219e-09
1.0707671e-09
1.0611967e-09
1.0517616e-09
1.0425025e-09
1.033192e-09
1.0238257e-09
1.0149024e-09
1.0018685e-09
8.9595974e-05
6.7205213e-05
6.5961853e-05
6.5835149e-05
6.5863716e-05
6.5879153e-05
6.5883584e-05
6.5885655e-05
6.5887918e-05
6.5890951e-05
6.5894967e-05
6.5900157e-05
6.5906756e-05
6.5915089e-05
6.5925589e-05
6.5938917e-05
6.5956025e-05
6.5978039e-05
6.6010327e-05
6.6039657e-05
6.616931e-05
6.5958289e-05
6.7492583e-05
1.7847263e-05
2.7736348e-09
1.4251332e-10
7.2789988e-11
4.9604455e-11
3.9372733e-11
3.3369763e-11
2.921862e-11
2.6095243e-11
2.3667547e-11
2.1701543e-11
2.008212e-11
1.8735901e-11
1.7618366e-11
1.6690803e-11
1.5912378e-11
1.5254532e-11
1.4685443e-11
1.4186357e-11
1.3749526e-11
1.3370182e-11
1.3043321e-11
1.2764388e-11
1.2529453e-11
1.2335378e-11
1.2179272e-11
1.2060645e-11
1.1970556e-11
1.1900968e-11
1.1853502e-11
1.1828884e-11
1.1826122e-11
1.1844148e-11
1.1887386e-11
1.1975058e-11
1.2120458e-11
1.2308982e-11
1.2538201e-11
1.2810967e-11
1.3130977e-11
1.3502719e-11
1.3923953e-11
1.4399575e-11
1.493848e-11
1.5550549e-11
1.6245657e-11
1.7029735e-11
1.7901094e-11
1.8867375e-11
2.004654e-11
2.1456166e-11
2.3091511e-11
2.4994591e-11
2.7215874e-11
2.9819799e-11
3.288497e-11
3.6499186e-11
4.074443e-11
4.5583755e-11
5.1458705e-11
5.8685553e-11
6.7402356e-11
7.7997843e-11
9.0979075e-11
1.070233e-10
1.2693085e-10
1.5154539e-10
1.8141067e-10
2.2029348e-10
2.6904189e-10
3.2992132e-10
4.0554843e-10
4.9844882e-10
6.1035524e-10
7.4175732e-10
8.9200832e-10
1.05525e-09
1.218765e-09
1.369118e-09
1.4971325e-09
1.6012149e-09
1.6854842e-09
1.7541452e-09
1.8112095e-09
1.8592341e-09
1.8993003e-09
1.932302e-09
1.9590533e-09
1.9798437e-09
1.9944849e-09
2.0026132e-09
2.0044425e-09
2.000908e-09
1.9931217e-09
1.9821143e-09
1.9687496e-09
1.9537303e-09
1.9376156e-09
1.9208194e-09
1.9036496e-09
1.8863306e-09
1.8690333e-09
1.851873e-09
1.8349277e-09
1.8182361e-09
1.8018203e-09
1.7857149e-09
1.7698369e-09
1.754256e-09
1.7385876e-09
1.7228284e-09
1.7078121e-09
1.6858782e-09
8.9508268e-05
6.7023235e-05
6.577723e-05
6.5648397e-05
6.5676408e-05
6.5691751e-05
6.5696161e-05
6.5698216e-05
6.5700467e-05
6.5703491e-05
6.5707501e-05
6.5712685e-05
6.5719281e-05
6.572761e-05
6.5738105e-05
6.5751427e-05
6.5768523e-05
6.5790519e-05
6.5822775e-05
6.5852043e-05
6.5981568e-05
6.5770424e-05
6.7303135e-05
1.7874283e-05
3.8581915e-09
1.7059862e-10
8.7341685e-11
5.9721186e-11
4.8010888e-11
4.1252178e-11
3.6532943e-11
3.2938381e-11
3.0126235e-11
2.783633e-11
2.5942174e-11
2.4365802e-11
2.3060884e-11
2.198481e-11
2.1089802e-11
2.0343081e-11
1.9702263e-11
1.914354e-11
1.8659495e-11
1.8246275e-11
1.7899114e-11
1.7613241e-11
1.7384476e-11
1.7209546e-11
1.7085297e-11
1.7012237e-11
1.6976965e-11
1.6968587e-11
1.6990315e-11
1.7044406e-11
1.7130629e-11
1.7248473e-11
1.7404554e-11
1.7624941e-11
1.7928182e-11
1.8296415e-11
1.8727582e-11
1.9226591e-11
1.9799682e-11
2.045437e-11
2.1187214e-11
2.200637e-11
2.2926957e-11
2.3965725e-11
2.5139539e-11
2.6460335e-11
2.7930267e-11
2.9564679e-11
3.1529412e-11
3.3856844e-11
3.6550573e-11
3.9679129e-11
4.3325203e-11
4.7594001e-11
5.2614529e-11
5.8532822e-11
6.5493567e-11
7.347211e-11
8.3118783e-11
9.4929093e-11
1.0916936e-10
1.2647411e-10
1.4767153e-10
1.7386955e-10
2.063859e-10
2.466679e-10
2.9577673e-10
3.5934197e-10
4.3901892e-10
5.3852189e-10
6.6212942e-10
8.1397402e-10
9.9689796e-10
1.2117227e-09
1.4574361e-09
1.7245381e-09
1.9923075e-09
2.2387566e-09
2.4487129e-09
2.6195086e-09
2.7577656e-09
2.870401e-09
2.9639737e-09
3.0426841e-09
3.1083218e-09
3.1623699e-09
3.2061751e-09
3.2402178e-09
3.2641931e-09
3.2775063e-09
3.2805079e-09
3.274729e-09
3.2619897e-09
3.2439773e-09
3.2221061e-09
3.1975262e-09
3.171153e-09
3.143664e-09
3.1155633e-09
3.0872183e-09
3.0589086e-09
3.0308231e-09
3.0030894e-09
2.9757708e-09
2.9489035e-09
2.9225443e-09
2.8965574e-09
2.8710568e-09
2.8454127e-09
2.819622e-09
2.7950456e-09
2.7591472e-09
8.9405497e-05
6.6809043e-05
6.5559872e-05
6.5428518e-05
6.5455865e-05
6.5471097e-05
6.5475481e-05
6.5477518e-05
6.5479754e-05
6.5482767e-05
6.5486769e-05
6.5491947e-05
6.5498538e-05
6.5506863e-05
6.5517353e-05
6.5530667e-05
6.554775e-05
6.5569725e-05
6.5601943e-05
6.5631138e-05
6.5760512e-05
6.5549223e-05
6.708025e-05
1.7911216e-05
5.5255693e-09
2.2962271e-10
1.1775485e-10
8.0702646e-11
6.544122e-11
5.6742299e-11
5.0623832e-11
4.5921012e-11
4.2224585e-11
3.9206347e-11
3.6703591e-11
3.4619276e-11
3.2896134e-11
3.1480037e-11
3.0308903e-11
2.9340807e-11
2.8515002e-11
2.779822e-11
2.7182206e-11
2.6663491e-11
2.6236792e-11
2.5896322e-11
2.5636934e-11
2.5454679e-11
2.5345599e-11
2.5311406e-11
2.5331551e-11
2.5390639e-11
2.5494119e-11
2.5646497e-11
2.5848694e-11
2.6101074e-11
2.6413402e-11
2.6821357e-11
2.7350871e-11
2.7979777e-11
2.870676e-11
2.9539833e-11
3.0489101e-11
3.1566693e-11
3.2767275e-11
3.4103995e-11
3.5601622e-11
3.7287584e-11
3.9189668e-11
4.1329563e-11
4.3716515e-11
4.6378641e-11
4.9549641e-11
5.3285266e-11
5.7604522e-11
6.2616868e-11
6.8454828e-11
7.5286609e-11
8.3319299e-11
9.2789734e-11
1.0394281e-10
1.1678409e-10
1.3226604e-10
1.5115415e-10
1.7392525e-10
2.0159387e-10
2.354848e-10
2.7737265e-10
3.2937912e-10
3.9390897e-10
4.7288728e-10
5.7463979e-10
7.0216508e-10
8.6142303e-10
1.0592646e-09
1.3023105e-09
1.595124e-09
1.939048e-09
2.3325223e-09
2.7604416e-09
3.1897247e-09
3.5851394e-09
3.9221685e-09
4.1964534e-09
4.4184503e-09
4.5992871e-09
4.749466e-09
4.8757394e-09
4.9810009e-09
5.0676545e-09
5.1378764e-09
5.1924462e-09
5.2308788e-09
5.2522228e-09
5.25704e-09
5.2477845e-09
5.2273734e-09
5.198511e-09
5.163464e-09
5.1240755e-09
5.0818129e-09
5.0377619e-09
4.9927302e-09
4.9473069e-09
4.90194e-09
4.8569322e-09
4.8124881e-09
4.7687093e-09
4.7256536e-09
4.6834122e-09
4.6417672e-09
4.600902e-09
4.5598063e-09
4.5184773e-09
4.479093e-09
4.4215648e-09
8.9286044e-05
6.6558793e-05
6.5305852e-05
6.517153e-05
6.5198093e-05
6.521319e-05
6.5217543e-05
6.5219558e-05
6.5221777e-05
6.5224776e-05
6.5228768e-05
6.523394e-05
6.5240526e-05
6.5248846e-05
6.5259329e-05
6.5272634e-05
6.5289702e-05
6.5311652e-05
6.5343826e-05
6.5372937e-05
6.5502133e-05
6.5290682e-05
6.681997e-05
1.7961042e-05
7.9986767e-09
3.302729e-10
1.6953484e-10
1.1634451e-10
9.4809688e-11
8.2629579e-11
7.4024493e-11
6.7374145e-11
6.2132632e-11
5.7850074e-11
5.4295415e-11
5.1334158e-11
4.8886567e-11
4.6877149e-11
4.5219837e-11
4.3857148e-11
4.2698985e-11
4.1696529e-11
4.0839339e-11
4.0123847e-11
3.9543394e-11
3.9090178e-11
3.8757196e-11
3.853915e-11
3.8430589e-11
3.8434846e-11
3.8520271e-11
3.8664669e-11
3.887674e-11
3.9164408e-11
3.9530453e-11
3.9976684e-11
4.0517436e-11
4.1201735e-11
4.2065872e-11
4.3082247e-11
4.4250988e-11
4.5584807e-11
4.7099689e-11
4.8814777e-11
5.0721827e-11
5.284159e-11
5.5213706e-11
5.7882068e-11
6.0891378e-11
6.4278935e-11
6.8066448e-11
7.2302738e-11
7.731692e-11
8.3201364e-11
9.0002184e-11
9.7891465e-11
1.0707813e-10
1.1782687e-10
1.3046461e-10
1.4536835e-10
1.629408e-10
1.8324864e-10
2.0767954e-10
2.3740345e-10
2.7323598e-10
3.1677372e-10
3.7010247e-10
4.3601931e-10
5.1788276e-10
6.1959592e-10
7.4448939e-10
9.0478175e-10
1.1056529e-09
1.3565103e-09
1.6681497e-09
2.0510091e-09
2.5122956e-09
3.0541616e-09
3.6742296e-09
4.3488393e-09
5.0259921e-09
5.650136e-09
6.182342e-09
6.6156225e-09
6.9662618e-09
7.2518618e-09
7.4889733e-09
7.6882711e-09
7.8543533e-09
7.9910462e-09
8.1018058e-09
8.1878739e-09
8.2484909e-09
8.2821582e-09
8.2897624e-09
8.2751733e-09
8.2429916e-09
8.1974819e-09
8.1422188e-09
8.0801091e-09
8.0134666e-09
7.9440035e-09
7.8729938e-09
7.8013663e-09
7.7298275e-09
7.6588549e-09
7.5887711e-09
7.5197363e-09
7.4518418e-09
7.3852312e-09
7.3195613e-09
7.2551211e-09
7.1903171e-09
7.1251464e-09
7.0630412e-09
6.9723251e-09
8.9148189e-05
6.6268272e-05
6.5010857e-05
6.4873064e-05
6.4898701e-05
6.4913638e-05
6.4917953e-05
6.4919943e-05
6.492214e-05
6.4925124e-05
6.4929105e-05
6.4934269e-05
6.4940847e-05
6.4949161e-05
6.4959637e-05
6.4972931e-05
6.4989982e-05
6.5011903e-05
6.5044027e-05
6.5073043e-05
6.5202031e-05
6.4990405e-05
6.651796e-05
1.8027368e-05
1.1604037e-08
4.9016099e-10
2.5174118e-10
1.7288062e-10
1.4124618e-10
1.2343005e-10
1.1081329e-10
1.0103409e-10
9.331569e-11
8.7012489e-11
8.1779939e-11
7.7420601e-11
7.3816227e-11
7.0856225e-11
6.8417042e-11
6.6416803e-11
6.4720079e-11
6.3253717e-11
6.2003343e-11
6.0964776e-11
6.0128856e-11
5.9484414e-11
5.902137e-11
5.873216e-11
5.8608894e-11
5.8657219e-11
5.8828516e-11
5.9090503e-11
5.945667e-11
5.9940204e-11
6.0546904e-11
6.1280992e-11
6.2163425e-11
6.3261678e-11
6.462652e-11
6.6223785e-11
6.8056252e-11
7.0143751e-11
7.2511167e-11
7.5188283e-11
7.8162417e-11
8.1465867e-11
8.516103e-11
8.9317019e-11
9.4004534e-11
9.9285535e-11
1.0520284e-10
1.1183827e-10
1.196546e-10
1.2880111e-10
1.393699e-10
1.5162824e-10
1.659014e-10
1.8260081e-10
2.022361e-10
2.2539882e-10
2.5273759e-10
2.8443133e-10
3.2249351e-10
3.6869778e-10
4.2439641e-10
4.9207171e-10
5.7496762e-10
6.7743836e-10
8.0473118e-10
9.6306992e-10
1.1580294e-09
1.4074442e-09
1.719973e-09
2.1102789e-09
2.5951649e-09
3.1908843e-09
3.9086769e-09
4.7519407e-09
5.7170838e-09
6.7674704e-09
7.8223409e-09
8.7951863e-09
9.6250235e-09
1.0300816e-08
1.0847655e-08
1.1293026e-08
1.1662689e-08
1.1973307e-08
1.2232086e-08
1.2445034e-08
1.2617564e-08
1.2751627e-08
1.2846048e-08
1.2898493e-08
1.2910346e-08
1.2887633e-08
1.2837519e-08
1.2766647e-08
1.2680584e-08
1.2583858e-08
1.2480071e-08
1.2371891e-08
1.2261302e-08
1.2149751e-08
1.2038337e-08
1.1927805e-08
1.1818658e-08
1.1711143e-08
1.1605405e-08
1.1501666e-08
1.1399392e-08
1.1299034e-08
1.1198108e-08
1.1096613e-08
1.0999891e-08
1.085861e-08
8.8990125e-05
6.5932898e-05
6.4670186e-05
6.4528357e-05
6.4552902e-05
6.4567648e-05
6.4571919e-05
6.4573878e-05
6.457605e-05
6.4579015e-05
6.4582983e-05
6.4588137e-05
6.4594707e-05
6.4603014e-05
6.4613482e-05
6.4626764e-05
6.4643794e-05
6.4665683e-05
6.4697747e-05
6.4726658e-05
6.4855403e-05
6.4643605e-05
6.616951e-05
1.8114489e-05
1.6809765e-08
7.3653799e-10
3.7838443e-10
2.5994485e-10
2.1265829e-10
1.8608705e-10
1.6724798e-10
1.5262453e-10
1.4107503e-10
1.316521e-10
1.2383185e-10
1.1731699e-10
1.1192742e-10
1.0749755e-10
1.0384699e-10
1.0085686e-10
9.8322899e-11
9.6134708e-11
9.4271552e-11
9.2727988e-11
9.1490807e-11
9.0543534e-11
8.987126e-11
8.9462858e-11
8.9306628e-11
8.9411622e-11
8.9703509e-11
9.0135172e-11
9.0727213e-11
9.1500904e-11
9.2466928e-11
9.3633486e-11
9.5031138e-11
9.6752762e-11
9.886937e-11
1.013392e-10
1.0416969e-10
1.0739141e-10
1.1104269e-10
1.1516938e-10
1.1975209e-10
1.2484058e-10
1.3053188e-10
1.3693351e-10
1.4415588e-10
1.5229949e-10
1.6144198e-10
1.7171703e-10
1.8377446e-10
1.9785139e-10
2.1411577e-10
2.3297888e-10
2.5494216e-10
2.8063918e-10
3.1085649e-10
3.4651225e-10
3.8863469e-10
4.3759785e-10
4.9631473e-10
5.6745767e-10
6.5321909e-10
7.5742194e-10
8.8506359e-10
1.0428572e-09
1.2389176e-09
1.4830349e-09
1.7843177e-09
2.1687026e-09
2.6503227e-09
3.2518084e-09
3.9990633e-09
4.9171523e-09
6.0234326e-09
7.3232063e-09
8.8110809e-09
1.0430835e-08
1.2058202e-08
1.3559762e-08
1.4840984e-08
1.5884639e-08
1.6729073e-08
1.7416766e-08
1.7987438e-08
1.8466836e-08
1.8866135e-08
1.9194664e-08
1.9460815e-08
1.966762e-08
1.9813273e-08
1.9894181e-08
1.9912476e-08
1.9877455e-08
1.9800169e-08
1.9690865e-08
1.9558129e-08
1.9408944e-08
1.924887e-08
1.9082018e-08
1.891145e-08
1.8739397e-08
1.8567557e-08
1.8397076e-08
1.822873e-08
1.8062903e-08
1.7899815e-08
1.7739812e-08
1.7582067e-08
1.7427277e-08
1.7271612e-08
1.7115069e-08
1.6965888e-08
1.674798e-08
8.880999e-05
6.5547722e-05
6.4278753e-05
6.4132247e-05
6.4155509e-05
6.4170028e-05
6.4174245e-05
6.4176167e-05
6.417831e-05
6.4181253e-05
6.4185205e-05
6.4190347e-05
6.4196909e-05
6.4205207e-05
6.4215664e-05
6.4228933e-05
6.4245939e-05
6.4267791e-05
6.4299788e-05
6.432858e-05
6.4457045e-05
6.4245076e-05
6.5769558e-05
1.8227445e-05
2.4279616e-08
1.1106073e-09
5.70643e-10
3.9209566e-10
3.2098348e-10
2.8107149e-10
2.5275787e-10
2.3076446e-10
2.133892e-10
1.9922828e-10
1.8748092e-10
1.7769544e-10
1.6959534e-10
1.6293069e-10
1.5743613e-10
1.5293753e-10
1.4912694e-10
1.4583766e-10
1.4303908e-10
1.4072363e-10
1.3887181e-10
1.3745901e-10
1.3646293e-10
1.3586697e-10
1.3565365e-10
1.3583705e-10
1.3630412e-10
1.3698602e-10
1.3791389e-10