/*--------------------------------*- C++ -*----------------------------------*\
| =========                 |                                                 |
| \\      /  F ield         | OpenFOAM: The Open Source CFD Toolbox           |
|  \\    /   O peration     | Version:  2206                                  |
|   \\  /    A nd           | Website:  www.openfoam.com                      |
|    \\/     M anipulation  |                                                 |
\*---------------------------------------------------------------------------*/
FoamFile
{
    version     2.0;
    format      ascii;
    arch        "LSB;label=32;scalar=64";
    class       volScalarField;
    location    "1600";
    object      nut;
}
// * * * * * * * * * * * * * * * * * * * * * * * * * * * * * * * * * * * * * //

dimensions      [0 2 -1 0 0 0 0];

internalField   nonuniform List<scalar> 
13056
(
1.9293511e-07
1.8973432e-07
1.899551e-07
1.9027193e-07
1.9045768e-07
1.9054629e-07
1.9059218e-07
1.9062071e-07
1.9064141e-07
1.9065814e-07
1.906728e-07
1.9068655e-07
1.9070031e-07
1.9071487e-07
1.9073114e-07
1.9074995e-07
1.9077348e-07
1.9079973e-07
1.908505e-07
1.9084358e-07
1.9117078e-07
1.9052999e-07
1.8828361e-07
9.0930546e-10
2.6016321e-16
4.0528729e-17
2.0564057e-17
1.3880491e-17
1.0611945e-17
8.6207513e-18
7.2750387e-18
6.2923261e-18
5.5412628e-18
4.9486347e-18
4.4681718e-18
4.070055e-18
3.734508e-18
3.4477428e-18
3.1997271e-18
2.983e-18
2.7919338e-18
2.6221697e-18
2.4702351e-18
2.33351e-18
2.2097314e-18
2.0971299e-18
1.9942309e-18
1.89981e-18
1.8128424e-18
1.7324644e-18
1.6579389e-18
1.5886349e-18
1.5240098e-18
1.4635938e-18
1.4069802e-18
1.3538142e-18
1.3037827e-18
1.2566095e-18
1.212051e-18
1.169891e-18
1.1299371e-18
1.0920185e-18
1.0559836e-18
1.0216952e-18
9.8902892e-19
9.5787318e-19
9.281283e-19
8.997048e-19
8.7252173e-19
8.4650699e-19
8.2159746e-19
7.9773726e-19
7.7487672e-19
7.529728e-19
7.3198803e-19
7.1189086e-19
6.9265591e-19
6.742667e-19
6.5672098e-19
6.4002245e-19
6.2418174e-19
6.0921803e-19
5.9515783e-19
5.8203923e-19
5.699231e-19
5.5889738e-19
5.4906887e-19
5.4060172e-19
5.3384735e-19
5.2845842e-19
5.2632099e-19
5.2600591e-19
5.2907077e-19
5.3567954e-19
5.465653e-19
5.6238859e-19
5.8360703e-19
6.1021735e-19
6.424242e-19
6.7991181e-19
7.2038032e-19
7.5972114e-19
7.9582878e-19
8.2320578e-19
8.4582734e-19
8.6218214e-19
8.7426292e-19
8.8304065e-19
8.8921843e-19
8.9328278e-19
8.9556727e-19
8.9632084e-19
8.9556515e-19
8.933274e-19
8.8980079e-19
8.8515875e-19
8.7960458e-19
8.7339085e-19
8.6668047e-19
8.5960929e-19
8.5235254e-19
8.4502372e-19
8.3766896e-19
8.3033686e-19
8.2310079e-19
8.1599453e-19
8.0901591e-19
8.0214875e-19
7.9539795e-19
7.8876166e-19
7.8226598e-19
7.7561066e-19
7.6928707e-19
7.6146221e-19
7.5513905e-19
7.4599105e-19
1.9293467e-07
1.8973294e-07
1.8995387e-07
1.9027075e-07
1.9045654e-07
1.9054517e-07
1.9059107e-07
1.9061961e-07
1.9064032e-07
1.9065705e-07
1.9067171e-07
1.9068547e-07
1.9069923e-07
1.9071379e-07
1.9073007e-07
1.9074888e-07
1.9077241e-07
1.9079866e-07
1.9084944e-07
1.9084251e-07
1.9116973e-07
1.9052896e-07
1.8828339e-07
9.2313033e-10
2.4407257e-16
3.7876893e-17
1.9218518e-17
1.2972266e-17
9.9175886e-18
8.0566837e-18
6.7990244e-18
5.880613e-18
5.1786934e-18
4.6248419e-18
4.1758164e-18
3.803749e-18
3.4901576e-18
3.2221563e-18
2.9903693e-18
2.7878236e-18
2.6092598e-18
2.4506041e-18
2.3086114e-18
2.180833e-18
2.065154e-18
1.9599207e-18
1.8637551e-18
1.7755129e-18
1.6942363e-18
1.6191182e-18
1.5494696e-18
1.4847008e-18
1.4243047e-18
1.3678422e-18
1.3149333e-18
1.2652462e-18
1.2184884e-18
1.1744023e-18
1.1327603e-18
1.0933601e-18
1.0560216e-18
1.0205854e-18
9.8690978e-19
9.5486651e-19
9.2433928e-19
8.9522389e-19
8.6742713e-19
8.4086536e-19
8.154629e-19
7.9115218e-19
7.678738e-19
7.4557543e-19
7.2421345e-19
7.0374721e-19
6.8414058e-19
6.6536419e-19
6.4739436e-19
6.3021584e-19
6.1382658e-19
5.982298e-19
5.8343399e-19
5.6945221e-19
5.5632244e-19
5.4408276e-19
5.3278384e-19
5.2250881e-19
5.1335853e-19
5.054873e-19
4.9922222e-19
4.9422352e-19
4.9222036e-19
4.920257e-19
4.950164e-19
5.0134815e-19
5.117109e-19
5.2672506e-19
5.468163e-19
5.7197052e-19
6.0235349e-19
6.3761888e-19
6.7556003e-19
7.1232924e-19
7.4602639e-19
7.7154542e-19
7.9265493e-19
8.0793259e-19
8.1924507e-19
8.2749324e-19
8.3332347e-19
8.3718031e-19
8.3936939e-19
8.4011978e-19
8.3944965e-19
8.3738296e-19
8.3410011e-19
8.2976494e-19
8.2456956e-19
8.1875181e-19
8.1246558e-19
8.0583916e-19
7.990372e-19
7.9216645e-19
7.8527065e-19
7.7839562e-19
7.7161015e-19
7.64946e-19
7.5840134e-19
7.5196116e-19
7.4563009e-19
7.3940649e-19
7.3331449e-19
7.270744e-19
7.2114329e-19
7.138127e-19
7.0788353e-19
6.9930506e-19
1.9293325e-07
1.8972861e-07
1.8994999e-07
1.9026705e-07
1.9045295e-07
1.9054165e-07
1.9058759e-07
1.9061614e-07
1.9063687e-07
1.9065362e-07
1.9066829e-07
1.9068205e-07
1.9069582e-07
1.9071039e-07
1.9072667e-07
1.9074549e-07
1.9076902e-07
1.9079528e-07
1.9084607e-07
1.9083912e-07
1.9116637e-07
1.9052575e-07
1.8828065e-07
9.3972731e-10
2.3322712e-16
3.611012e-17
1.8322081e-17
1.2367208e-17
9.4551002e-18
7.681063e-18
6.4821048e-18
5.6065535e-18
4.9373878e-18
4.40937e-18
3.9812846e-18
3.6265684e-18
3.3276054e-18
3.0721116e-18
2.8511457e-18
2.6580581e-18
2.4878333e-18
2.3365875e-18
2.201227e-18
2.0794177e-18
1.9691437e-18
1.8688286e-18
1.7771586e-18
1.693043e-18
1.6155687e-18
1.5439662e-18
1.4775786e-18
1.4158414e-18
1.3582719e-18
1.3044513e-18
1.2540164e-18
1.2066503e-18
1.162076e-18
1.1200559e-18
1.0803778e-18
1.0428409e-18
1.0072717e-18
9.7351837e-19
9.4144596e-19
9.1093268e-19
8.8186745e-19
8.5415125e-19
8.2769461e-19
8.0241734e-19
7.7824681e-19
7.551149e-19
7.3295625e-19
7.1171852e-19
6.9142071e-19
6.7201444e-19
6.5344242e-19
6.3567936e-19
6.1870384e-19
6.0250523e-19
5.8708332e-19
5.7243712e-19
5.5854603e-19
5.4532132e-19
5.3307519e-19
5.2189849e-19
5.1171371e-19
5.0262314e-19
4.9475001e-19
4.8826756e-19
4.8347193e-19
4.7974182e-19
4.7807283e-19
4.8032063e-19
4.8625814e-19
4.9611106e-19
5.1067302e-19
5.3063755e-19
5.5640573e-19
5.877664e-19
6.2438027e-19
6.6484422e-19
7.0576811e-19
7.4314505e-19
7.7633109e-19
8.0101156e-19
8.2185846e-19
8.3736696e-19
8.494597e-19
8.589108e-19
8.6615395e-19
8.7143907e-19
8.7495645e-19
8.7686217e-19
8.7713195e-19
8.7575494e-19
8.7290337e-19
8.6878034e-19
8.6362576e-19
8.577161e-19
8.5124211e-19
8.4436175e-19
8.3725719e-19
8.300496e-19
8.2279694e-19
8.1555405e-19
8.0839326e-19
8.0135014e-19
7.9442773e-19
7.8761483e-19
7.8091693e-19
7.7433465e-19
7.6788475e-19
7.6131915e-19
7.5502698e-19
7.4746713e-19
7.4121595e-19
7.3215906e-19
1.9293081e-07
1.8972119e-07
1.8994333e-07
1.9026069e-07
1.904468e-07
1.905356e-07
1.905816e-07
1.906102e-07
1.9063095e-07
1.9064772e-07
1.9066241e-07
1.9067618e-07
1.9068996e-07
1.9070455e-07
1.9072084e-07
1.9073967e-07
1.9076321e-07
1.9078947e-07
1.9084028e-07
1.9083331e-07
1.911606e-07
1.9052026e-07
1.8827535e-07
9.5795148e-10
2.2733876e-16
3.4852726e-17
1.7684293e-17
1.1936929e-17
9.1268335e-18
7.4150456e-18
6.2581062e-18
5.4131909e-18
4.767416e-18
4.2577765e-18
3.8445623e-18
3.5021673e-18
3.2136188e-18
2.9670664e-18
2.7538598e-18
2.5675681e-18
2.4033406e-18
2.2574264e-18
2.1268422e-18
2.0093376e-18
1.9029684e-18
1.8062141e-18
1.7178074e-18
1.6366962e-18
1.5619993e-18
1.4929755e-18
1.4289872e-18
1.3694758e-18
1.3139796e-18
1.2620931e-18
1.21346e-18
1.1677697e-18
1.1247681e-18
1.0842828e-18
1.0461424e-18
1.0100983e-18
9.7596845e-19
9.4360807e-19
9.1288896e-19
8.8369587e-19
8.559205e-19
8.2946957e-19
8.042527e-19
7.8018948e-19
7.5720667e-19
7.3521248e-19
7.1408225e-19
6.9374828e-19
6.7465723e-19
6.5669582e-19
6.3964763e-19
6.2350815e-19
6.0826595e-19
5.9393949e-19
5.8054239e-19
5.6804642e-19
5.5623024e-19
5.4429128e-19
5.3448164e-19
5.2728395e-19
5.2173981e-19
5.1811724e-19
5.1673427e-19
5.1794943e-19
5.2192822e-19
5.258442e-19
5.2582866e-19
5.4547197e-19
5.7345964e-19
6.106485e-19
6.5896107e-19
7.2016402e-19
7.9534362e-19
8.8435546e-19
9.8621627e-19
1.0963094e-18
1.2051147e-18
1.3030036e-18
1.386598e-18
1.45174e-18
1.5055041e-18
1.5480859e-18
1.5830763e-18
1.6121886e-18
1.6361369e-18
1.6553786e-18
1.6703349e-18
1.6812191e-18
1.6879003e-18
1.6901992e-18
1.6883663e-18
1.6829997e-18
1.67481e-18
1.664506e-18
1.6526438e-18
1.6396784e-18
1.6260241e-18
1.611975e-18
1.59772e-18
1.5834084e-18
1.5691823e-18
1.5551253e-18
1.5412744e-18
1.5276364e-18
1.5142259e-18
1.5010588e-18
1.4881141e-18
1.4751932e-18
1.4624864e-18
1.4485682e-18
1.4361862e-18
1.4181686e-18
1.9292728e-07
1.8971044e-07
1.899337e-07
1.9025148e-07
1.9043789e-07
1.9052684e-07
1.9057294e-07
1.9060159e-07
1.9062238e-07
1.9063918e-07
1.9065389e-07
1.9066769e-07
1.9068149e-07
1.9069609e-07
1.907124e-07
1.9073124e-07
1.907548e-07
1.9078107e-07
1.908319e-07
1.9082489e-07
1.9115225e-07
1.9051231e-07
1.8826744e-07
9.777595e-10
2.2896348e-16
3.3998238e-17
1.7251705e-17
1.1645921e-17
8.9073755e-18
7.2396278e-18
6.112229e-18
5.2886744e-18
4.6591224e-18
4.1619501e-18
3.7587194e-18
3.4245916e-18
3.1431374e-18
2.9028224e-18
2.6951222e-18
2.5137088e-18
2.3538078e-18
2.2117512e-18
2.0846395e-18
1.9702877e-18
1.8668069e-18
1.7727177e-18
1.686787e-18
1.6079909e-18
1.5354715e-18
1.4685104e-18
1.406472e-18
1.3487515e-18
1.2949174e-18
1.244568e-18
1.1973316e-18
1.1528856e-18
1.1110375e-18
1.0718621e-18
1.0353342e-18
1.0009787e-18
9.6855708e-19
9.3793488e-19
9.0899593e-19
8.81638e-19
8.5575066e-19
8.3125296e-19
8.0803998e-19
7.8602069e-19
7.6511015e-19
7.4510704e-19
7.256248e-19
7.0652181e-19
6.9006911e-19
6.7587655e-19
6.6304337e-19
6.5165142e-19
6.4172868e-19
6.3341544e-19
6.2678831e-19
6.2168693e-19
6.169488e-19
6.085026e-19
6.0729269e-19
6.1561807e-19
6.285883e-19
6.4725481e-19
6.7294717e-19
7.0733444e-19
7.5193054e-19
8.0410783e-19
8.5702503e-19
9.5334977e-19
1.0775579e-18
1.2347209e-18
1.4318442e-18
1.6755432e-18
1.9700733e-18
2.31577e-18
2.7093266e-18
3.1328348e-18
3.5502845e-18
3.9264329e-18
4.2439264e-18
4.4973343e-18
4.7041036e-18
4.8718332e-18
5.011847e-18
5.1303557e-18
5.2296545e-18
5.3114195e-18
5.3772962e-18
5.4278755e-18
5.4625926e-18
5.480545e-18
5.4823751e-18
5.4704605e-18
5.4476294e-18
5.4165509e-18
5.3794269e-18
5.3380506e-18
5.2938981e-18
5.2480501e-18
5.2012825e-18
5.1541721e-18
5.1071843e-18
5.0606217e-18
5.0146708e-18
4.9694129e-18
4.9249049e-18
4.881229e-18
4.8382043e-18
4.7957793e-18
4.7533854e-18
4.7096782e-18
4.6688573e-18
4.6092954e-18
1.9292256e-07
1.8969606e-07
1.8992082e-07
1.9023917e-07
1.9042597e-07
1.9051514e-07
1.9056135e-07
1.9059008e-07
1.9061092e-07
1.9062777e-07
1.9064251e-07
1.9065634e-07
1.9067016e-07
1.9068478e-07
1.9070111e-07
1.9071997e-07
1.9074355e-07
1.9076983e-07
1.9082069e-07
1.9081364e-07
1.9114106e-07
1.9050168e-07
1.8825688e-07
9.9938679e-10
2.4551091e-16
3.3669692e-17
1.7088274e-17
1.1538856e-17
8.8354747e-18
7.1906342e-18
6.0779847e-18
5.2645065e-18
4.6423191e-18
4.1498782e-18
3.7500811e-18
3.4187797e-18
3.1401149e-18
2.9027468e-18
2.6979575e-18
2.5193048e-18
2.3619222e-18
2.222147e-18
2.0971426e-18
1.9847795e-18
1.8832103e-18
1.7909834e-18
1.7068872e-18
1.6299161e-18
1.5592251e-18
1.4941193e-18
1.4339229e-18
1.3778438e-18
1.3255141e-18
1.2765165e-18
1.2304035e-18
1.1867907e-18
1.1456671e-18
1.1078963e-18
1.0739186e-18
1.0425088e-18
1.0132308e-18
9.8597417e-19
9.606525e-19
9.3719744e-19
9.1548381e-19
8.9546369e-19
8.7697324e-19
8.5987256e-19
8.4402153e-19
8.2882326e-19
8.1296188e-19
7.9601314e-19
7.8650944e-19
7.8313516e-19
7.8262392e-19
7.8533946e-19
7.9163948e-19
8.0209446e-19
8.1727505e-19
8.3748211e-19
8.6159158e-19
8.8357919e-19
9.2044957e-19
9.7771499e-19
1.0495103e-18
1.1394594e-18
1.2522215e-18
1.3938178e-18
1.5704396e-18
1.7814186e-18
2.0140068e-18
2.3631755e-18
2.8048494e-18
3.3582401e-18
4.0472442e-18
4.8946424e-18
5.9154131e-18
7.1119419e-18
8.4742842e-18
9.9423487e-18
1.139395e-17
1.2708208e-17
1.3817558e-17
1.4710173e-17
1.5435854e-17
1.6027363e-17
1.6521849e-17
1.6940947e-17
1.7292744e-17
1.7583489e-17
1.7819253e-17
1.8002074e-17
1.8130018e-17
1.8199804e-17
1.821341e-17
1.8179157e-17
1.8106947e-17
1.8006001e-17
1.7884018e-17
1.774726e-17
1.7600757e-17
1.7448222e-17
1.7292389e-17
1.7135263e-17
1.6978394e-17
1.6822819e-17
1.666922e-17
1.6517924e-17
1.6369131e-17
1.6223143e-17
1.6079249e-17
1.5937852e-17
1.5795917e-17
1.5652151e-17
1.5515943e-17
1.5317047e-17
1.9291654e-07
1.8967766e-07
1.8990433e-07
1.9022342e-07
1.9041072e-07
1.9050016e-07
1.9054653e-07
1.9057535e-07
1.9059627e-07
1.9061316e-07
1.9062795e-07
1.9064181e-07
1.9065566e-07
1.9067032e-07
1.9068667e-07
1.9070555e-07
1.9072916e-07
1.9075546e-07
1.9080635e-07
1.9079925e-07
1.9112676e-07
1.9048807e-07
1.8824363e-07
1.0231997e-09
2.9260982e-16
3.4340837e-17
1.7437942e-17
1.1783892e-17
9.0503685e-18
7.3912712e-18
6.2669543e-18
5.4430293e-18
4.8119211e-18
4.3094347e-18
3.9003706e-18
3.5613308e-18
3.2772689e-18
3.0368484e-18
2.830423e-18
2.6509412e-18
2.4930607e-18
2.352964e-18
2.227852e-18
2.1156463e-18
2.0145258e-18
1.9230458e-18
1.8399971e-18
1.7643763e-18
1.6953335e-18
1.6322036e-18
1.5741718e-18
1.5198764e-18
1.4691036e-18
1.4213632e-18
1.3759609e-18
1.332308e-18
1.2909055e-18
1.2549125e-18
1.2261387e-18
1.2011614e-18
1.1789536e-18
1.1594663e-18
1.1426934e-18
1.1286608e-18
1.1172069e-18
1.1083827e-18
1.1021702e-18
1.0985846e-18
1.0976247e-18
1.0986454e-18
1.0999252e-18
1.1009083e-18
1.1142834e-18
1.1389076e-18
1.17059e-18
1.2104837e-18
1.259863e-18
1.3204896e-18
1.3943255e-18
1.4830428e-18
1.5860078e-18
1.6930772e-18
1.8357522e-18
2.0276017e-18
2.2614673e-18
2.5481241e-18
2.9015077e-18
3.3398408e-18
3.8828152e-18
4.5380615e-18
5.2840016e-18
6.3393736e-18
7.6675022e-18
9.3275725e-18
1.1390789e-17
1.3925317e-17
1.6976546e-17
2.0553509e-17
2.4629702e-17
2.9030515e-17
3.3395786e-17
3.7363855e-17
4.0719158e-17
4.3428588e-17
4.5627991e-17
4.7422128e-17
4.8920571e-17
5.0189048e-17
5.125285e-17
5.2132013e-17
5.2845683e-17
5.3400301e-17
5.3790223e-17
5.4005536e-17
5.4052002e-17
5.3954663e-17
5.3743307e-17
5.3445595e-17
5.3084679e-17
5.2679389e-17
5.224476e-17
5.1791905e-17
5.1329068e-17
5.0862268e-17
5.0396109e-17
4.9933692e-17
4.9477094e-17
4.9027337e-17
4.8585012e-17
4.8151043e-17
4.7723235e-17
4.7303247e-17
4.688114e-17
4.6455645e-17
4.6050938e-17
4.545985e-17
1.9290909e-07
1.8965475e-07
1.8988383e-07
1.9020383e-07
1.9039175e-07
1.9048154e-07
1.9052809e-07
1.9055704e-07
1.9057804e-07
1.90595e-07
1.9060984e-07
1.9062375e-07
1.9063764e-07
1.9065233e-07
1.9066871e-07
1.9068763e-07
1.9071126e-07
1.9073758e-07
1.9078852e-07
1.9078134e-07
1.9110896e-07
1.9047113e-07
1.8822771e-07
1.0496657e-09
4.0816387e-16
3.7131385e-17
1.8876545e-17
1.2777246e-17
9.8779454e-18
8.1279519e-18
6.9371267e-18
6.0598261e-18
5.3855638e-18
4.8410998e-18
4.3950524e-18
4.0251936e-18
3.7180948e-18
3.4620728e-18
3.2447739e-18
3.0573348e-18
2.8930445e-18
2.7475752e-18
2.6181256e-18
2.5026744e-18
2.3994081e-18
2.3068561e-18
2.223781e-18
2.1491615e-18
2.0821193e-18
2.0220577e-18
1.9678102e-18
1.9176132e-18
1.8713921e-18
1.8287017e-18
1.7887664e-18
1.7509027e-18
1.7159138e-18
1.6883797e-18
1.6711274e-18
1.6596039e-18
1.6525413e-18
1.6500423e-18
1.6522906e-18
1.6595375e-18
1.6715255e-18
1.6885452e-18
1.7109554e-18
1.7391773e-18
1.7735885e-18
1.8135401e-18
1.8565754e-18
1.9020094e-18
1.9714428e-18
2.0642807e-18
2.1746374e-18
2.3056258e-18
2.4608194e-18
2.6449524e-18
2.8635048e-18
3.1217586e-18
3.421068e-18
3.7435637e-18
4.1522101e-18
4.6790569e-18
5.316564e-18
6.0933787e-18
7.0466594e-18
8.2253164e-18
9.6836988e-18
1.1455568e-17
1.3511279e-17
1.6338352e-17
1.9889623e-17
2.4325444e-17
2.9835878e-17
3.660333e-17
4.4750289e-17
5.4304158e-17
6.5200523e-17
7.6983585e-17
8.8701362e-17
9.9385598e-17
1.0843535e-16
1.1575831e-16
1.2169785e-16
1.2654263e-16
1.3058428e-16
1.3400094e-16
1.3686288e-16
1.3922656e-16
1.4114523e-16
1.42637e-16
1.4368714e-16
1.4426912e-16
1.4439828e-16
1.441418e-16
1.4357961e-16
1.4278582e-16
1.4182255e-16
1.4074031e-16
1.3957934e-16
1.3836941e-16
1.3713266e-16
1.3588521e-16
1.3463938e-16
1.3340346e-16
1.3218305e-16
1.3098091e-16
1.2979864e-16
1.2863872e-16
1.2749521e-16
1.2637292e-16
1.2524455e-16
1.241088e-16
1.2302724e-16
1.2144749e-16
1.9290004e-07
1.8962677e-07
1.898588e-07
1.9017992e-07
1.9036861e-07
1.9045881e-07
1.905056e-07
1.905347e-07
1.905558e-07
1.9057284e-07
1.9058775e-07
1.9060171e-07
1.9061565e-07
1.9063038e-07
1.9064681e-07
1.9066576e-07
1.9068943e-07
1.9071577e-07
1.9076677e-07
1.907595e-07
1.9108726e-07
1.9045045e-07
1.8820922e-07
1.0793536e-09
6.6085976e-16
4.443214e-17
2.2634534e-17
1.5366489e-17
1.2018966e-17
1.0021433e-17
8.6526954e-18
7.6351207e-18
6.8490274e-18
6.210149e-18
5.6843719e-18
5.2477898e-18
4.8864463e-18
4.587368e-18
4.335626e-18
4.1206162e-18
3.9332267e-18
3.7679541e-18
3.6218613e-18
3.4929448e-18
3.3793084e-18
3.2793451e-18
3.1916889e-18
3.1152244e-18
3.0489645e-18
2.9924335e-18
2.9436282e-18
2.899914e-18
2.8615045e-18
2.8280715e-18
2.7987001e-18
2.7725382e-18
2.7510112e-18
2.7415416e-18
2.7489963e-18
2.7666135e-18
2.7926854e-18
2.8276576e-18
2.8721461e-18
2.9269168e-18
2.9914881e-18
3.0667016e-18
3.1538247e-18
3.2542672e-18
3.3693522e-18
3.4986498e-18
3.6385243e-18
3.788358e-18
3.9876509e-18
4.2373365e-18
4.5287798e-18
4.8696324e-18
5.2688358e-18
5.7380323e-18
6.290962e-18
6.9416393e-18
7.6974317e-18
8.5271586e-18
9.5582249e-18
1.0862702e-17
1.2437378e-17
1.4352472e-17
1.6699227e-17
1.9598281e-17
2.3186221e-17
2.7567266e-17
3.2717947e-17
3.9678391e-17
4.8414684e-17
5.9324777e-17
7.2876296e-17
8.9518809e-17
1.0955611e-16
1.3306147e-16
1.5988851e-16
1.8893631e-16
2.1788159e-16
2.4433664e-16
2.6677643e-16
2.8496049e-16
2.9970116e-16
3.117221e-16
3.2174021e-16
3.3019897e-16
3.3727686e-16
3.4311858e-16
3.4785918e-16
3.5154517e-16
3.54141e-16
3.5558139e-16
3.5590413e-16
3.5527511e-16
3.5389158e-16
3.5193648e-16
3.4956309e-16
3.4689607e-16
3.4403471e-16
3.4105245e-16
3.3800392e-16
3.3492895e-16
3.3185786e-16
3.2881115e-16
3.2580262e-16
3.2283914e-16
3.1992462e-16
3.170652e-16
3.142462e-16
3.1147979e-16
3.0869803e-16
3.0589951e-16
3.0323341e-16
2.9933915e-16
1.9288921e-07
1.8959307e-07
1.8982868e-07
1.9015115e-07
1.9034075e-07
1.9043146e-07
1.9047854e-07
1.9050781e-07
1.9052904e-07
1.9054618e-07
1.9056117e-07
1.905752e-07
1.9058919e-07
1.9060398e-07
1.9062045e-07
1.9063945e-07
1.9066316e-07
1.9068954e-07
1.907406e-07
1.9073323e-07
1.9106114e-07
1.9042553e-07
1.8818836e-07
1.1129498e-09
1.1815899e-15
6.17937e-17
3.156107e-17
2.1506658e-17
1.7065526e-17
1.4457607e-17
1.2653357e-17
1.1295297e-17
1.0239022e-17
9.374548e-18
8.6593922e-18
8.0645698e-18
7.5738745e-18
7.1709391e-18
6.8351846e-18
6.5521894e-18
6.3074892e-18
6.0928733e-18
5.9049873e-18
5.7417741e-18
5.6010768e-18
5.4809286e-18
5.3796314e-18
5.2958222e-18
5.2282428e-18
5.1766559e-18
5.1372052e-18
5.1054806e-18
5.0822928e-18
5.0676155e-18
5.0603353e-18
5.0593395e-18
5.0672899e-18
5.0970455e-18
5.1573942e-18
5.2374891e-18
5.334885e-18
5.4507773e-18
5.5867271e-18
5.7446285e-18
5.9235078e-18
6.1254176e-18
6.353702e-18
6.6120398e-18
6.903964e-18
7.2299389e-18
7.5846713e-18
7.9683417e-18
8.4549676e-18
9.049344e-18
9.7388968e-18
1.0541285e-17
1.1477363e-17
1.2574044e-17
1.3863476e-17
1.5379581e-17
1.7145467e-17
1.9108695e-17
2.152379e-17
2.4546176e-17
2.8191397e-17
3.2621629e-17
3.8047873e-17
4.4750019e-17
5.3049405e-17
6.3223018e-17
7.5304636e-17
9.1429711e-17
1.1165956e-16
1.3692166e-16
1.6829955e-16
2.0683627e-16
2.5324012e-16
3.0769134e-16
3.6987311e-16
4.372733e-16
5.0454461e-16
5.6614474e-16
6.1845613e-16
6.6089221e-16
6.9527864e-16
7.233138e-16
7.4665847e-16
7.6634988e-16
7.828121e-16
7.9639113e-16
8.0740739e-16
8.1597231e-16
8.2200486e-16
8.2535389e-16
8.2610723e-16
8.2465016e-16
8.2144086e-16
8.169041e-16
8.1139591e-16
8.0520583e-16
7.9856434e-16
7.91642e-16
7.8456569e-16
7.7742792e-16
7.7029909e-16
7.6322675e-16
7.5624303e-16
7.4936386e-16
7.4259833e-16
7.3596073e-16
7.2941691e-16
7.2299542e-16
7.1653795e-16
7.1004288e-16
7.0385416e-16
6.9481444e-16
1.9287641e-07
1.8955288e-07
1.8979279e-07
1.9011689e-07
1.9030759e-07
1.903989e-07
1.9044633e-07
1.9047581e-07
1.9049719e-07
1.9051445e-07
1.9052952e-07
1.9054363e-07
1.905577e-07
1.9057255e-07
1.9058908e-07
1.9060813e-07
1.9063189e-07
1.906583e-07
1.9070945e-07
1.9070195e-07
1.9103006e-07
1.9039582e-07
1.8816547e-07
1.1512855e-09
2.2182245e-15
9.9605516e-17
5.0995179e-17
3.4866845e-17
2.8022925e-17
2.4069352e-17
2.1307462e-17
1.9202953e-17
1.7555405e-17
1.6200205e-17
1.5074372e-17
1.4136672e-17
1.3364836e-17
1.2734775e-17
1.2214306e-17
1.1781191e-17
1.1409667e-17
1.1085706e-17
1.0804974e-17
1.0565223e-17
1.0363679e-17
1.0197566e-17
1.0064441e-17
9.9623864e-18
9.8895451e-18
9.8461652e-18
9.8244578e-18
9.8165151e-18
9.8243659e-18
9.8487201e-18
9.8882473e-18
9.9414872e-18
1.0013499e-17
1.0127244e-17
1.029884e-17
1.0510156e-17
1.0757596e-17
1.1043947e-17
1.1372772e-17
1.1748359e-17
1.2168695e-17
1.2638406e-17
1.3165387e-17
1.3758304e-17
1.4425613e-17
1.51704e-17
1.5985486e-17
1.687388e-17
1.7974403e-17
1.9300945e-17
2.0836259e-17
2.2619301e-17
2.4696405e-17
2.7127049e-17
2.9982893e-17
3.3341348e-17
3.7263312e-17
4.1665129e-17
4.7045843e-17
5.3729791e-17
6.1788406e-17
7.1580037e-17
8.3571378e-17
9.8383101e-17
1.1673555e-16
1.3930352e-16
1.6631814e-16
2.0203223e-16
2.4682411e-16
3.0275788e-16
3.7223432e-16
4.5756696e-16
5.6033312e-16
6.809508e-16
8.187585e-16
9.6826078e-16
1.1176752e-15
1.2547039e-15
1.3711811e-15
1.4657503e-15
1.5423568e-15
1.6048003e-15
1.6567608e-15
1.7005538e-15
1.7371383e-15
1.7673003e-15
1.7917633e-15
1.810781e-15
1.8241763e-15
1.8316145e-15
1.8332908e-15
1.8300606e-15
1.8229408e-15
1.8128743e-15
1.8006516e-15
1.7869151e-15
1.7721766e-15
1.7568146e-15
1.7411108e-15
1.7252705e-15
1.7094499e-15
1.6937546e-15
1.6782559e-15
1.6629892e-15
1.6479748e-15
1.6332442e-15
1.6187217e-15
1.6044709e-15
1.59014e-15
1.5757269e-15
1.5619926e-15
1.5419312e-15
1.9286142e-07
1.8950535e-07
1.8975039e-07
1.9007643e-07
1.9026842e-07
1.9036046e-07
1.9040829e-07
1.9043802e-07
1.9045959e-07
1.9047698e-07
1.9049217e-07
1.9050637e-07
1.9052052e-07
1.9053544e-07
1.9055204e-07
1.9057115e-07
1.9059498e-07
1.9062143e-07
1.9067267e-07
1.9066503e-07
1.9099337e-07
1.9036067e-07
1.8814109e-07
1.1953732e-09
4.2356628e-15
1.7841867e-16
9.1498621e-17
6.2705315e-17
5.0836112e-17
4.4064846e-17
3.9299976e-17
3.5636183e-17
3.2754541e-17
3.0379347e-17
2.8401646e-17
2.6753089e-17
2.5397145e-17
2.429321e-17
2.3386064e-17
2.2638011e-17
2.2000171e-17
2.1446478e-17
2.0970495e-17
2.056952e-17
2.0239453e-17
1.9975802e-17
1.9774563e-17
1.9632645e-17
1.9546942e-17
1.9518694e-17
1.9531995e-17
1.957219e-17
1.9643756e-17
1.9749102e-17
1.9886814e-17
2.0055075e-17
2.026352e-17
2.0553513e-17
2.0954627e-17
2.1436077e-17
2.1992615e-17
2.2630322e-17
2.3356903e-17
2.4181595e-17
2.5100246e-17
2.6122823e-17
2.7266876e-17
2.8551688e-17
2.9996301e-17
3.161047e-17
3.3385928e-17
3.5333485e-17
3.7711422e-17
4.0554019e-17
4.3840719e-17
4.7654623e-17
5.2095117e-17
5.7289301e-17
6.3391318e-17
7.0570665e-17
7.8973948e-17
8.847685e-17
1.0004066e-16
1.1432543e-16
1.3154584e-16
1.5246774e-16
1.7808934e-16
2.0974098e-16
2.4898022e-16
2.973583e-16
3.5564514e-16
4.321162e-16
5.2800351e-16
6.4774406e-16
7.964808e-16
9.7917406e-16
1.1992169e-15
1.4575376e-15
1.7527914e-15
2.0733329e-15
2.3940391e-15
2.6885353e-15
2.939062e-15
3.1426086e-15
3.3074517e-15
3.4417938e-15
3.553518e-15
3.6476168e-15
3.7261779e-15
3.7909203e-15
3.8434179e-15
3.8842261e-15
3.9129698e-15
3.9289328e-15
3.9325343e-15
3.9256093e-15
3.9103398e-15
3.8887487e-15
3.8625313e-15
3.8330666e-15
3.801452e-15
3.7684996e-15
3.7348137e-15
3.700835e-15
3.6668984e-15
3.6332305e-15
3.5999843e-15
3.5672357e-15
3.5350282e-15
3.5034296e-15
3.4722773e-15
3.4417082e-15
3.4109668e-15
3.3800502e-15
3.3505889e-15
3.3075551e-15
1.92844e-07
1.8944951e-07
1.8970061e-07
1.9002897e-07
1.9022248e-07
1.9031537e-07
1.9036367e-07
1.9039371e-07
1.9041549e-07
1.9043305e-07
1.9044837e-07
1.9046268e-07
1.9047693e-07
1.9049194e-07
1.9050862e-07
1.905278e-07
1.905517e-07
1.905782e-07
1.9062955e-07
1.9062174e-07
1.9095036e-07
1.9031937e-07
1.8811601e-07
1.2464554e-09
8.0993658e-15
3.3847454e-16
1.7375468e-16
1.1923628e-16
9.7147667e-17
8.4644184e-17
7.5806763e-17
6.8974468e-17
6.3586275e-17
5.9146011e-17
5.5446282e-17
5.2361315e-17
4.9823103e-17
4.7756926e-17
4.6062705e-17
4.4672761e-17
4.3491877e-17
4.2469641e-17
4.1595303e-17
4.0865187e-17
4.0272464e-17
3.9809141e-17
3.9468026e-17
3.9243647e-17
3.9130356e-17
3.9131406e-17
3.9214466e-17
3.9352045e-17
3.9553473e-17
3.9824916e-17
4.0165424e-17
4.0573092e-17
4.1066175e-17
4.1719116e-17
4.2585874e-17
4.3614137e-17
4.4796555e-17
4.6145893e-17
4.7678266e-17
4.9412956e-17
5.1341498e-17
5.3484711e-17
5.5880164e-17
5.8569198e-17
6.1593018e-17
6.4977045e-17
6.8715609e-17
7.2838678e-17
7.7821986e-17
8.3743924e-17
9.0588062e-17
9.8527238e-17
1.0776907e-16
1.1857832e-16
1.3127779e-16
1.4622746e-16
1.6376071e-16
1.8371158e-16
2.0790485e-16
2.3765842e-16
2.7352486e-16
3.1709984e-16
3.7046447e-16
4.3639726e-16
5.1817473e-16
6.1921824e-16
7.4161446e-16
9.011898e-16
1.1012475e-15
1.3510766e-15
1.661414e-15
2.0426229e-15
2.5018121e-15
3.0409773e-15
3.6574385e-15
4.3271077e-15
4.9977441e-15
5.6142311e-15
6.1390256e-15
6.5656541e-15
6.9110897e-15
7.1925641e-15
7.4265367e-15
7.6234848e-15
7.7878277e-15
7.9232149e-15
8.0329748e-15
8.1182879e-15
8.1783789e-15
8.211754e-15
8.2192897e-15
8.2048221e-15
8.1729123e-15
8.1277883e-15
8.0729944e-15
8.0114124e-15
7.9453364e-15
7.8764639e-15
7.8060581e-15
7.7350398e-15
7.6641096e-15
7.5937407e-15
7.5242532e-15
7.4558056e-15
7.3884888e-15
7.3224449e-15
7.2573337e-15
7.1934415e-15
7.129189e-15
7.0645717e-15
7.0029948e-15
6.9130503e-15
1.9282391e-07
1.8938425e-07
1.8964251e-07
1.8997363e-07
1.901689e-07
1.9026278e-07
1.9031165e-07
1.9034205e-07
1.9036407e-07
1.9038182e-07
1.903973e-07
1.9041175e-07
1.9042611e-07
1.9044122e-07
1.90458e-07
1.9047727e-07
1.9050125e-07
1.9052781e-07
1.9057928e-07
1.9057127e-07
1.9090023e-07
1.9027109e-07
1.8809131e-07
1.3060687e-09
1.5410454e-14
6.5799692e-16
3.3797409e-16
2.3209448e-16
1.8959358e-16
1.6563987e-16
1.4866991e-16
1.3551238e-16
1.2512186e-16
1.1657111e-16
1.0944797e-16
1.0350833e-16
9.8617275e-17
9.4631092e-17
9.1363403e-17
8.8689086e-17
8.6421328e-17
8.4461258e-17
8.2789482e-17
8.1400338e-17
8.0281522e-17
7.9418035e-17
7.8796313e-17
7.8406124e-17
7.8236762e-17
7.829552e-17
7.8517309e-17
7.8850434e-17
7.9313741e-17
7.9921451e-17
8.0674625e-17
8.1572259e-17
8.2648732e-17
8.4037377e-17
8.583598e-17
8.7956253e-17
9.0388747e-17
9.315962e-17
9.6301801e-17
9.9854676e-17
1.0380119e-16
1.081839e-16
1.1308115e-16
1.1857924e-16
1.2476487e-16
1.3169841e-16
1.3938756e-16
1.4790624e-16
1.5812261e-16
1.7020798e-16
1.8417257e-16
2.0036896e-16
2.192222e-16
2.4127307e-16
2.6718384e-16
2.9770158e-16
3.3355502e-16
3.7456454e-16
4.2415475e-16
4.849196e-16
5.5816754e-16
6.4715861e-16
7.5614698e-16
8.9082091e-16
1.0579287e-15
1.2647877e-15
1.5164986e-15
1.8429452e-15
2.2521502e-15
2.7631692e-15
3.3979762e-15
4.1777939e-15
5.1172151e-15
6.2204245e-15
7.4821605e-15
8.8535183e-15
1.0227945e-14
1.1492546e-14
1.2569672e-14
1.3445742e-14
1.4154963e-14
1.4732784e-14
1.5212895e-14
1.5616836e-14
1.5953754e-14
1.6231227e-14
1.6456141e-14
1.6630947e-14
1.6754072e-14
1.6822462e-14
1.6837914e-14
1.6808286e-14
1.6742924e-14
1.665049e-14
1.6538244e-14
1.6412091e-14
1.627673e-14
1.613564e-14
1.5991408e-14
1.5845921e-14
1.5700614e-14
1.5556457e-14
1.5414106e-14
1.5273884e-14
1.5135979e-14
1.5000682e-14
1.4867295e-14
1.4736406e-14
1.4604778e-14
1.4472405e-14
1.4346258e-14
1.4161998e-14
1.9280089e-07
1.8930834e-07
1.8957501e-07
1.8990939e-07
1.901067e-07
1.9020175e-07
1.9025129e-07
1.902821e-07
1.9030442e-07
1.903224e-07
1.9033806e-07
1.9035266e-07
1.9036715e-07
1.9038238e-07
1.9039927e-07
1.9041864e-07
1.9044272e-07
1.9046934e-07
1.9052095e-07
1.9051271e-07
1.908421e-07
1.9021489e-07
1.8806849e-07
1.3761283e-09
2.9114704e-14
1.2882066e-15
6.6190411e-16
4.5471313e-16
3.7194369e-16
3.2540286e-16
2.9239336e-16
2.667631e-16
2.465105e-16
2.2987376e-16
2.1602327e-16
2.0447541e-16
1.9495663e-16
1.8718568e-16
1.8081149e-16
1.7559971e-16
1.7118433e-16
1.6737109e-16
1.6412354e-16
1.6143207e-16
1.5927356e-16
1.5761917e-16
1.5644276e-16
1.5572473e-16
1.5544441e-16
1.5561713e-16
1.5611318e-16
1.5683551e-16
1.5782145e-16
1.5910209e-16
1.606843e-16
1.6257069e-16
1.6482564e-16
1.6768663e-16
1.7132978e-16
1.7560764e-16
1.8051018e-16
1.8609008e-16
1.9241352e-16
1.9955966e-16
2.0749453e-16
2.1630375e-16
2.2614751e-16
2.3720249e-16
2.4964735e-16
2.6361769e-16
2.7916148e-16
2.9644916e-16
3.1705293e-16
3.4133591e-16
3.6939221e-16
4.0193026e-16
4.3980677e-16
4.8410961e-16
5.3617603e-16
5.9752901e-16
6.6971616e-16
7.5264892e-16
8.5270005e-16
9.7491997e-16
1.1222479e-15
1.3012435e-15
1.5204708e-15
1.7913952e-15
2.1276887e-15
2.5446382e-15
3.0539519e-15
3.7115393e-15
4.5357381e-15
5.5650243e-15
6.8436793e-15
8.4144942e-15
1.0306953e-14
1.2529663e-14
1.507241e-14
1.7837325e-14
2.0610317e-14
2.3163725e-14
2.5339658e-14
2.711017e-14
2.8543274e-14
2.9710726e-14
3.0680421e-14
3.1495932e-14
3.2175877e-14
3.273571e-14
3.3189432e-14
3.3542051e-14
3.379042e-14
3.3928386e-14
3.3959575e-14
3.3899839e-14
3.3768028e-14
3.3581613e-14
3.3355237e-14
3.3100811e-14
3.2827812e-14
3.2543257e-14
3.2252364e-14
3.1958939e-14
3.1665877e-14
3.1375133e-14
3.1088029e-14
3.0805223e-14
3.0527088e-14
3.0254212e-14
2.9985189e-14
2.9721204e-14
2.9455729e-14
2.9188752e-14
2.8934332e-14
2.8562705e-14
1.9277468e-07
1.8922038e-07
1.8949691e-07
1.8983512e-07
1.900348e-07
1.9013122e-07
1.9018153e-07
1.9021283e-07
1.9023549e-07
1.9025373e-07
1.9026961e-07
1.9028439e-07
1.9029904e-07
1.9031441e-07
1.9033142e-07
1.9035091e-07
1.903751e-07
1.9040179e-07
1.9045358e-07
1.9044506e-07
1.9077497e-07
1.9014963e-07
1.8804959e-07
1.4590401e-09
5.460402e-14
2.5201945e-15
1.2952342e-15
8.8997262e-16
7.2847635e-16
6.3778133e-16
5.7342107e-16
5.2341452e-16
4.8389084e-16
4.5148339e-16
4.2452379e-16
4.0205011e-16
3.8350665e-16
3.6834086e-16
3.5588903e-16
3.4571022e-16
3.3709041e-16
3.2964922e-16
3.2331684e-16
3.1807594e-16
3.138822e-16
3.1067976e-16
3.0841788e-16
3.0705867e-16
3.0656205e-16
3.0695914e-16
3.0799387e-16
3.0948447e-16
3.1150402e-16
3.141182e-16