/*--------------------------------*- C++ -*----------------------------------*\
| =========                 |                                                 |
| \\      /  F ield         | OpenFOAM: The Open Source CFD Toolbox           |
|  \\    /   O peration     | Version:  2206                                  |
|   \\  /    A nd           | Website:  www.openfoam.com                      |
|    \\/     M anipulation  |                                                 |
\*---------------------------------------------------------------------------*/
FoamFile
{
    version     2.0;
    format      ascii;
    arch        "LSB;label=32;scalar=64";
    class       volScalarField;
    location    "1600";
    object      omega;
}
// * * * * * * * * * * * * * * * * * * * * * * * * * * * * * * * * * * * * * //

dimensions      [0 0 -1 0 0 0 0];

internalField   nonuniform List<scalar> 
13056
(
466.01245
357.61217
350.6989
349.48811
349.30746
349.22769
349.16721
349.1261
349.10028
349.08571
349.08006
349.08218
349.09168
349.10877
349.13412
349.16968
349.2165
349.28417
349.36102
349.5286
349.61077
349.68141
362.03748
19552.316
1.1944345e+09
1.1944345e+09
1.1944345e+09
1.1944345e+09
1.1944345e+09
1.1944345e+09
1.1944345e+09
1.1944345e+09
1.1944345e+09
1.1944345e+09
1.1944345e+09
1.1944345e+09
1.1944345e+09
1.1944345e+09
1.1944345e+09
1.1944345e+09
1.1944345e+09
1.1944345e+09
1.1944345e+09
1.1944345e+09
1.1944345e+09
1.1944345e+09
1.1944345e+09
1.1944345e+09
1.1944345e+09
1.1944345e+09
1.1944345e+09
1.1944345e+09
1.1944345e+09
1.1944345e+09
1.1944345e+09
1.1944345e+09
1.1944345e+09
1.1944345e+09
1.1944345e+09
1.1944345e+09
1.1944345e+09
1.1944345e+09
1.1944345e+09
1.1944345e+09
1.1944345e+09
1.1944345e+09
1.1944345e+09
1.1944345e+09
1.1944345e+09
1.1944345e+09
1.1944345e+09
1.1944345e+09
1.1944345e+09
1.1944345e+09
1.1944345e+09
1.1944345e+09
1.1944345e+09
1.1944345e+09
1.1944345e+09
1.1944345e+09
1.1944345e+09
1.1944345e+09
1.1944345e+09
1.1944345e+09
1.1944345e+09
1.1944345e+09
1.1944345e+09
1.1944345e+09
1.1944345e+09
1.1944345e+09
1.1944345e+09
1.1944345e+09
1.1944345e+09
1.1944345e+09
1.1944345e+09
1.1944345e+09
1.1944345e+09
1.1944345e+09
1.1944345e+09
1.1944345e+09
1.1944345e+09
1.1944345e+09
1.1944345e+09
1.1944345e+09
1.1944345e+09
1.1944345e+09
1.1944345e+09
1.1944345e+09
1.1944345e+09
1.1944345e+09
1.1944345e+09
1.1944345e+09
1.1944345e+09
1.1944345e+09
1.1944345e+09
1.1944345e+09
1.1944345e+09
1.1944345e+09
1.1944345e+09
1.1944345e+09
1.1944345e+09
1.1944345e+09
1.1944345e+09
1.1944345e+09
1.1944345e+09
1.1944345e+09
1.1944345e+09
1.1944345e+09
1.1944345e+09
1.1944345e+09
1.1944345e+09
1.1944345e+09
1.1944345e+09
1.1944345e+09
1.1944345e+09
1.1944345e+09
465.99772
357.58119
350.66713
349.45588
349.27508
349.19528
349.13478
349.09366
349.06783
349.05325
349.0476
349.04972
349.05921
349.0763
349.10165
349.13721
349.18403
349.2517
349.32854
349.49613
349.57832
349.64872
362.00286
19262.118
1.9586946e+08
1.9626966e+08
1.9626965e+08
1.9626965e+08
1.9626966e+08
1.9626967e+08
1.9626968e+08
1.9626969e+08
1.962697e+08
1.9626971e+08
1.9626972e+08
1.9626973e+08
1.9626974e+08
1.9626975e+08
1.9626976e+08
1.9626977e+08
1.9626978e+08
1.9626979e+08
1.962698e+08
1.9626981e+08
1.9626982e+08
1.9626983e+08
1.9626985e+08
1.9626986e+08
1.9626988e+08
1.9626989e+08
1.9626991e+08
1.9626993e+08
1.9626995e+08
1.9626998e+08
1.9627001e+08
1.9627004e+08
1.9627008e+08
1.9627011e+08
1.9627015e+08
1.9627018e+08
1.9627022e+08
1.9627026e+08
1.9627031e+08
1.9627036e+08
1.9627042e+08
1.9627049e+08
1.9627056e+08
1.9627065e+08
1.9627075e+08
1.9627088e+08
1.9627104e+08
1.9627126e+08
1.9627144e+08
1.9627161e+08
1.9627181e+08
1.9627205e+08
1.9627233e+08
1.9627267e+08
1.9627309e+08
1.9627363e+08
1.9627441e+08
1.9627572e+08
1.9627688e+08
1.9627783e+08
1.9627898e+08
1.9628042e+08
1.9628224e+08
1.9628462e+08
1.9628799e+08
1.9629418e+08
1.9630634e+08
1.9631157e+08
1.9631775e+08
1.9632542e+08
1.963349e+08
1.9634657e+08
1.9636093e+08
1.9637891e+08
1.9640224e+08
1.9643289e+08
1.9647083e+08
1.9651188e+08
1.965472e+08
1.9657685e+08
1.965972e+08
1.9661217e+08
1.9662239e+08
1.9662913e+08
1.9663349e+08
1.9663648e+08
1.9663874e+08
1.9664056e+08
1.9664207e+08
1.9664327e+08
1.9664416e+08
1.966448e+08
1.9664524e+08
1.9664553e+08
1.966457e+08
1.966458e+08
1.9664584e+08
1.9664583e+08
1.9664578e+08
1.9664572e+08
1.9664563e+08
1.9664553e+08
1.9664542e+08
1.966453e+08
1.9664519e+08
1.9664508e+08
1.9664496e+08
1.966449e+08
1.9664475e+08
1.9664496e+08
1.9664488e+08
1.9664475e+08
465.95072
357.48415
350.56774
349.35511
349.17388
349.09395
349.0334
348.99224
348.96638
348.95179
348.94612
348.94823
348.95771
348.9748
349.00014
349.0357
349.08252
349.15018
349.22702
349.3946
349.47686
349.54653
361.89776
18924.824
64127669
64221381
64221372
64221374
64221389
64221408
64221428
64221448
64221469
64221512
64221564
64221614
64221653
64221676
64221689
64221701
64221712
64221723
64221735
64221749
64221763
64221779
64221796
64221815
64221837
64221862
64221890
64221938
64222004
64222096
64222224
64222402
64222616
64222778
64222833
64222866
64222902
64222943
64222991
64223045
64223107
64223180
64223290
64223468
64223745
64224224
64225124
64226543
64227211
64227349
64227512
64227708
64228025
64228491
64229254
64230712
64234192
64243552
64249374
64250222
64251370
64253011
64255567
64260179
64270816
64307611
64408065
64415816
64422477
64432222
64447018
64470437
64509057
64575318
64692098
64889867
65180143
65524696
65832801
66092964
66268339
66391648
66468710
66511810
66532656
66541580
66545123
66546522
66547155
66547506
66547729
66547879
66547980
66548045
66548085
66548107
66548115
66548112
66548102
66548088
66548069
66548046
66548020
66547994
66547969
66547943
66547915
66547903
66547869
66547917
66547899
66547868
465.86999
357.31791
350.3975
349.18253
349.00055
348.92041
348.85977
348.81855
348.79265
348.77803
348.77233
348.77442
348.78389
348.80097
348.8263
348.86186
348.90867
348.97633
349.05316
349.22071
349.30309
349.37152
361.71869
18568.142
29318304
29342743
29342736
29342747
29342802
29342876
29342954
29343033
29343119
29343326
29343572
29343817
29343999
29344094
29344141
29344174
29344205
29344238
29344274
29344314
29344357
29344406
29344461
29344524
29344597
29344681
29344779
29344980
29345274
29345693
29346302
29347163
29348202
29348971
29349173
29349249
29349336
29349437
29349556
29349697
29349867
29350072
29350455
29351162
29352355
29354560
29358901
29365891
29368945
29369191
29369487
29369863
29370743
29372246
29375103
29381317
29397670
29443982
29471709
29473329
29475819
29479955
29487608
29504177
29549364
29725213
30222889
30240014
30242262
30245551
30250537
30258436
30271479
30293829
30333198
30399810
30497442
30613117
30716362
30803400
30861999
30903166
30928879
30943254
30950206
30953182
30954363
30954830
30955041
30955158
30955232
30955282
30955316
30955338
30955351
30955358
30955361
30955360
30955357
30955352
30955346
30955338
30955329
30955321
30955312
30955304
30955294
30955290
30955279
30955295
30955289
30955279
465.75324
357.07755
350.15139
348.93302
348.74996
348.66953
348.60875
348.56744
348.54148
348.52681
348.52108
348.52314
348.53259
348.54966
348.57498
348.61052
348.65733
348.72498
348.8018
348.96931
349.05186
349.11852
361.46017
18196.056
16066817
16058137
16058144
16058183
16058360
16058601
16058854
16059116
16059399
16060100
16060939
16061771
16062387
16062704
16062853
16062952
16063046
16063146
16063255
16063375
16063509
16063660
16063832
16064029
16064257
16064525
16064838
16065502
16066485
16067899
16069965
16072896
16076434
16079043
16079691
16079904
16080148
16080436
16080778
16081190
16081690
16082304
16083518
16085835
16089804
16097240
16112008
16135866
16146150
16146732
16147439
16148361
16150946
16155578
16164508
16184465
16238881
16395942
16488151
16488847
16489914
16491686
16494965
16502065
16521418
16596647
16808745
16816018
16816973
16818371
16820489
16823846
16829387
16838881
16855598
16883867
16925264
16974254
17017929
17054709
17079453
17096827
17107675
17113738
17116670
17117925
17118424
17118620
17118709
17118759
17118790
17118811
17118825
17118834
17118840
17118843
17118844
17118844
17118843
17118840
17118838
17118835
17118831
17118827
17118824
17118820
17118816
17118814
17118810
17118816
17118814
17118809
465.59738
356.75642
349.82253
348.59963
348.41513
348.33429
348.27334
348.23191
348.20586
348.19113
348.18536
348.18738
348.1968
348.21385
348.23915
348.27469
348.32148
348.38913
348.46592
348.63339
348.71617
348.78047
361.11473
17807.526
9838573.8
9789598.1
9789641.4
9789742.7
9790195.3
9790815.8
9791475.1
9792162.1
9792906.6
9794794.2
9797062
9799309.6
9800967.2
9801802.9
9802179.3
9802415.5
9802639
9802876.5
9803136.3
9803424.6
9803748.6
9804116.1
9804537.1
9805023.6
9805591.2
9806262.8
9807052
9808795.3
9811409.4
9815192.3
9820752.2
9828666.8
9838237.4
9845255.7
9846899.5
9847336.9
9847842.7
9848446.7
9849176.4
9850070
9851170.8
9852548.6
9855518.3
9861444.9
9871815.2
9891570.1
9931254.3
9995673.7
10022811
10023163
10023513
10023970
10025252
10027549
10031976
10041866
10068819
10146462
10191919
10192262
10192788
10193661
10195277
10198776
10208311
10245345
10349475
10353034
10353502
10354187
10355225
10356870
10359585
10364235
10372423
10386263
10406517
10430468
10451803
10469758
10481831
10490304
10495594
10498550
10499979
10500591
10500834
10500930
10500973
10500997
10501013
10501023
10501030
10501034
10501037
10501039
10501039
10501039
10501038
10501037
10501036
10501034
10501033
10501031
10501029
10501027
10501025
10501025
10501022
10501025
10501024
10501022
465.39854
356.34613
349.40233
348.1736
347.98726
347.90591
347.84472
347.80315
347.77699
347.76218
347.75634
347.75833
347.76771
347.78473
347.81001
347.84553
347.89231
347.95995
348.03672
348.20413
348.28719
348.34849
360.67289
17400.088
6517304.6
6403588.1
6403703.5
6403923.1
6404903
6406261.3
6407719.7
6409251.8
6410923.4
6415302.6
6420582.3
6425813.7
6429645.9
6431528
6432316.3
6432765
6433177.4
6433617.7
6434103.5
6434648
6435265.9
6435974.2
6436793.7
6437751.4
6438881
6440232.7
6441839.9
6445676.7
6451543.3
6460138
6472892
6491165.7
6513302.2
6529336.2
6532562.5
6532817.9
6533093.7
6533422.9
6533820.7
6534307.7
6534907.7
6535658.7
6537278
6540508.2
6546159.3
6556920.5
6578520.8
6613528.5
6628244.2
6628435
6628625.2
6628873.1
6629568.8
6630814.9
6633217
6638582.9
6653198.9
6695243.2
6719801.2
6719986.5
6720270.6
6720742.5
6721615.7
6723505.6
6728656.5
6748651.5
6804753.2
6806664.9
6806916.8
6807285.4
6807843.9
6808728.8
6810189.4
6812691.3
6817095.2
6824537.1
6835423.2
6848288.6
6859742.3
6869376.2
6875851.8
6880395.7
6883231.6
6884816.4
6885582.6
6885910.5
6886040.7
6886092.1
6886115.3
6886128.3
6886136.4
6886142
6886145.7
6886148.1
6886149.5
6886150.3
6886150.6
6886150.5
6886150.2
6886149.6
6886148.9
6886148.1
6886147.1
6886146.2
6886145.2
6886144.3
6886143.3
6886142.8
6886141.6
6886143.3
6886142.7
6886141.5
465.15211
355.83658
348.88038
347.6444
347.45577
347.37377
347.3123
347.27053
347.24424
347.22933
347.22341
347.22534
347.23469
347.25167
347.27693
347.31243
347.35919
347.42682
347.50356
347.67089
347.75431
347.81191
360.12316
16970.873
4512727.4
4405715.1
4405940.6
4406337.9
4408123.4
4410641.1
4413387.9
4416310.9
4419533.5
4428562.8
4439514.8
4450347.4
4458149.1
4461725.8
4462906.1
4463295.5
4463550.8
4463808
4464090.5
4464407.1
4464766.4
4465178.3
4465654.8
4466211.7
4466868.5
4467654.4
4468588.8
4470820.8
4474231.4
4479226.6
4486636.2
4497245.6
4510084.5
4519370.6
4521235.6
4521383.5
4521543.3
4521734
4521964.5
4522246.7
4522594.3
4523029.4
4523968
4525839.6
4529113.5
4535346
4547848.8
4568085.3
4576574.5
4576684.5
4576794.3
4576937.5
4577339.3
4578058.9
4579445.9
4582544
4590980.5
4615221.3
4629350.5
4629457.2
4629620.7
4629892.3
4630394.8
4631482.6
4634447
4645949.8
4678168.6
4679263.1
4679407.6
4679619.1
4679939.5
4680447.2
4681285.2
4682720.5
4685246.5
4689514.2
4695755
4703127
4709687.3
4715203.1
4718909.6
4721509.9
4723132.6
4724039.3
4724477.7
4724665.3
4724739.8
4724769.2
4724782.5
4724789.9
4724794.6
4724797.7
4724799.8
4724801.2
4724802
4724802.5
4724802.7
4724802.6
4724802.4
4724802.1
4724801.7
4724801.2
4724800.7
4724800.1
4724799.6
4724799.1
4724798.5
4724798.2
4724797.5
4724798.5
4724798.1
4724797.5
464.85276
355.21598
348.24457
346.99969
346.80826
346.72546
346.66364
346.62165
346.59519
346.58015
346.57415
346.57601
346.5853
346.60225
346.62748
346.66295
346.70969
346.7773
346.854
347.02125
347.1051
347.15823
359.452
16517.045
3219521.6
3154290.7
3154404.9
3154644.4
3155730.3
3157262.2
3158933.4
3160711.7
3162672
3168158.7
3174814.2
3181393.6
3186130
3188300.8
3189017
3189253.3
3189408.2
3189564.3
3189735.7
3189927.8
3190145.9
3190395.8
3190685
3191022.9
3191421.5
3191898.4
3192465.4
3193820.8
3195890.3
3198920.8
3203414.7
3209845.6
3217621
3223237
3224362.6
3224452.1
3224548.8
3224664.2
3224803.7
3224974.4
3225184.8
3225448.1
3226016.4
3227149.1
3229130.2
3232901.1
3240461.9
3252685.6
3257803.3
3257869.6
3257935.9
3258022.3
3258264.9
3258699.2
3259536.4
3261406.2
3266496.9
3281110.6
3289611.8
3289676
3289774.5
3289938
3290240.5
3290895.4
3292679.9
3299602.8
3318964.7
3319620.3
3319707.1
3319834.1
3320026.6
3320331.4
3320834.6
3321696.5
3323213.2
3325775.1
3329520.4
3333943.1
3337877.4
3341184.2
3343406
3344964.3
3345936.7
3346480
3346742.7
3346855.1
3346899.7
3346917.3
3346925.3
3346929.7
3346932.6
3346934.4
3346935.7
3346936.5
3346937
3346937.3
3346937.4
3346937.4
3346937.3
3346937.1
3346936.8
3346936.5
3346936.2
3346935.9
3346935.6
3346935.2
3346934.9
3346934.7
3346934.3
3346934.9
3346934.7
3346934.3
464.49448
354.47084
347.48097
346.22536
346.03055
345.94679
345.88454
345.84227
345.81561
345.80043
345.79431
345.79609
345.80531
345.82221
345.8474
345.88286
345.92957
345.99716
346.07382
346.24096
346.32532
346.37314
358.64376
16036.001
2347375.2
2306275.8
2306321.9
2306469.7
2307150.2
2308111.1
2309159.5
2310275.1
2311504.8
2314942.8
2319114.3
2323236.3
2326202.5
2327561.6
2328010
2328157.9
2328254.9
2328352.6
2328459.9
2328580.2
2328716.7
2328873.2
2329054.3
2329265.8
2329515.3
2329813.9
2330168.9
2331018.1
2332313.8
2334211
2337023.4
2341046.2
2345906.1
2349411.6
2350112.7
2350168.5
2350228.9
2350301
2350388.1
2350494.8
2350626.2
2350790.7
2351145.9
2351853.5
2353091.2
2355446.6
2360167.4
2367791.9
2370977.7
2371019
2371060.3
2371114.2
2371265.4
2371536.1
2372058.1
2373223.7
2376396.6
2385498
2390782.6
2390822.6
2390883.8
2390985.5
2391173.7
2391581.1
2392691.3
2396997.1
2409024
2409429.9
2409483.8
2409562.7
2409682.2
2409871.4
2410183.8
2410718.9
2411660.3
2413250.4
2415574.4
2418317.9
2420757.8
2422807.9
2424185.2
2425151.1
2425753.7
2426090.4
2426253.2
2426322.8
2426350.5
2426361.4
2426366.3
2426369.1
2426370.8
2426372
2426372.8
2426373.3
2426373.6
2426373.8
2426373.8
2426373.8
2426373.7
2426373.6
2426373.5
2426373.3
2426373.1
2426372.9
2426372.7
2426372.5
2426372.3
2426372.2
2426371.9
2426372.3
2426372.1
2426371.9
464.07058
353.58595
346.57391
345.30545
345.10661
345.02169
344.95893
344.91633
344.88943
344.87406
344.86782
344.86949
344.87864
344.89548
344.92063
344.95605
345.00273
345.0703
345.14691
345.31394
345.39888
345.44049
357.68057
15525.5
1739315.2
1712742.7
1712744
1712836
1713271.8
1713888.2
1714561
1715276.9
1716066.1
1718270.3
1720945.6
1723588.3
1725489.4
1726360.3
1726647.5
1726742.3
1726804.4
1726867
1726935.8
1727012.8
1727100.3
1727200.5
1727316.6
1727452.1
1727612
1727803.3
1728030.8
1728575.4
1729405.8
1730621.4
1732423.2
1734999.3
1738109
1740349.2
1740796.2
1740831.9
1740870.5
1740916.7
1740972.4
1741040.6
1741124.7
1741229.9
1741457.2
1741909.9
1742701.6
1744208.1
1747226.6
1752097.2
1754128.5
1754154.8
1754181.1
1754215.5
1754312.1
1754485
1754818.3
1755562.6
1757588.4
1763395.7
1766761.5
1766786.9
1766826
1766890.8
1767010.8
1767270.5
1767978.2
1770722.6
1778379.2
1778636.9
1778671.2
1778721.3
1778797.4
1778917.8
1779116.6
1779457.1
1780056.1
1781067.8
1782546.1
1784290.8
1785842
1787145.2
1788020.5
1788634.4
1789017.3
1789231.3
1789334.7
1789378.9
1789396.5
1789403.5
1789406.6
1789408.3
1789409.4
1789410.2
1789410.7
1789411
1789411.2
1789411.3
1789411.4
1789411.3
1789411.3
1789411.2
1789411.1
1789411
1789410.9
1789410.8
1789410.6
1789410.5
1789410.4
1789410.3
1789410.1
1789410.4
1789410.3
1789410.1
463.57378
352.54436
345.50587
344.22216
344.01854
343.93223
343.86886
343.82586
343.79868
343.7831
343.7767
343.77825
343.78731
343.80408
343.82918
343.86456
343.91121
343.97876
344.05531
344.22221
344.30783
344.34226
356.54226
14983.786
1304534.7
1286988.2
1286957.7
1287014.4
1287297.9
1287699.9
1288139
1288606.4
1289121.6
1290559.3
1292305.1
1294029.1
1295269
1295836.9
1296024.1
1296085.9
1296126.4
1296167.1
1296212
1296262.2
1296319.2
1296384.6
1296460.2
1296548.6
1296652.9
1296777.6
1296925.9
1297281.4
1297823
1298615.8
1299790.6
1301469.7
1303495.2
1304952.4
1305242.5
1305265.7
1305290.9
1305320.9
1305357.2
1305401.6
1305456.3
1305524.8
1305673
1305967.8
1306483.3
1307464.4
1309429.4
1312597.4
1313916
1313933.1
1313950.2
1313972.6
1314035.4
1314147.8
1314364.5
1314848.5
1316165.8
1319939.5
1322122.8
1322139.3
1322164.7
1322206.7
1322284.6
1322453.3
1322912.8
1324694.7
1329660.5
1329827
1329849.3
1329881.8
1329931.1
1330009.2
1330138.1
1330358.8
1330747.2
1331403
1332361.1
1333491.7
1334496.7
1335340.8
1335907.7
1336305.2
1336553.2
1336691.8
1336758.7
1336787.4
1336798.8
1336803.3
1336805.3
1336806.4
1336807.2
1336807.6
1336808
1336808.2
1336808.3
1336808.4
1336808.4
1336808.4
1336808.4
1336808.3
1336808.2
1336808.2
1336808.1
1336808
1336807.9
1336807.8
1336807.7
1336807.7
1336807.6
1336807.7
1336807.7
1336807.6
462.99623
351.32735
344.25746
342.95575
342.74651
342.65857
342.59447
342.55101
342.52348
342.50766
342.50106
342.50247
342.51143
342.52812
342.55316
342.5885
342.6351
342.70263
342.77911
342.94587
343.03226
343.05853
355.20619
14409.695
987568.28
975768.81
975713.81
975747.59
975933.76
976199.13
976489.31
976798.32
977139.04
978089.19
979243.57
980383.29
981202.78
981578.02
981701.73
981742.49
981769.21
981796.13
981825.72
981858.9
981896.56
981939.75
981989.72
982048.13
982117.02
982199.46
982297.48
982532.65
982890.67
983414.7
984191.1
985300.41
986637.68
987598.47
987789.33
987804.63
987821.22
987841.03
987864.97
987894.29
987930.41
987975.62
988073.45
988268.07
988608.45
989256.05
990552.93
992642.11
993509.98
993521.21
993532.51
993547.24
993588.66
993662.78
993805.67
994124.79
994993.27
997480.05
998916.29
998927.17
998943.85
998971.57
999022.86
999133.91
999436.55
1000609.9
1003876.6
1003985.8
1004000.4
1004021.8
1004054.2
1004105.6
1004190.3
1004335.5
1004590.9
1005022.2
1005652.2
1006395.3
1007055.9
1007610.6
1007983.1
1008244.3
1008407.2
1008498.3
1008542.3
1008561.1
1008568.6
1008571.5
1008572.8
1008573.6
1008574.1
1008574.4
1008574.6
1008574.7
1008574.8
1008574.9
1008574.9
1008574.9
1008574.8
1008574.8
1008574.8
1008574.7
1008574.7
1008574.6
1008574.6
1008574.5
1008574.4
1008574.4
1008574.3
1008574.4
1008574.4
1008574.3
462.32953
349.91437
342.8074
341.48458
341.26874
341.17886
341.11392
341.0699
341.04197
341.02585
341.01904
341.02028
341.02911
341.04571
341.07068
341.10596
341.15252
341.22003
341.29643
341.46304
341.55029
341.56743
353.64717
13802.772
752997.73
744929
744853.48
744871.72
744994.53
745171.14
745364.64
745570.9
745798.44
746432.7
747203.79
747964.95
748512.13
748762.63
748845.16
748872.33
748890.12
748908.06
748927.78
748949.91
748975.04
749003.85
749037.2
749076.18
749122.17
749177.21
749242.65
749399.84
749638.96
749988.94
750507.41
751247.95
752140.1
752780.26
752907.12
752917.31
752928.37
752941.57
752957.54
752977.09
753001.17
753031.32
753096.62
753226.46
753453.55
753885.6
754750.62
756143.06
756720.37
756727.84
756735.36
756745.18
756772.78
756822.17
756917.4
757130.08
757708.86
759365.34
760320.41
760327.65
760338.75
760357.2
760391.34
760465.27
760666.75
761447.91
763620.52
763692.91
763702.62
763716.85
763738.4
763772.56
763828.93
763925.47
764095.31
764382.04
764800.86
765294.85
765733.87
766102.45
766349.99
766523.53
766631.78
766692.25
766721.48
766733.99
766738.96
766740.92
766741.81
766742.3
766742.61
766742.82
766742.97
766743.06
766743.11
766743.14
766743.15
766743.14
766743.13
766743.11
766743.08
766743.04
766743.01
766742.97
766742.93
766742.89
766742.85
766742.84
766742.79
766742.85
766742.83
766742.78
461.5649
348.28311
341.13244
339.78498
339.56142
339.46926
339.40332
339.35866
339.33027
339.3138
339.30673
339.30777
339.31645
339.33295
339.35783
339.39306
339.43957
339.50705
339.58337
339.74982
339.83803
339.84514
351.8373
13163.372
577363.41
571754.53
571660.49
571667.79
571748.63
571866.67
571996.49
572135.08
572288.12
572714.77
573233.86
573746.2
574114.45
574282.97
574338.44
574356.67
574368.59
574380.61
574393.85
574408.7
574425.59
574444.95
574467.38
574493.6
574524.53
574561.56
574605.6
574711.5
574872.49
575108.12
575457.14
575955.51
576555.55
576985.55
577070.55
577077.39
577084.82
577093.69
577104.42
577117.56
577133.75
577154.02
577197.96
577285.29
577438.04
577728.65
578310.39
579246.15
579633.37
579638.37
579643.42
579650.01
579668.56
579701.75
579765.74
579908.66
580297.61
581410.32
582050.78
582055.64
582063.09
582075.47
582098.39
582148.02
582283.3
582807.78
584265.15
584313.54
584320.05
584329.59
584344.05
584366.95
584404.76
584469.51
584583.43
584775.73
585056.58
585387.79
585682.11
585929.17
586095.09
586211.4
586283.95
586324.48
586344.07
586352.45
586355.78
586357.1
586357.69
586358.02
586358.23
586358.37
586358.47
586358.53
586358.56
586358.58
586358.59
586358.58
586358.57
586358.56
586358.54
586358.51
586358.49
586358.46
586358.43
586358.41
586358.38
586358.37
586358.33
586358.38
586358.36
586358.32
460.69322
346.40942
339.20739
337.8313
337.59873
337.50391
337.4368
337.39137
337.36244
337.34557
337.33819
337.33901
337.34752
337.36388
337.38867
337.42384
337.47028
337.53774
337.61397
337.78026
337.86951
337.86591
349.74581
12492.765
444648.87
440683.15
440571.29
440570.47
440623.06
440701.97
440789.3
440882.81
440986.23
441274.88
441626.42
441973.37
442222.68
442336.72
442374.21
442386.47
442394.48
442402.57
442411.48
442421.5
442432.89
442445.98
442461.13
442478.87
442499.8
442524.85
442554.66
442626.46
442735.52
442895.15
443131.58
443469.1
443875.24
444165.91
444223.22
444227.83
444232.85
444238.84
444246.09
444254.98
444265.93
444279.64
444309.39
444368.51
444471.91
444668.64
445062.39
445695.33
445956.73
445960.11
445963.51
445967.97
445980.51
446002.95
446046.23
446142.9
446406
447158.36
447590.7
447593.98
447599.01
447607.37
447622.86
447656.4
447747.83
448102.32
449086.48
449119.05
449123.44
449129.88
449139.64
449155.11
449180.64
449224.36
449301.29
449431.13
449620.75
449844.33
450042.99
450209.73
450321.71
450400.2
450449.16
450476.51
450489.74
450495.39
450497.64
450498.53
450498.93
450499.16
450499.3
450499.39
450499.45
450499.49
450499.52
450499.53
450499.53
450499.53
450499.52
450499.51
450499.49
450499.47
450499.46
450499.44
450499.42
450499.4
450499.38
450499.37
450499.35
450499.37
450499.36
450499.33
459.70522
344.2674
337.00511
335.59591
335.35282
335.25487
335.18639
335.14009
335.11052
335.09317
335.08544
335.08599
335.0943
335.11052
335.1352
335.17029
335.21667
335.28411
335.36024
335.52638
335.61674
335.6021
347.33904
11793.211
343642.05
340786.61
340656.78
340649.54
340682.77
340735.21
340793.9
340857.06
340927.12
341123.24
341362.36
341598.37
341767.94
341845.43
341870.84
341879.09
341884.46
341889.9
341895.91
341902.67
341910.38
341919.24
341929.52
341941.55
341955.77
341972.8
341993.06
342041.96
342116.2
342224.88
342385.82
342615.54
342891.8
343089.26
343128.09
343131.21
343134.61
343138.68
343143.59
343149.63
343157.06
343166.38
343186.62
343226.84
343297.19
343431.03
343698.9
344129.19
344306.57
344308.85
344311.16
344314.18
344322.7
344337.95
344367.37
344433.09
344611.98
345123.34
345416.7
345418.92
345422.33
345428.01
345438.52
345461.31
345523.43
345764.28
346432.41
346454.44
346457.42
346461.79
346468.41
346478.91
346496.24
346525.93
346578.15
346666.3
346795.01
346946.76
347081.58
347194.73
347270.71
347323.97
347357.19
347375.75
347384.72
347388.56
347390.09
347390.69
347390.97
347391.12
347391.21
347391.28
347391.32
347391.34
347391.36
347391.37
347391.37
347391.36
347391.35
347391.34
347391.33
347391.32
347391.3
347391.29
347391.28
347391.26
347391.25
347391.24
347391.22
347391.24
347391.23
347391.21
458.59168
341.82949
334.49661
333.04919
332.79387
332.69227
332.62219
332.57486
332.54454
332.52665
332.51851
332.51875
332.52683
332.54287
332.56743
332.60244
332.64875
332.71617
332.79219
332.95819
333.04971
333.02434
344.58029
11068.009
266330.14
264233.23
264084.63
264071.92
264091.62
264125.93
264165.11
264207.66
264255.1
264388.69
264551.85
264712.93
264828.62
264881.42
264898.65
264904.18
264907.75
264911.38
264915.41
264919.96
264925.17
264931.17
264938.15
264946.33
264956.01
264967.61
264981.42
265014.85
265065.57
265139.83
265249.81
265406.76
265595.41
265730.08
265756.48
265758.59
265760.9
265763.66
265767
265771.11
265776.17
265782.52
265796.35
265823.81
265871.85
265963.28
266146.23
266439.94
266560.78
266562.32
266563.89
266565.94
266571.75
266582.16
266602.23
266647.1
266769.21
267118.2
267318.08
267319.59
267321.91
267325.78
267332.95
267348.48
267390.86
267555.19
268010.68
268025.64
268027.67
268030.64
268035.16
268042.31
268054.13
268074.37
268109.98
268170.07
268257.82
268361.26
268453.16
268530.27
268582.06
268618.36
268641
268653.65
268659.76
268662.38
268663.42
268663.84
268664.02
268664.13
268664.19
268664.23
268664.26
268664.28
268664.28
268664.29
268664.29
268664.28
268664.27
268664.26
268664.25
268664.24
268664.23
268664.22
268664.21
268664.2
268664.18
268664.18
268664.16
268664.17
268664.17
268664.15
457.34371
339.06666
331.65116
330.15971
329.89018
329.78433
329.71239
329.66386
329.63268
329.61415
329.60553
329.60541
329.61322
329.62907
329.65348
329.68839
329.73463
329.80203
329.87794
330.04384
330.13654
330.10172
341.42985
10321.517
206888.49
205315.88
205147.3
205129.52
205139.5
205161.19
205186.93
205215.34
205247.32
205338.41
205449.94
205560.09
205639.17
205675.18
205686.83
205690.48
205692.81
205695.2
205697.87
205700.91
205704.41
205708.46
205713.18
205718.73
205725.32
205733.22
205742.65
205765.55
205800.3
205851.18
205926.56
206034.12
206163.34
206255.46
206273.46
206274.88
206276.44
206278.31
206280.58
206283.37
206286.83
206291.16
206300.63
206319.43
206352.34
206414.98
206540.33
206741.45
206824.03
206825.08
206826.14
206827.54
206831.51
206838.62
206852.36
206883.08
206966.72
207205.67
207342.3
207343.33
207344.91
207347.55
207352.45
207363.08
207392.08
207504.57
207816.12
207826.33
207827.71
207829.74
207832.82
207837.71
207845.8
207859.65
207884.01
207925.13
207985.16
208055.92
208118.78
208171.53
208206.95
208231.78
208247.27
208255.92
208260.1
208261.9
208262.61
208262.89
208263.02
208263.09
208263.14
208263.16
208263.18
208263.19
208263.19
208263.19
208263.19
208263.18
208263.18
208263.17
208263.16
208263.15
208263.14
208263.13
208263.12
208263.11
208263.09
208263.09
208263.08
208263.08
208263.07
208263.05
455.95306
335.94863
328.4365
326.89442
326.60843
326.49761
326.4235
326.37358
326.3414
326.32213
326.31295
326.31242
326.31991
326.33553
326.35978
326.39458
326.44073
326.50814
326.58393
326.74977
326.84361
326.80152
337.84573
9559.109
161023.5
159818.45
159628.31
159605.49
159608.19
159620.92
159637.26
159655.88
159677.19
159739.23
159815.47
159890.84
159944.91
159969.42
159977.24
159979.58
159981.04
159982.55
159984.28
159986.27
159988.58
159991.29
159994.46
159998.21
160002.67
160008.05
160014.48
160030.19
160054.03
160088.97
160140.74
160214.62
160303.33
160366.49
160378.78
160379.73
160380.77
160382.03
160383.57
160385.47
160387.82
160390.78
160397.26
160410.16
160432.76
160475.78
160561.88
160699.94
160756.52
160757.22
160757.94
160758.88
160761.6
160766.47
160775.89
160796.98
160854.4
161018.43
161112.07
161112.77
161113.85
161115.65
161119
161126.29
161146.19
161223.39
161437.07
161444.04
161444.98
161446.37
161448.48
161451.84
161457.39
161466.9
161483.62
161511.83
161553.02
161601.57
161644.7
161680.88
161705.19
161722.22
161732.85
161738.79
161741.66
161742.9
161743.39
161743.58
161743.67
161743.72
161743.75
161743.77
161743.78
161743.78
161743.78
161743.77
161743.77
161743.76
161743.75
161743.74
161743.73
161743.72
161743.71
161743.7
161743.69
161743.68
161743.67
161743.66
161743.65
161743.65
161743.64
161743.63
454.41258
332.44428
324.81914
323.21893
322.91388
322.79727
322.72064
322.66911
322.63576
322.61563
322.6058
322.60478
322.61192
322.62727
322.65133
322.68602
322.73208
322.79949
322.87517
323.04102
323.13588
323.08984
333.78362
8787.0909
125533.83
124591.42
124377.89
124349.72
124346.66
124352.84
124362.47
124374.19
124388.06
124430.12
124482.13
124533.62
124570.53
124587.13
124592.28
124593.69
124594.52
124595.41
124596.46
124597.71
124599.19
124600.96
124603.05
124605.55
124608.55
124612.19
124616.55
124627.32
124643.69
124667.7
124703.31
124754.14
124815.15
124858.52
124866.91
124867.53
124868.22
124869.05
124870.08
124871.36
124872.96
124874.97
124879.41
124888.27
124903.8
124933.4
124992.65
125087.62
125126.45
125126.92
125127.39
125128.02
125129.88
125133.22
125139.69
125154.18
125193.69
125306.52
125370.83
125371.3
125372.02
125373.25
125375.55
125380.55
125394.23
125447.33
125594.19
125598.96
125599.6
125600.55
125602
125604.31
125608.13
125614.67
125626.18
125645.6
125673.93
125707.33
125737
125761.89
125778.61
125790.33
125797.64
125801.73
125803.71
125804.56
125804.9
125805.04
125805.1
125805.13
125805.15
125805.16
125805.17
125805.16
125805.16
125805.15
125805.15
125805.14
125805.13
125805.12
125805.1
125805.09
125805.08
125805.07
125805.06
125805.05
125805.04
125805.03
125805.02
125805.01
125805
125804.98
452.71676
328.52219
320.76483
319.09797
318.77086
318.6475
318.56793
318.51453
318.47983
318.45869
318.44812
318.44654
318.45326
318.46831
318.49215
318.5267
318.57266
318.64011
318.71567
318.88163
318.97729
318.93208
329.19733
8012.5512
98010.178
97260.642
97021.724
96987.602
96979.691
96980.851
96985.556
96992.307