/*--------------------------------*- C++ -*----------------------------------*\
| =========                 |                                                 |
| \\      /  F ield         | OpenFOAM: The Open Source CFD Toolbox           |
|  \\    /   O peration     | Version:  2206                                  |
|   \\  /    A nd           | Website:  www.openfoam.com                      |
|    \\/     M anipulation  |                                                 |
\*---------------------------------------------------------------------------*/
FoamFile
{
    version     2.0;
    format      ascii;
    arch        "LSB;label=32;scalar=64";
    class       volScalarField;
    location    "1600";
    object      p;
}
// * * * * * * * * * * * * * * * * * * * * * * * * * * * * * * * * * * * * * //

dimensions      [0 2 -2 0 0 0 0];

internalField   nonuniform List<scalar> 
13056
(
0.012026222
0.012130389
0.012350688
0.012631682
0.012972165
0.013372407
0.013830527
0.014345728
0.014919353
0.015554648
0.016256635
0.017032471
0.017892043
0.01884935
0.019923354
0.021143515
0.022546418
0.024208982
0.026189953
0.028787048
0.03190741
0.037388965
0.042466318
0.08057462
0.05098983
0.0023226358
0.00098955722
0.0018619962
0.0024113227
0.0028589476
0.0031333714
0.0033258266
0.0034724398
0.0035787266
0.0036539878
0.0037081052
0.003747442
0.0037755968
0.0037949876
0.0038076339
0.0038149431
0.0038178735
0.0038172312
0.0038136687
0.0038076157
0.0037993918
0.0037892936
0.0037775445
0.0037643314
0.0037497798
0.0037339812
0.0037170209
0.0036989601
0.0036798539
0.0036597455
0.0036386388
0.0036165323
0.0035934295
0.0035693229
0.0035441943
0.0035180232
0.0034907831
0.0034624178
0.0034328582
0.0034020355
0.0033698754
0.0033363039
0.003301237
0.0032645876
0.0032262722
0.0031861892
0.0031442172
0.0031002367
0.0030541354
0.0030057945
0.0029551346
0.0029020899
0.0028466787
0.0027889309
0.0027288234
0.0026665398
0.0026022788
0.0025363318
0.0024694593
0.0024028329
0.0023381901
0.002277957
0.0022261723
0.0021875455
0.0021603619
0.0021647064
0.0022041005
0.0022720821
0.0023864189
0.0025518078
0.0027702249
0.0030377228
0.0033454271
0.0036888509
0.0040274337
0.0043081901
0.0044864556
0.0045761005
0.004562633
0.0044618945
0.0043410841
0.0042005891
0.0040504125
0.003897384
0.0037411882
0.0035847669
0.0034265761
0.0032628082
0.0030976236
0.0029327891
0.0027693869
0.0026094799
0.0024522908
0.0022962674
0.0021443852
0.0019966231
0.0018513456
0.0017088686
0.0015707931
0.0014371912
0.0013065624
0.0011795111
0.0010567196
0.0009404032
0.0008302306
0.0007286394
0.00063208797
0.00056969858
0.00048264996
0.00066790671
-0.00051350808
0.012026222
0.012130389
0.012350688
0.012631682
0.012972165
0.013372408
0.013830527
0.014345728
0.014919354
0.015554648
0.016256635
0.017032471
0.017892043
0.018849351
0.019923355
0.021143517
0.02254642
0.024208984
0.026189956
0.028787052
0.031907416
0.037388976
0.042466347
0.080569829
0.051001062
0.0023298313
0.00099139938
0.0018628303
0.0024118337
0.002859307
0.0031336431
0.0033260425
0.0034726167
0.0035788747
0.0036541142
0.0037082146
0.0037475379
0.0037756816
0.0037950633
0.0038077019
0.0038150046
0.0038179294
0.0038172822
0.0038137155
0.0038076587
0.0037994315
0.0037893304
0.0037775786
0.0037643632
0.0037498095
0.0037340089
0.0037170469
0.0036989845
0.0036798768
0.003659767
0.0036386591
0.0036165514
0.0035934477
0.00356934
0.0035442105
0.0035180386
0.0034907976
0.0034624316
0.0034328713
0.0034020479
0.0033698872
0.0033363151
0.0033012476
0.0032645978
0.0032262818
0.0031861983
0.0031442259
0.003100245
0.0030541432
0.0030058019
0.0029551416
0.0029020965
0.0028466849
0.0027889368
0.0027288289
0.0026665449
0.0026022835
0.0025363361
0.0024694633
0.0024028365
0.0023381932
0.0022779597
0.0022261745
0.0021875472
0.002160363
0.0021647067
0.0022041002
0.002272081
0.0023864169
0.0025518048
0.002770221
0.0030377181
0.0033454217
0.0036888449
0.0040274275
0.0043081841
0.0044864504
0.0045760962
0.00456263
0.0044618923
0.0043410825
0.004200588
0.0040504118
0.0038973835
0.0037411879
0.0035847668
0.0034265761
0.0032628083
0.0030976238
0.0029327894
0.0027693872
0.0026094803
0.0024522912
0.0022962678
0.0021443857
0.0019966236
0.0018513461
0.0017088691
0.0015707936
0.0014371917
0.0013065629
0.0011795116
0.0010567201
0.00094040367
0.00083023106
0.00072863987
0.00063208843
0.00056969909
0.00048265049
0.00066790726
-0.00051350773
0.012026222
0.012130389
0.012350688
0.012631682
0.012972165
0.013372408
0.013830527
0.014345728
0.014919354
0.015554648
0.016256635
0.017032472
0.017892044
0.018849352
0.019923356
0.021143518
0.022546422
0.024208987
0.026189959
0.028787057
0.031907422
0.037388988
0.042466367
0.080564994
0.051016488
0.0023368178
0.00099358409
0.0018638275
0.0024124448
0.0028597367
0.003133968
0.0033263008
0.0034728282
0.0035790519
0.0036542654
0.0037083456
0.0037476527
0.0037757831
0.0037951538
0.0038077832
0.0038150781
0.0038179962
0.0038173432
0.0038137714
0.0038077102
0.003799479
0.0037893744
0.0037776195
0.0037644012
0.0037498449
0.0037340421
0.003717078
0.0036990136
0.0036799043
0.0036597928
0.0036386835
0.0036165744
0.0035934693
0.0035693605
0.0035442299
0.0035180569
0.003490815
0.0034624481
0.003432887
0.0034020628
0.0033699013
0.0033363285
0.0033012604
0.0032646099
0.0032262933
0.0031862092
0.0031442363
0.0031002548
0.0030541526
0.0030058108
0.00295515
0.0029021045
0.0028466924
0.0027889438
0.0027288355
0.002666551
0.0026022892
0.0025363414
0.002469468
0.0024028407
0.002338197
0.0022779629
0.0022261771
0.0021875493
0.0021603643
0.0021647071
0.0022040998
0.0022720796
0.0023864145
0.0025518013
0.0027702164
0.0030377125
0.0033454152
0.0036888378
0.00402742
0.004308177
0.0044864442
0.004576091
0.0045626264
0.0044618897
0.0043410807
0.0042005868
0.004050411
0.003897383
0.0037411876
0.0035847667
0.0034265761
0.0032628084
0.003097624
0.0029327897
0.0027693876
0.0026094808
0.0024522918
0.0022962684
0.0021443863
0.0019966242
0.0018513467
0.0017088697
0.0015707942
0.0014371922
0.0013065635
0.0011795121
0.0010567206
0.00094040423
0.00083023161
0.00072864042
0.00063208898
0.00056969969
0.00048265113
0.00066790793
-0.00051350732
0.012026222
0.012130389
0.012350688
0.012631682
0.012972165
0.013372408
0.013830527
0.014345729
0.014919354
0.015554649
0.016256636
0.017032472
0.017892045
0.018849353
0.019923357
0.02114352
0.022546424
0.02420899
0.026189962
0.028787062
0.031907427
0.037388998
0.042466387
0.080560284
0.051033701
0.0023419793
0.00099563949
0.0018648045
0.0024130436
0.0028601578
0.0031342863
0.0033265538
0.0034730354
0.0035792254
0.0036544134
0.0037084738
0.003747765
0.0037758826
0.0037952425
0.0038078629
0.0038151501
0.0038180616
0.003817403
0.0038138262
0.0038077606
0.0037995256
0.0037894175
0.0037776595
0.0037644385
0.0037498797
0.0037340746
0.0037171084
0.0036990422
0.0036799311
0.0036598181
0.0036387073
0.0036165968
0.0035934905
0.0035693806
0.0035442489
0.0035180749
0.0034908321
0.0034624643
0.0034329023
0.0034020773
0.0033699152
0.0033363417
0.0033012728
0.0032646217
0.0032263046
0.00318622
0.0031442465
0.0031002645
0.0030541617
0.0030058195
0.0029551582
0.0029021122
0.0028466997
0.0027889507
0.0027288419
0.002666557
0.0026022948
0.0025363465
0.0024694727
0.0024028449
0.0023382007
0.0022779661
0.0022261797
0.0021875512
0.0021603655
0.0021647075
0.0022040994
0.0022720782
0.0023864121
0.0025517979
0.0027702119
0.003037707
0.0033454089
0.0036888308
0.0040274127
0.0043081701
0.004486438
0.0045760862
0.0045626229
0.0044618871
0.004341079
0.0042005856
0.0040504101
0.0038973825
0.0037411873
0.0035847665
0.0034265761
0.0032628085
0.0030976242
0.00293279
0.002769388
0.0026094813
0.0024522923
0.0022962689
0.0021443869
0.0019966248
0.0018513473
0.0017088703
0.0015707948
0.0014371928
0.0013065641
0.0011795127
0.0010567212
0.00094040478
0.00083023215
0.00072864097
0.00063208952
0.00056970028
0.00048265173
0.00066790858
-0.00051350693
0.012026222
0.012130389
0.012350688
0.012631682
0.012972166
0.013372408
0.013830528
0.014345729
0.014919355
0.015554649
0.016256636
0.017032473
0.017892046
0.018849354
0.019923359
0.021143521
0.022546426
0.024208992
0.026189965
0.028787066
0.031907433
0.037389007
0.04246641
0.08055524
0.051052018
0.0023477056
0.00099771825
0.0018658047
0.0024136566
0.0028605889
0.0031346123
0.0033268128
0.0034732475
0.0035794031
0.0036545651
0.0037086051
0.0037478801
0.0037759844
0.0037953333
0.0038079445
0.0038152238
0.0038181287
0.0038174641
0.0038138822
0.0038078122
0.0037995732
0.0037894617
0.0037777005
0.0037644766
0.0037499153
0.0037341079
0.0037171396
0.0036990715
0.0036799586
0.003659844
0.0036387317
0.0036166199
0.0035935123
0.0035694011
0.0035442683
0.0035180933
0.0034908496
0.0034624809
0.003432918
0.0034020923
0.0033699293
0.0033363551
0.0033012856
0.0032646339
0.0032263162
0.0031862309
0.0031442569
0.0031002744
0.0030541711
0.0030058283
0.0029551666
0.0029021202
0.0028467072
0.0027889577
0.0027288485
0.0026665631
0.0026023004
0.0025363517
0.0024694774
0.0024028492
0.0023382045
0.0022779693
0.0022261823
0.0021875533
0.0021603667
0.0021647079
0.002204099
0.0022720768
0.0023864097
0.0025517944
0.0027702073
0.0030377013
0.0033454024
0.0036888236
0.0040274052
0.004308163
0.0044864318
0.0045760813
0.0045626193
0.0044618844
0.0043410772
0.0042005843
0.0040504093
0.0038973819
0.003741187
0.0035847664
0.0034265761
0.0032628086
0.0030976245
0.0029327903
0.0027693884
0.0026094817
0.0024522928
0.0022962695
0.0021443874
0.0019966253
0.0018513479
0.0017088709
0.0015707954
0.0014371934
0.0013065647
0.0011795133
0.0010567218
0.00094040534
0.00083023271
0.00072864152
0.00063209007
0.00056970088
0.00048265233
0.00066790925
-0.00051350653
0.012026222
0.012130389
0.012350688
0.012631682
0.012972166
0.013372408
0.013830528
0.014345729
0.014919355
0.01555465
0.016256637
0.017032474
0.017892047
0.018849355
0.01992336
0.021143523
0.022546428
0.024208995
0.026189969
0.028787071
0.031907439
0.037389016
0.042466437
0.08054964
0.051071115
0.0023548457
0.00099992883
0.0018668669
0.0024143078
0.0028610469
0.0031349585
0.003327088
0.0034734729
0.0035795918
0.0036547261
0.0037087446
0.0037480023
0.0037760925
0.0037954298
0.0038080311
0.0038153022
0.0038181998
0.0038175291
0.0038139418
0.003807867
0.0037996238
0.0037895085
0.003777744
0.0037645172
0.0037499531
0.0037341433
0.0037171727
0.0036991026
0.0036799878
0.0036598715
0.0036387576
0.0036166443
0.0035935354
0.0035694229
0.003544289
0.0035181129
0.0034908681
0.0034624984
0.0034329347
0.0034021081
0.0033699444
0.0033363694
0.0033012992
0.0032646468
0.0032263284
0.0031862426
0.003144268
0.0031002849
0.0030541811
0.0030058378
0.0029551755
0.0029021286
0.0028467151
0.0027889652
0.0027288555
0.0026665697
0.0026023065
0.0025363572
0.0024694825
0.0024028537
0.0023382085
0.0022779727
0.0022261851
0.0021875554
0.002160368
0.0021647083
0.0022040985
0.0022720753
0.0023864071
0.0025517906
0.0027702024
0.0030376954
0.0033453955
0.003688816
0.0040273973
0.0043081554
0.0044864251
0.004576076
0.0045626154
0.0044618816
0.0043410752
0.004200583
0.0040504084
0.0038973813
0.0037411867
0.0035847662
0.0034265761
0.0032628088
0.0030976247
0.0029327907
0.0027693888
0.0026094822
0.0024522933
0.0022962701
0.0021443881
0.001996626
0.0018513485
0.0017088715
0.001570796
0.001437194
0.0013065653
0.0011795139
0.0010567224
0.00094040594
0.0008302333
0.00072864211
0.00063209066
0.00056970153
0.00048265297
0.00066790996
-0.00051350611
0.012026222
0.012130389
0.012350688
0.012631683
0.012972166
0.013372408
0.013830528
0.014345729
0.014919355
0.01555465
0.016256638
0.017032475
0.017892048
0.018849356
0.019923361
0.021143525
0.022546431
0.024208998
0.026189973
0.028787076
0.031907445
0.037389025
0.042466469
0.080543374
0.051091216
0.0023627382
0.0010023108
0.0018680102
0.0024150088
0.0028615398
0.0031353311
0.0033273842
0.0034737155
0.0035797949
0.0036548995
0.0037088948
0.0037481339
0.0037762089
0.0037955336
0.0038081244
0.0038153865
0.0038182764
0.0038175991
0.0038140059
0.003807926
0.0037996783
0.003789559
0.0037777909
0.0037645608
0.0037499938
0.0037341813
0.0037172084
0.003699136
0.0036800192
0.0036599011
0.0036387854
0.0036166706
0.0035935602
0.0035694464
0.0035443112
0.003518134
0.003490888
0.0034625174
0.0034329527
0.0034021251
0.0033699606
0.0033363848
0.0033013138
0.0032646607
0.0032263416
0.0031862551
0.0031442799
0.0031002962
0.0030541918
0.0030058479
0.0029551851
0.0029021377
0.0028467237
0.0027889732
0.0027288631
0.0026665767
0.002602313
0.0025363632
0.0024694879
0.0024028586
0.0023382128
0.0022779764
0.0022261881
0.0021875578
0.0021603694
0.0021647087
0.0022040981
0.0022720737
0.0023864044
0.0025517866
0.0027701971
0.0030376889
0.0033453881
0.0036888078
0.0040273888
0.0043081473
0.004486418
0.0045760704
0.0045626113
0.0044618786
0.0043410732
0.0042005816
0.0040504074
0.0038973807
0.0037411863
0.0035847661
0.0034265761
0.0032628089
0.003097625
0.002932791
0.0027693893
0.0026094828
0.0024522939
0.0022962707
0.0021443887
0.0019966267
0.0018513492
0.0017088722
0.0015707967
0.0014371947
0.0013065659
0.0011795145
0.001056723
0.00094040658
0.00083023393
0.00072864275
0.00063209129
0.00056970222
0.00048265367
0.00066791072
-0.00051350566
0.012026222
0.012130389
0.012350688
0.012631683
0.012972166
0.013372409
0.013830528
0.01434573
0.014919356
0.015554651
0.016256638
0.017032475
0.017892049
0.018849358
0.019923363
0.021143527
0.022546433
0.024209002
0.026189977
0.028787082
0.031907453
0.037389034
0.042466508
0.080536308
0.051112592
0.0023712134
0.0010048934
0.0018692497
0.002415769
0.0028620744
0.0031357353
0.0033277054
0.0034739785
0.0035800152
0.0036550875
0.0037090576
0.0037482766
0.0037763351
0.0037956462
0.0038082255
0.0038154779
0.0038183595
0.0038176749
0.0038140755
0.00380799
0.0037997374
0.0037896137
0.0037778417
0.0037646081
0.003750038
0.0037342226
0.003717247
0.0036991723
0.0036800533
0.0036599331
0.0036388157
0.0036166991
0.0035935871
0.0035694719
0.0035443353
0.0035181568
0.0034909097
0.0034625379
0.0034329722
0.0034021436
0.0033699781
0.0033364015
0.0033013297
0.0032646758
0.0032263559
0.0031862687
0.0031442928
0.0031003084
0.0030542034
0.003005859
0.0029551955
0.0029021475
0.002846733
0.002788982
0.0027288712
0.0026665843
0.00260232
0.0025363697
0.0024694939
0.0024028639
0.0023382175
0.0022779804
0.0022261913
0.0021875603
0.002160371
0.0021647092
0.0022040976
0.002272072
0.0023864013
0.0025517822
0.0027701914
0.0030376819
0.0033453801
0.0036887989
0.0040273795
0.0043081384
0.0044864102
0.0045760643
0.0045626068
0.0044618753
0.0043410709
0.00420058
0.0040504064
0.00389738
0.0037411859
0.0035847659
0.0034265761
0.003262809
0.0030976253
0.0029327915
0.0027693898
0.0026094834
0.0024522946
0.0022962714
0.0021443894
0.0019966274
0.0018513499
0.001708873
0.0015707975
0.0014371955
0.0013065667
0.0011795153
0.0010567237
0.00094040728
0.00083023462
0.00072864344
0.00063209197
0.00056970296
0.00048265442
0.00066791155
-0.00051350517
0.012026222
0.012130389
0.012350688
0.012631683
0.012972166
0.013372409
0.013830529
0.01434573
0.014919356
0.015554651
0.016256639
0.017032477
0.01789205
0.018849359
0.019923365
0.02114353
0.022546436
0.024209006
0.026189982
0.028787088
0.031907461
0.037389042
0.042466554
0.08052827
0.051135472
0.0023804035
0.0010077128
0.0018706034
0.0024165994
0.0028626584
0.0031361768
0.0033280562
0.0034742658
0.0035802558
0.0036552928
0.0037092354
0.0037484324
0.003776473
0.0037957691
0.003808336
0.0038155777
0.0038184502
0.0038177577
0.0038141514
0.0038080599
0.0037998019
0.0037896735
0.0037778972
0.0037646598
0.0037500862
0.0037342677
0.0037172892
0.0036992119
0.0036800906
0.0036599682
0.0036388487
0.0036167303
0.0035936166
0.0035694997
0.0035443617
0.0035181817
0.0034909333
0.0034625603
0.0034329934
0.0034021638
0.0033699973
0.0033364197
0.003301347
0.0032646922
0.0032263716
0.0031862836
0.0031443069
0.0031003218
0.0030542161
0.003005871
0.0029552069
0.0029021583
0.0028467431
0.0027889915
0.0027288801
0.0026665926
0.0026023277
0.0025363768
0.0024695003
0.0024028697
0.0023382226
0.0022779848
0.0022261949
0.002187563
0.0021603726
0.0021647097
0.002204097
0.0022720701
0.0023863981
0.0025517774
0.0027701851
0.0030376743
0.0033453713
0.0036887891
0.0040273694
0.0043081288
0.0044864018
0.0045760577
0.0045626019
0.0044618717
0.0043410685
0.0042005783
0.0040504053
0.0038973793
0.0037411855
0.0035847657
0.0034265761
0.0032628092
0.0030976256
0.0029327919
0.0027693904
0.002609484
0.0024522953
0.0022962721
0.0021443902
0.0019966282
0.0018513508
0.0017088738
0.0015707983
0.0014371963
0.0013065675
0.001179516
0.0010567245
0.00094040804
0.00083023537
0.00072864419
0.00063209272
0.00056970378
0.00048265524
0.00066791245
-0.00051350463
0.012026222
0.01213039
0.012350688
0.012631683
0.012972166
0.013372409
0.013830529
0.014345731
0.014919357
0.015554652
0.01625664
0.017032478
0.017892051
0.018849361
0.019923367
0.021143532
0.02254644
0.02420901
0.026189987
0.028787095
0.03190747
0.037389051
0.042466609
0.08051905
0.051160065
0.0023904709
0.0010108107
0.0018720913
0.0024175123
0.0028633004
0.0031366621
0.0033284419
0.0034745817
0.0035805203
0.0036555185
0.0037094309
0.0037486037
0.0037766245
0.0037959043
0.0038084574
0.0038156875
0.00381855
0.0038178488
0.0038142349
0.0038081367
0.0037998728
0.0037897392
0.0037779582
0.0037647165
0.0037501392
0.0037343172
0.0037173357
0.0036992554
0.0036801315
0.0036600067
0.003638885
0.0036167645
0.0035936489
0.0035695303
0.0035443906
0.0035182091
0.0034909593
0.0034625849
0.0034330168
0.003402186
0.0033700184
0.0033364397
0.003301366
0.0032647103
0.0032263888
0.0031862999
0.0031443224
0.0031003365
0.0030542301
0.0030058842
0.0029552194
0.0029021701
0.0028467542
0.002789002
0.0027288899
0.0026666017
0.0026023362
0.0025363846
0.0024695074
0.0024028761
0.0023382282
0.0022779896
0.0022261988
0.0021875661
0.0021603744
0.0021647103
0.0022040964
0.002272068
0.0023863945
0.0025517722
0.0027701782
0.0030376659
0.0033453616
0.0036887785
0.0040273583
0.0043081182
0.0044863925
0.0045760503
0.0045625965
0.0044618678
0.0043410658
0.0042005765
0.004050404
0.0038973785
0.003741185
0.0035847655
0.0034265761
0.0032628094
0.0030976259
0.0029327924
0.002769391
0.0026094847
0.002452296
0.002296273
0.0021443911
0.0019966291
0.0018513516
0.0017088747
0.0015707992
0.0014371971
0.0013065683
0.0011795169
0.0010567253
0.00094040887
0.00083023619
0.00072864502
0.00063209354
0.00056970468
0.00048265614
0.00066791344
-0.00051350404
0.012026222
0.01213039
0.012350689
0.012631683
0.012972167
0.01337241
0.01383053
0.014345731
0.014919358
0.015554653
0.016256641
0.017032479
0.017892053
0.018849363
0.01992337
0.021143536
0.022546444
0.024209015
0.026189993
0.028787102
0.03190748
0.037389058
0.042466675
0.0805084
0.051186569
0.0024015665
0.0010142332
0.0018737356
0.0024185214
0.0028640101
0.0031371986
0.0033288682
0.0034749308
0.0035808127
0.003655768
0.003709647
0.003748793
0.003776792
0.0037960537
0.0038085916
0.0038158088
0.0038186602
0.0038179494
0.0038143271
0.0038082216
0.0037999512
0.0037898118
0.0037780256
0.0037647793
0.0037501977
0.0037343719
0.0037173869
0.0036993035
0.0036801767
0.0036600493
0.0036389251
0.0036168024
0.0035936847
0.0035695641
0.0035444226
0.0035182394
0.003490988
0.0034626122
0.0034330426
0.0034022106
0.0033700417
0.0033364619
0.0033013871
0.0032647303
0.0032264078
0.0031863179
0.0031443395
0.0031003528
0.0030542455
0.0030058988
0.0029552333
0.0029021832
0.0028467666
0.0027890135
0.0027289008
0.0026666118
0.0026023455
0.0025363932
0.0024695152
0.0024028831
0.0023382344
0.0022779949
0.0022262031
0.0021875694
0.0021603765
0.002164711
0.0022040957
0.0022720657
0.0023863905
0.0025517664
0.0027701706
0.0030376567
0.0033453509
0.0036887667
0.004027346
0.0043081065
0.0044863822
0.0045760423
0.0045625906
0.0044618635
0.0043410628
0.0042005744
0.0040504026
0.0038973776
0.0037411845
0.0035847652
0.0034265761
0.0032628096
0.0030976263
0.0029327929
0.0027693916
0.0026094855
0.0024522969
0.0022962739
0.002144392
0.00199663
0.0018513526
0.0017088757
0.0015708001
0.0014371981
0.0013065693
0.0011795178
0.0010567263
0.0009404098
0.0008302371
0.00072864594
0.00063209445
0.00056970567
0.00048265714
0.00066791454
-0.00051350339
0.012026222
0.01213039
0.012350689
0.012631683
0.012972167
0.01337241
0.01383053
0.014345732
0.014919359
0.015554654
0.016256643
0.017032481
0.017892055
0.018849366
0.019923373
0.021143539
0.022546448
0.024209021
0.026189999
0.02878711
0.031907491
0.037389065
0.042466754
0.08049602
0.051215168
0.002413849
0.0010180309
0.0018755608
0.0024196418
0.002864798
0.0031377942
0.0033293416
0.0034753184
0.0035811373
0.003656045
0.0037098869
0.0037490032
0.0037769779
0.0037962196
0.0038087406
0.0038159434
0.0038187826
0.0038180612
0.0038144296
0.0038083159
0.0038000383
0.0037898924
0.0037781005
0.003764849
0.0037502627
0.0037344327
0.0037174439
0.003699357
0.0036802269
0.0036600965
0.0036389696
0.0036168444
0.0035937244
0.0035696016
0.0035444581
0.0035182731
0.0034910199
0.0034626424
0.0034330713
0.0034022378
0.0033700675
0.0033364864
0.0033014104
0.0032647525
0.0032264288
0.003186338
0.0031443586
0.0031003708
0.0030542626
0.0030059151
0.0029552486
0.0029021977
0.0028467802
0.0027890264
0.0027289128
0.002666623
0.0026023559
0.0025364027
0.0024695239
0.0024028909
0.0023382413
0.0022780008
0.0022262079
0.0021875731
0.0021603787
0.0021647117
0.002204095
0.0022720631
0.002386386
0.00255176
0.0027701621
0.0030376464
0.0033453391
0.0036887535
0.0040273323
0.0043080935
0.0044863708
0.0045760333
0.004562584
0.0044618586
0.0043410595
0.0042005721
0.0040504011
0.0038973766
0.0037411839
0.003584765
0.0034265761
0.0032628098
0.0030976267
0.0029327935
0.0027693924
0.0026094863
0.0024522978
0.0022962749
0.0021443931
0.0019966311
0.0018513537
0.0017088768
0.0015708012
0.0014371992
0.0013065704
0.0011795189
0.0010567273
0.00094041082
0.00083023811
0.00072864695
0.00063209545
0.00056970677
0.00048265825
0.00066791576
-0.00051350266
0.012026222
0.01213039
0.012350689
0.012631684
0.012972167
0.01337241
0.013830531
0.014345733
0.014919359
0.015554655
0.016256644
0.017032483
0.017892057
0.018849369
0.019923377
0.021143544
0.022546454
0.024209027
0.026190007
0.028787119
0.031907503
0.037389069
0.042466848
0.080481553
0.051246022
0.0024274963
0.0010222599
0.0018775939
0.0024208902
0.002865676
0.003138458
0.003329869
0.0034757503
0.003581499
0.0036563536
0.0037101542
0.0037492374
0.0037771851
0.0037964044
0.0038089066
0.0038160935
0.0038189189
0.0038181857
0.0038145437
0.0038084209
0.0038001352
0.0037899822
0.0037781839
0.0037649266
0.0037503352
0.0037345005
0.0037175073
0.0036994165
0.0036802829
0.0036601492
0.0036390192
0.0036168912
0.0035937686
0.0035696434
0.0035444977
0.0035183105
0.0034910554
0.0034626761
0.0034331033
0.0034022681
0.0033700964
0.0033365138
0.0033014364
0.0032647772
0.0032264523
0.0031863603
0.0031443798
0.0031003909
0.0030542817
0.0030059331
0.0029552657
0.0029022138
0.0028467955
0.0027890407
0.0027289262
0.0026666355
0.0026023675
0.0025364134
0.0024695336
0.0024028997
0.0023382489
0.0022780074
0.0022262132
0.0021875772
0.0021603812
0.0021647124
0.0022040941
0.0022720603
0.0023863811
0.0025517528
0.0027701527
0.0030376349
0.0033453259
0.0036887389
0.0040273171
0.0043080791
0.0044863581
0.0045760233
0.0045625766
0.0044618532
0.0043410558
0.0042005696
0.0040503994
0.0038973755
0.0037411833
0.0035847647
0.0034265761
0.0032628101
0.0030976272
0.0029327942
0.0027693932
0.0026094873
0.0024522989
0.002296276
0.0021443943
0.0019966323
0.0018513549
0.001708878
0.0015708025
0.0014372004
0.0013065715
0.0011795201
0.0010567285
0.00094041197
0.00083023924
0.00072864809
0.00063209658
0.000569708
0.00048265948
0.00066791711
-0.00051350186
0.012026222
0.01213039
0.012350689
0.012631684
0.012972168
0.013372411
0.013830531
0.014345734
0.014919361
0.015554657
0.016256646
0.017032485
0.01789206
0.018849372
0.019923381
0.021143549
0.022546459
0.024209034
0.026190015
0.028787128
0.031907516
0.03738907
0.04246696
0.080464568
0.051279256
0.0024427093
0.0010269825
0.0018798653
0.0024222854
0.0028666572
0.0031391997
0.0033304583
0.0034762329
0.0035819031
0.0036566984
0.0037104528
0.0037494991
0.0037774166
0.0037966109
0.0038090921
0.0038162611
0.0038190713
0.0038183247
0.0038146712
0.0038085382
0.0038002436
0.0037900825
0.0037782771
0.0037650134
0.0037504161
0.0037345761
0.0037175782
0.003699483
0.0036803454
0.003660208
0.0036390747
0.0036169435
0.003593818
0.0035696901
0.0035445419
0.0035183524
0.0034910951
0.0034627137
0.003433139
0.003402302
0.0033701286
0.0033365444
0.0033014655
0.0032648048
0.0032264786
0.0031863852
0.0031444034
0.0031004134
0.003054303
0.0030059533
0.0029552849
0.0029022319
0.0028468125
0.0027890567
0.0027289412
0.0026666495
0.0026023804
0.0025364253
0.0024695444
0.0024029094
0.0023382575
0.0022780148
0.0022262192
0.0021875818
0.002160384
0.0021647133
0.0022040932
0.0022720571
0.0023863756
0.0025517448
0.0027701422
0.0030376221
0.0033453111
0.0036887226
0.0040273002
0.0043080629
0.0044863439
0.0045760121
0.0045625684
0.0044618472
0.0043410517
0.0042005667
0.0040503974
0.0038973743
0.0037411825
0.0035847644
0.0034265761
0.0032628103
0.0030976277
0.0029327949
0.0027693941
0.0026094883
0.0024523001
0.0022962773
0.0021443956
0.0019966337
0.0018513563
0.0017088794
0.0015708038
0.0014372017
0.0013065729
0.0011795214
0.0010567298
0.00094041325
0.0008302405
0.00072864935
0.00063209783
0.00056970937
0.00048266085
0.00066791863
-0.00051350095
0.012026222
0.01213039
0.01235069
0.012631685
0.012972168
0.013372412
0.013830532
0.014345735
0.014919362
0.015554658
0.016256648
0.017032487
0.017892063
0.018849375
0.019923385
0.021143554
0.022546466
0.024209042
0.026190024
0.028787138
0.03190753
0.037389065
0.042467094
0.080444547
0.051314943
0.0024597168
0.0010322683
0.0018824086
0.0024238482
0.0028677563
0.0031400306
0.0033311184
0.0034767734
0.0035823558
0.0036570847
0.0037107873
0.0037497921
0.0037776758
0.0037968421
0.0038092998
0.0038164489
0.0038192419
0.0038184805
0.003814814
0.0038086697
0.0038003649
0.0037901949
0.0037783814
0.0037651105
0.0037505067
0.0037346609
0.0037176576
0.0036995575
0.0036804154
0.0036602739
0.0036391368
0.0036170021
0.0035938733
0.0035697425
0.0035445914
0.0035183993
0.0034911395
0.0034627559
0.003433179
0.00340234
0.0033701646
0.0033365787
0.003301498
0.0032648357
0.003226508
0.0031864131
0.00314443
0.0031004386
0.0030543269
0.003005976
0.0029553063
0.0029022521
0.0028468316
0.0027890746
0.002728958
0.0026666651
0.0026023949
0.0025364386
0.0024695566
0.0024029203
0.0023382671
0.002278023
0.0022262258
0.002187587
0.0021603871
0.0021647143
0.0022040921
0.0022720535
0.0023863694
0.0025517358
0.0027701304
0.0030376078
0.0033452946
0.0036887044
0.0040272812
0.0043080448
0.004486328
0.0045759996
0.0045625592
0.0044618405
0.0043410471
0.0042005636
0.0040503953
0.0038973729
0.0037411817
0.003584764
0.0034265761
0.0032628106
0.0030976283
0.0029327957
0.0027693951
0.0026094895
0.0024523014
0.0022962787
0.0021443971
0.0019966352
0.0018513578
0.0017088809
0.0015708053
0.0014372033
0.0013065744
0.0011795228
0.0010567312
0.00094041468
0.00083024191
0.00072865077
0.00063209923
0.0005697109
0.0004826624
0.00066792032
-0.00051349994
0.012026222
0.01213039
0.01235069
0.012631685
0.012972169
0.013372412
0.013830533
0.014345736
0.014919363
0.01555466
0.01625665
0.01703249
0.017892067
0.01884938
0.01992339
0.02114356
0.022546473
0.024209051
0.026190033
0.028787147
0.031907545
0.037389052
0.042467254
0.080420864
0.05135309
0.0024787806
0.0010381952
0.0018852617
0.002425602
0.0028689898
0.003140963
0.0033318591
0.00347738
0.0035828637
0.003657518
0.0037111626
0.003750121
0.0037779667
0.0037971016
0.0038095329
0.0038166595
0.0038194333
0.0038186553
0.0038149742
0.0038088171
0.0038005011
0.003790321
0.0037784985
0.0037652195
0.0037506084
0.003734756
0.0037177466
0.0036996411
0.0036804939
0.0036603478
0.0036392064
0.0036170678
0.0035939354
0.0035698011
0.0035446469
0.0035184519
0.0034911894
0.0034628032
0.0034332239
0.0034023826
0.0033702051
0.0033366171
0.0033015346
0.0032648705
0.003226541
0.0031864445
0.0031444597
0.0031004668
0.0030543537
0.0030060013
0.0029553303
0.0029022748
0.002846853
0.0027890947
0.0027289768
0.0026666826
0.0026024111
0.0025364535
0.0024695702
0.0024029325
0.0023382779
0.0022780322
0.0022262333
0.0021875928
0.0021603906
0.0021647154
0.0022040909
0.0022720495
0.0023863624
0.0025517257
0.0027701172
0.0030375917
0.003345276
0.0036886839
0.0040272598
0.0043080245
0.0044863101
0.0045759856
0.0045625489
0.004461833
0.0043410419
0.00420056
0.0040503929
0.0038973713
0.0037411808
0.0035847636
0.0034265761
0.003262811
0.0030976289
0.0029327966
0.0027693963
0.0026094909
0.0024523029
0.0022962803
0.0021443987
0.0019966369
0.0018513595
0.0017088826
0.0015708071
0.0014372049
0.001306576
0.0011795245
0.0010567328
0.00094041628
0.00083024349
0.00072865236
0.00063210081
0.00056971262
0.00048266412
0.00066792223
-0.0005134988
0.012026222
0.01213039
0.01235069
0.012631686
0.01297217
0.013372413
0.013830534
0.014345737
0.014919365
0.015554662
0.016256653
0.017032493
0.01789207
0.018849384
0.019923396
0.021143567
0.022546481
0.02420906
0.026190043
0.028787156
0.031907559
0.037389027
0.042467444
0.080392771
0.051393606
0.0025002043
0.0010448506
0.0018884669
0.0024275732
0.0028703761
0.0031420109
0.0033326916
0.0034780616
0.0035834345
0.003658005
0.0037115843
0.0037504905
0.0037782936
0.0037973931
0.0038097948
0.0038168962
0.0038196485
0.0038188517
0.0038151542
0.0038089828
0.003800654
0.0037904626
0.00377863
0.003765342
0.0037507227
0.0037348628
0.0037178467
0.003699735
0.0036805822
0.0036604308
0.0036392847
0.0036171416
0.0035940051
0.0035698671
0.0035447093
0.003518511
0.0034912454
0.0034628563
0.0034332743
0.0034024305
0.0033702505
0.0033366603
0.0033015756
0.0032649095
0.003226578
0.0031864797
0.0031444931
0.0031004986
0.0030543838
0.0030060299
0.0029553573
0.0029023003
0.002846877
0.0027891173
0.0027289979
0.0026667023
0.0026024294
0.0025364703
0.0024695855
0.0024029462
0.00233829
0.0022780426
0.0022262417
0.0021875993
0.0021603945
0.0021647166
0.0022040895
0.002272045
0.0023863546
0.0025517144
0.0027701023
0.0030375736
0.0033452552
0.0036886609
0.0040272359
0.0043080017
0.0044862901
0.0045759698