/*--------------------------------*- C++ -*----------------------------------*\
| =========                 |                                                 |
| \\      /  F ield         | OpenFOAM: The Open Source CFD Toolbox           |
|  \\    /   O peration     | Version:  2206                                  |
|   \\  /    A nd           | Website:  www.openfoam.com                      |
|    \\/     M anipulation  |                                                 |
\*---------------------------------------------------------------------------*/
FoamFile
{
    version     2.0;
    format      ascii;
    arch        "LSB;label=32;scalar=64";
    class       surfaceScalarField;
    location    "1600";
    object      phi;
}
// * * * * * * * * * * * * * * * * * * * * * * * * * * * * * * * * * * * * * //

dimensions      [0 3 -1 0 0 0 0];

oriented        oriented;

internalField   nonuniform List<scalar> 
25880
(
2.0045844e-06
6.9698484e-11
2.0044002e-06
1.8424307e-10
2.0041491e-06
2.5109903e-10
2.0038597e-06
2.8936727e-10
2.0035283e-06
3.31459e-10
2.0031498e-06
3.78468e-10
2.00272e-06
4.2983066e-10
2.0022328e-06
4.8715614e-10
2.0016802e-06
5.5258781e-10
2.0010519e-06
6.2831603e-10
2.000335e-06
7.1690238e-10
1.999513e-06
8.220658e-10
1.9985644e-06
9.485511e-10
1.9974591e-06
1.1053068e-09
1.9961589e-06
1.3001733e-09
1.9945953e-06
1.5635877e-09
1.9927036e-06
1.8917261e-09
1.990261e-06
2.4425988e-09
1.9872415e-06
3.019481e-09
1.9825997e-06
4.641798e-09
1.9768876e-06
5.7121603e-09
1.9632298e-06
1.3657737e-08
1.9537197e-06
9.510172e-09
9.8072115e-07
9.7299851e-07
4.328648e-09
9.763925e-07
2.0960337e-09
2.2326143e-09
1.5878472e-09
5.0818654e-10
1.3422008e-09
2.456464e-10
1.1903755e-09
1.5182535e-10
1.0826387e-09
1.0773672e-10
1.0004252e-09
8.2213514e-11
9.3444556e-10
6.5979675e-11
8.7987558e-10
5.4569977e-11
8.3371016e-10
4.6165419e-11
7.9390214e-10
3.9808019e-11
7.5905335e-10
3.4848793e-11
7.2818171e-10
3.0871646e-11
7.0056219e-10
2.7619519e-11
6.7564062e-10
2.4921564e-11
6.5298783e-10
2.2652792e-11
6.322658e-10
2.0722031e-11
6.1319966e-10
1.9066142e-11
5.9557145e-10
1.7628208e-11
5.7920155e-10
1.6369906e-11
5.6393594e-10
1.526561e-11
5.4964897e-10
1.4286972e-11
5.3623322e-10
1.341575e-11
5.235972e-10
1.2636016e-11
5.1166252e-10
1.1934676e-11
5.0036135e-10
1.1301179e-11
4.8963444e-10
1.0726905e-11
4.7943003e-10
1.0204409e-11
4.6970264e-10
9.7273918e-12
4.6041225e-10
9.290393e-12
4.5152359e-10
8.888661e-12
4.430052e-10
8.5183904e-12
4.3482882e-10
8.1763782e-12
4.2696918e-10
7.8596415e-12
4.1940362e-10
7.5655565e-12
4.1211173e-10
7.2918861e-12
4.050752e-10
7.036528e-12
3.982777e-10
6.7975075e-12
3.9170444e-10
6.5732603e-12
3.8534184e-10
6.3625966e-12
3.7917754e-10
6.1643047e-12
3.7320046e-10
5.9770774e-12
3.6740074e-10
5.7997201e-12
3.6176951e-10
5.6312238e-12
3.5629892e-10
5.470597e-12
3.5098223e-10
5.3166835e-12
3.4581386e-10
5.1683743e-12
3.407891e-10
5.0247567e-12
3.3590422e-10
4.8848872e-12
3.3115641e-10
4.7478035e-12
3.2654386e-10
4.6125478e-12
3.2206585e-10
4.4780099e-12
3.177232e-10
4.3426557e-12
3.135193e-10
4.2038969e-12
3.0945999e-10
4.0593163e-12
3.0555273e-10
3.9072555e-12
3.0180708e-10
3.7456516e-12
2.9823475e-10
3.5723277e-12
2.9485009e-10
3.3846621e-12
2.9167211e-10
3.1779795e-12
2.8872661e-10
2.9455013e-12
2.8604583e-10
2.6807724e-12
2.836724e-10
2.3734341e-12
2.8168126e-10
1.9911422e-12
2.8008231e-10
1.5989434e-12
2.7908118e-10
1.0011316e-12
2.7875171e-10
3.2947208e-13
2.7910615e-10
-3.5444315e-13
2.803715e-10
-1.2653539e-12
2.8265089e-10
-2.2793874e-12
2.860996e-10
-3.4487091e-12
2.9081834e-10
-4.718741e-12
2.9680477e-10
-5.9864272e-12
3.0400775e-10
-7.2029834e-12
3.1233264e-10
-8.3248927e-12
3.2140129e-10
-9.068651e-12
3.3044564e-10
-9.0443518e-12
3.3878241e-10
-8.3367621e-12
3.4566321e-10
-6.8807954e-12
3.5097864e-10
-5.315438e-12
3.5507497e-10
-4.0963255e-12
3.580325e-10
-2.9575325e-12
3.6018687e-10
-2.1543682e-12
3.6172434e-10
-1.5374628e-12
3.6277459e-10
-1.0502541e-12
3.6342568e-10
-6.5108602e-13
3.6373916e-10
-3.1348165e-13
3.6374414e-10
-4.9826253e-15
3.6344057e-10
3.0357329e-13
3.6285163e-10
5.8893932e-13
3.6201951e-10
8.3211629e-13
3.6097815e-10
1.0413629e-12
3.5977254e-10
1.2056123e-12
3.5844382e-10
1.3287188e-12
3.5702151e-10
1.4223153e-12
3.555368e-10
1.4847093e-12
3.5401901e-10
1.5177826e-12
3.5248443e-10
1.5345794e-12
3.509428e-10
1.5416315e-12
3.4940692e-10
1.5358808e-12
3.4788823e-10
1.518688e-12
3.4639032e-10
1.4979105e-12
3.449115e-10
1.4788261e-12
3.4345079e-10
1.46071e-12
3.4200876e-10
1.442024e-12
3.4058829e-10
1.4204779e-12
3.3915975e-10
1.4285331e-12
3.3774399e-10
1.4157646e-12
3.3619371e-10
1.550273e-12
3.3463594e-10
1.5577733e-12
3.3292904e-10
1.7069043e-12
1.0227441e-12
2.0344573e-06
1.4049304e-10
2.0342701e-06
3.7141842e-10
2.034015e-06
5.0623216e-10
2.0337209e-06
5.8339739e-10
2.0333841e-06
6.6825902e-10
2.0329996e-06
7.6303061e-10
2.0325628e-06
8.6657698e-10
2.0320678e-06
9.8214136e-10
2.0315064e-06
1.1140441e-09
2.030868e-06
1.2667003e-09
2.0301396e-06
1.4452731e-09
2.0293044e-06
1.6572582e-09
2.0283408e-06
1.9122185e-09
2.0272179e-06
2.2281906e-09
2.0258971e-06
2.6209748e-09
2.0243087e-06
3.1519198e-09
2.0223872e-06
3.8133092e-09
2.0199061e-06
4.9236212e-09
2.0168393e-06
6.086327e-09
2.0121251e-06
9.356029e-09
2.0063239e-06
1.1513298e-08
1.9924539e-06
2.7527771e-08
1.9827891e-06
1.9174918e-08
1.0016077e-06
1.95418e-06
1.3207526e-08
1.9647927e-06
6.413282e-09
9.0268587e-09
4.8586189e-09
2.0628496e-09
4.1069826e-09
9.9728272e-10
3.6424036e-09
6.1640434e-10
3.3127276e-09
4.3741272e-10
3.0611564e-09
3.3378473e-10
2.8592633e-09
2.6787283e-10
2.6922833e-09
2.2154998e-10
2.551021e-09
1.8742771e-10
2.4292125e-09
1.6161653e-10
2.3225792e-09
1.4148207e-10
2.2281158e-09
1.2533503e-10
2.1436037e-09
1.1213162e-10
2.0673471e-09
1.0117813e-10
1.9980328e-09
9.1967117e-11
1.9346264e-09
8.412846e-11
1.8762869e-09
7.7405672e-11
1.8223472e-09
7.1567817e-11
1.7722578e-09
6.6459323e-11
1.7255474e-09
6.1976002e-11
1.6818315e-09
5.8002862e-11
1.6407815e-09
5.446582e-11
1.6021173e-09
5.130021e-11
1.5655991e-09
4.845287e-11
1.5310193e-09
4.5880969e-11
1.4981967e-09
4.3549502e-11
1.4669729e-09
4.1428248e-11
1.4372086e-09
3.949163e-11
1.4087815e-09
3.7717482e-11
1.3815837e-09
3.6086515e-11
1.3555188e-09
3.4583276e-11
1.3305004e-09
3.3194762e-11
1.3064512e-09
3.1908863e-11
1.2833018e-09
3.0714926e-11
1.2609898e-09
2.960387e-11
1.2394592e-09
2.8567159e-11
1.2186599e-09
2.7596777e-11
1.1985468e-09
2.6686374e-11
1.1790783e-09
2.5831117e-11
1.1602165e-09
2.5026088e-11
1.1419276e-09
2.4265979e-11
1.1241814e-09
2.354594e-11
1.1069507e-09
2.2861876e-11
1.0902116e-09
2.2209761e-11
1.0739434e-09
2.1584901e-11
1.0581289e-09
2.0982794e-11
1.042754e-09
2.0399733e-11
1.027807e-09
1.9831889e-11
1.0132794e-09
1.9275355e-11
9.9916572e-10
1.8726239e-11
9.854637e-10
1.8180036e-11
9.7217584e-10
1.7630515e-11
9.5931256e-10
1.7067172e-11
9.4689169e-10
1.6480194e-11
9.349361e-10
1.586284e-11
9.2347501e-10
1.5206742e-11
9.1254428e-10
1.4503058e-11
9.0218781e-10
1.3741131e-11
8.9246381e-10
1.290198e-11
8.8345123e-10
1.1958085e-11
8.7524877e-10
1.0883229e-11
8.6798686e-10
9.6353424e-12
8.6189483e-10
8.0831718e-12
8.57003e-10
6.490773e-12
8.5394067e-10
4.0634665e-12
8.5293359e-10
1.3365506e-12
8.5401924e-10
-1.4400973e-12
8.5789233e-10
-5.1384495e-12
8.6486828e-10
-9.2553318e-12
8.7542206e-10
-1.4002494e-11
8.8986169e-10
-1.9158371e-11
9.081799e-10
-2.4304641e-11
9.3022022e-10
-2.9243299e-11
9.5569235e-10
-3.3797027e-11
9.8343907e-10
-3.6815367e-11
1.0111107e-09
-3.6716003e-11
1.0366174e-09
-3.3843436e-11
1.0576695e-09
-2.7932914e-11
1.0739326e-09
-2.1578511e-11
1.0864662e-09
-1.662991e-11
1.0955156e-09
-1.2007003e-11
1.1021077e-09
-8.7464484e-12
1.1068123e-09
-6.2420219e-12
1.1100261e-09
-4.2640428e-12
1.1120185e-09
-2.643507e-12
1.1129779e-09
-1.2728629e-12
1.1129933e-09
-2.0362177e-14
1.1120645e-09
1.2323353e-12
1.1102625e-09
2.3909169e-12
1.1077164e-09
3.3781945e-12
1.1045301e-09
4.227691e-12
1.1008412e-09
4.8945275e-12
1.0967756e-09
5.3943335e-12
1.0924236e-09
5.7742983e-12
1.0878807e-09
6.0276087e-12
1.0832366e-09
6.1618976e-12
1.0785411e-09
6.2300887e-12
1.073824e-09
6.258705e-12
1.0691245e-09
6.2353589e-12
1.0644776e-09
6.1655727e-12
1.0598943e-09
6.0812161e-12
1.0553694e-09
6.0037259e-12
1.0509e-09
5.930157e-12
1.0464877e-09
5.8542901e-12
1.0421414e-09
5.7668017e-12
1.0377705e-09
5.7994806e-12
1.0334387e-09
5.7474866e-12
1.0286953e-09
6.2937004e-12
1.0239306e-09
6.3225039e-12
1.0187001e-09
6.9374008e-12
4.1397971e-12
2.0946481e-06
2.1344771e-10
2.0944552e-06
5.643453e-10
2.0941922e-06
7.6924868e-10
2.0938891e-06
8.865289e-10
2.0935418e-06
1.0154843e-09
2.0931454e-06
1.1594924e-09
2.0926951e-06
1.3168301e-09
2.0921848e-06
1.4924243e-09
2.091606e-06
1.6928384e-09
2.090948e-06
1.9247802e-09
2.0901971e-06
2.1960932e-09
2.0893362e-06
2.5181645e-09
2.0883429e-06
2.9055209e-09
2.0871856e-06
3.3855622e-09
2.0858242e-06
3.9822881e-09
2.0841873e-06
4.7888973e-09
2.0822069e-06
5.7936509e-09
2.0796502e-06
7.480363e-09
2.0764899e-06
9.2466141e-09
2.0716325e-06
1.4213472e-08
2.0656553e-06
1.7490438e-08
2.0513649e-06
4.1818228e-08
2.0414006e-06
2.913914e-08
1.0378021e-06
2.9577785e-06
2.2837304e-08
2.9797575e-06
1.111399e-08
2.0750173e-08
8.4201427e-09
4.7566973e-09
7.1175715e-09
2.299854e-09
6.312419e-09
1.4215568e-09
5.7410593e-09
1.0087725e-09
5.3050654e-09
7.697786e-10
4.9551721e-09
6.1776617e-10
4.6657861e-09
5.1093597e-10
4.4209709e-09
4.322429e-10
4.2098711e-09
3.7271635e-10
4.0250713e-09
3.262818e-10
3.8613629e-09
2.8904344e-10
3.7149007e-09
2.5859384e-10
3.5827458e-09
2.3333302e-10
3.4626222e-09
2.1209075e-10
3.3527371e-09
1.9401351e-10
3.2516334e-09
1.7850945e-10
3.1581548e-09
1.6504634e-10
3.0713487e-09
1.5326544e-10
2.9903986e-09
1.4292611e-10
2.9146381e-09
1.337634e-10
2.8434975e-09
1.2560642e-10
2.7764917e-09
1.1830602e-10
2.7132049e-09
1.117396e-10
2.6532775e-09
1.058084e-10
2.5963953e-09
1.0043168e-10
2.5422838e-09
9.5539736e-11
2.4907019e-09
9.1073598e-11
2.4414372e-09
8.6982143e-11
2.3943028e-09
8.3220888e-11
2.3491319e-09
7.9754195e-11
2.3057746e-09
7.6552073e-11
2.2640969e-09
7.3586598e-11
2.2239786e-09
7.0833204e-11
2.1853115e-09
6.8270943e-11
2.1479985e-09
6.5880136e-11
2.111953e-09
6.3642297e-11
2.0770966e-09
6.1542779e-11
2.0433573e-09
5.9570437e-11
2.0106695e-09
5.7713926e-11
1.9789744e-09
5.5961007e-11
1.9482199e-09
5.4300498e-11
1.9183588e-09
5.2722951e-11
1.8893495e-09
5.121908e-11
1.8611563e-09
4.9778067e-11
1.8337496e-09
4.8389528e-11
1.8071044e-09
4.7044912e-11
1.7812009e-09
4.5735385e-11
1.7560243e-09
4.4451939e-11
1.731565e-09
4.3185599e-11
1.707819e-09
4.1925972e-11
1.6847908e-09
4.0658689e-11
1.6624985e-09
3.9359527e-11
1.6409728e-09
3.8005862e-11
1.6202535e-09
3.6582136e-11
1.6003912e-09
3.5069055e-11
1.581448e-09
3.3446224e-11
1.5635001e-09
3.1689046e-11
1.5466484e-09
2.9753749e-11
1.5310296e-09
2.7576857e-11
1.5168149e-09
2.5097903e-11
1.5042304e-09
2.2219839e-11
1.4936735e-09
1.8640094e-11
1.4851969e-09
1.4967415e-11
1.4798909e-09
9.3694091e-12
1.4781469e-09
3.0805445e-12
1.48003e-09
-3.3231391e-12
1.4867438e-09
-1.1852273e-11
1.498835e-09
-2.1346567e-11
1.5171266e-09
-3.2294051e-11
1.542152e-09
-4.4183838e-11
1.5738988e-09
-5.6051351e-11
1.6120954e-09
-6.7439906e-11
1.656238e-09
-7.7939691e-11
1.704321e-09
-8.4898373e-11
1.7522731e-09
-8.46681e-11
1.7964733e-09
-7.8043569e-11
1.8329545e-09
-6.4414187e-11
1.8611373e-09
-4.9761302e-11
1.8828575e-09
-3.8350129e-11
1.8985405e-09
-2.7689926e-11
1.9099649e-09
-2.0170849e-11
1.9181183e-09
-1.439544e-11
1.9236882e-09
-9.8339396e-12
1.9271414e-09
-6.0967601e-12
1.9288044e-09
-2.9357995e-12
1.9288313e-09
-4.7262767e-14
1.9272219e-09
2.8416799e-12
1.9240992e-09
5.5136196e-12
1.919687e-09
7.7904703e-12
1.9141651e-09
9.7495294e-12
1.9077723e-09
1.1287377e-11
1.9007266e-09
1.2440028e-11
1.8931846e-09
1.3316255e-11
1.8853118e-09
1.390043e-11
1.8772635e-09
1.421015e-11
1.8691262e-09
1.4367409e-11
1.8609515e-09
1.4433382e-11
1.8528074e-09
1.4379545e-11
1.8447543e-09
1.421863e-11
1.8368114e-09
1.4024088e-11
1.8289698e-09
1.3845363e-11
1.8212243e-09
1.3675669e-11
1.8135779e-09
1.3500695e-11
1.8060458e-09
1.3298916e-11
1.798471e-09
1.3374194e-11
1.7909644e-09
1.3254126e-11
1.7827444e-09
1.4513661e-11
1.7744887e-09
1.4578293e-11
1.7654189e-09
1.6007114e-11
9.5333344e-12
2.186054e-06
2.8966238e-10
2.1858524e-06
7.659405e-10
2.1855775e-06
1.044134e-09
2.1852607e-06
1.2033585e-09
2.1848978e-06
1.3784001e-09
2.1844834e-06
1.5738644e-09
2.1840128e-06
1.7874154e-09
2.1834795e-06
2.0257379e-09
2.1828746e-06
2.2977392e-09
2.1821869e-06
2.6125216e-09
2.1814022e-06
2.9807285e-09
2.1805026e-06
3.4178113e-09
2.1794646e-06
3.943481e-09
2.1782553e-06
4.5949172e-09
2.1768329e-06
5.4046804e-09
2.1751225e-06
6.4992373e-09
2.1730536e-06
7.8626344e-09
2.1703825e-06
1.0151376e-08
2.1670812e-06
1.2547963e-08
2.1620074e-06
1.9287235e-08
2.1557644e-06
2.3733495e-08
2.1408386e-06
5.674396e-08
2.1304239e-06
3.9553893e-08
1.0901446e-06
3.9980578e-06
3.3788096e-08
4.036114e-06
1.6479355e-08
3.8058913e-08
1.2485501e-08
8.7505508e-09
1.0554107e-08
4.2312489e-09
9.3601788e-09
2.6154845e-09
8.5129285e-09
1.8560227e-09
7.8664105e-09
1.4162966e-09
7.3475741e-09
1.1366026e-09
6.9184617e-09
9.4004832e-10
6.5554413e-09
7.9526326e-10
6.2424166e-09
6.8574108e-10
5.9683914e-09
6.0030697e-10
5.7256416e-09
5.3179332e-10
5.508465e-09
4.7577037e-10
5.3125039e-09
4.2929411e-10
5.1343832e-09
3.902115e-10
4.9714444e-09
3.5695231e-10
4.8215268e-09
3.2842699e-10
4.6829162e-09
3.0365694e-10
4.5541994e-09
2.8198227e-10
4.4341661e-09
2.6295947e-10
4.3218279e-09
2.461016e-10
4.2163402e-09
2.3109409e-10
4.1169836e-09
2.1766257e-10
4.0231418e-09
2.0558148e-10
3.9342811e-09
1.9466907e-10
3.8499359e-09
1.8477682e-10
3.7696992e-09
1.7577648e-10
3.6932132e-09
1.6755955e-10
3.6201634e-09
1.6003198e-10
3.5502724e-09
1.5311192e-10
3.4832928e-09
1.4673382e-10
3.4190024e-09
1.4084247e-10
3.3572024e-09
1.3538651e-10
3.2977149e-09
1.3032075e-10
3.2403792e-09
1.2560664e-10
3.1850514e-09
1.2120798e-10
3.1316029e-09
1.1709076e-10
3.0799176e-09
1.1322802e-10
3.0298888e-09
1.0959927e-10
2.9814191e-09
1.0618363e-10
2.9344215e-09
1.0295858e-10
2.8888185e-09
9.9903541e-11
2.8445403e-09
9.7001142e-11
2.8015251e-09
9.4234295e-11
2.7597201e-09
9.1583096e-11
2.7190811e-09
8.9028442e-11
2.6795715e-09
8.6554599e-11
2.6411615e-09
8.4145313e-11
2.6038295e-09
8.1784009e-11
2.5675609e-09
7.9454171e-11
2.5323502e-09
7.7136678e-11
2.4982038e-09
7.4805088e-11
2.4651485e-09
7.2414848e-11
2.43323e-09
6.9924332e-11
2.4025072e-09
6.7304902e-11
2.3730552e-09
6.4521067e-11
2.3449661e-09
6.1535294e-11
2.3183529e-09
5.8302293e-11
2.2933651e-09
5.4741531e-11
2.2702058e-09
5.0736215e-11
2.2491286e-09
4.6175067e-11
2.2304689e-09
4.0879511e-11
2.214816e-09
3.4293067e-11
2.2022482e-09
2.7535212e-11
2.1943819e-09
1.7235655e-11
2.1917976e-09
5.6648673e-12
2.194592e-09
-6.1175565e-12
2.2045495e-09
-2.1809774e-11
2.2224808e-09
-3.9277891e-11
2.2496058e-09
-5.9419016e-11
2.2867154e-09
-8.129341e-11
2.3337907e-09
-1.0312666e-10
2.390429e-09
-1.2407828e-10
2.4558824e-09
-1.4339304e-10
2.5271764e-09
-1.561924e-10
2.5982754e-09
-1.5576704e-10
2.6638108e-09
-1.4357898e-10
2.7179023e-09
-1.1850569e-10
2.7596903e-09
-9.1549296e-11
2.7918962e-09
-7.0556088e-11
2.8151512e-09
-5.0944928e-11
2.8320919e-09
-3.7111493e-11
2.8441824e-09
-2.6486003e-11
2.8524422e-09
-1.8093645e-11
2.8575633e-09
-1.1217885e-11
2.8600296e-09
-5.4021656e-12
2.86007e-09
-8.7608314e-14
2.857684e-09
5.2276291e-12
2.853054e-09
1.0143676e-11
2.8465117e-09
1.4332773e-11
2.8383241e-09
1.7937108e-11
2.8288449e-09
2.0766532e-11
2.8183977e-09
2.2887252e-11
2.8072147e-09
2.4499322e-11
2.795541e-09
2.5574112e-11
2.7836071e-09
2.6143997e-11
2.7715412e-09
2.6433331e-11
2.7594199e-09
2.6554676e-11
2.7473438e-09
2.6455634e-11
2.7354028e-09
2.6159618e-11
2.7236252e-09
2.5801692e-11
2.7119978e-09
2.5472831e-11
2.7005129e-09
2.5160571e-11
2.6891749e-09
2.483862e-11
2.6780065e-09
2.446736e-11
2.666775e-09
2.4605662e-11
2.6556445e-09
2.4384615e-11
2.6434569e-09
2.6701318e-11
2.6312167e-09
2.6818474e-11
2.617765e-09
2.945876e-11
1.752596e-11
2.3100371e-06
3.7029012e-10
2.3098237e-06
9.7926521e-10
2.3095328e-06
1.3350745e-09
2.3091974e-06
1.5387158e-09
2.3088133e-06
1.7625388e-09
2.3083747e-06
2.0124621e-09
2.3078766e-06
2.2855029e-09
2.3073121e-06
2.5902055e-09
2.3066719e-06
2.9379559e-09
2.3059441e-06
3.3403902e-09
2.3051137e-06
3.8111129e-09
2.3041616e-06
4.3698743e-09
2.3030632e-06
5.0418674e-09
2.3017835e-06
5.8746157e-09
2.3002785e-06
6.9097311e-09
2.2984688e-06
8.3088678e-09
2.2962799e-06
1.0051599e-08
2.2934542e-06
1.2977077e-08
2.2899619e-06
1.6040288e-08
2.2845952e-06
2.4653912e-08
2.277992e-06
3.0336656e-08
2.262206e-06
7.2529974e-08
2.251182e-06
5.0577882e-08
1.1597528e-06
5.089487e-06
4.6704106e-08
5.1491626e-06
2.2830309e-08
6.193271e-08
1.7297937e-08
1.4282923e-08
1.462222e-08
6.9069663e-09
1.2968047e-08
4.2696567e-09
1.1794188e-08
3.029882e-09
1.0898445e-08
2.3120397e-09
1.0179613e-08
1.855435e-09
9.5850922e-09
1.5345687e-09
9.082141e-09
1.2982144e-09
8.6484588e-09
1.1194233e-09
8.2688103e-09
9.7995548e-10
7.932493e-09
8.6811058e-10
7.6316069e-09
7.7665652e-10
7.360114e-09
7.0078701e-10
7.1133382e-09
6.3698732e-10
6.8875961e-09
5.8269436e-10
6.6798947e-09
5.361284e-10
6.4878585e-09
4.956931e-10
6.3095294e-09
4.603114e-10
6.1432309e-09
4.2925803e-10
5.9875935e-09
4.0173894e-10
5.8414472e-09
3.7724043e-10
5.7037951e-09
3.553146e-10
5.5737834e-09
3.3559325e-10
5.4506728e-09
3.177797e-10
5.3338181e-09
3.0163145e-10
5.2226554e-09
2.869392e-10
5.1166892e-09
2.7352578e-10
5.0154835e-09
2.6123769e-10
4.9186541e-09
2.4994132e-10
4.8258582e-09
2.3952964e-10
4.7367882e-09
2.2991255e-10
4.6511685e-09
2.2100621e-10
4.5687524e-09
2.1273681e-10
4.4893176e-09
2.0504147e-10
4.4126645e-09
1.9786106e-10
4.3386152e-09
1.9114009e-10
4.2670086e-09
1.8483455e-10
4.1976969e-09
1.7891097e-10
4.1305453e-09
1.7333526e-10
4.0654332e-09
1.6807068e-10
4.0022531e-09
1.6308364e-10
3.9409085e-09
1.5834576e-10
3.8813136e-09
1.5382915e-10
3.8233954e-09
1.4950134e-10
3.7670927e-09
1.4533112e-10
3.7123545e-09
1.4129283e-10
3.6591399e-09
1.3735992e-10
3.6074186e-09
1.3350533e-10
3.5571706e-09
1.2970209e-10
3.5083883e-09
1.25919e-10
3.4610805e-09
1.2211288e-10
3.4152843e-09
1.1821103e-10
3.3710632e-09
1.1414548e-10
3.3284986e-09
1.0986946e-10
3.2876946e-09
1.0532507e-10
3.2487789e-09
1.0045099e-10
3.211908e-09
9.5173265e-11
3.1772891e-09
8.9360405e-11
3.1452036e-09
8.2821751e-11
3.116003e-09
7.53756e-11
3.0901521e-09
6.6730419e-11
3.0684671e-09
5.5978119e-11
3.0510571e-09
4.4945225e-11
3.0401607e-09
2.8132018e-11
3.0365825e-09
9.2430984e-12
3.0404569e-09
-9.9920007e-12
3.0542552e-09
-3.5608085e-11
3.079101e-09
-6.4123639e-11
3.1166836e-09
-9.7001615e-11
3.1680985e-09
-1.3270839e-10
3.2333197e-09
-1.6834779e-10
3.3117886e-09
-2.0254717e-10
3.4024675e-09
-2.3407199e-10
3.5012356e-09
-2.5496046e-10
3.5997322e-09
-2.542637e-10
3.6905209e-09
-2.3436769e-10
3.7654573e-09
-1.9344207e-10
3.8233501e-09
-1.4944208e-10
3.8679685e-09
-1.1517446e-10
3.9001875e-09
-8.3163949e-11
3.9236586e-09
-6.0582602e-11
3.9404104e-09
-4.3237802e-11
3.9518548e-09
-2.9538012e-11
3.9589508e-09
-1.8313908e-11
3.9623687e-09
-8.8200794e-12
3.9624254e-09
-1.4427565e-13
3.9591205e-09
8.5325414e-12
3.9527063e-09
1.6557798e-11
3.9436428e-09
2.3396287e-11
3.9322998e-09
2.9280077e-11
3.9191674e-09
3.3898953e-11
3.9046938e-09
3.736092e-11
3.8892006e-09
3.9992439e-11
3.8730278e-09
4.1746964e-11
3.8564944e-09
4.2677344e-11
3.8397781e-09
4.3149669e-11
3.8229851e-09
4.3347708e-11
3.8062547e-09
4.318605e-11
3.7897114e-09
4.2702895e-11
3.7733945e-09
4.2118612e-11
3.7572856e-09
4.1581713e-11
3.7413743e-09
4.1071894e-11
3.7256666e-09
4.0546285e-11
3.7101937e-09
3.9940211e-11
3.6946338e-09
4.0165608e-11
3.6792138e-09
3.9804655e-11
3.66233e-09
4.3585066e-11
3.6453738e-09
4.3774633e-11
3.6267354e-09
4.8097177e-11
2.8595883e-11
2.4684449e-06
4.5655568e-10
2.4682166e-06
1.2075748e-09
2.4679051e-06
1.6465262e-09
2.4675461e-06
1.8977435e-09
2.4671349e-06
2.1737912e-09
2.4666653e-06
2.4820098e-09
2.4661321e-06
2.8187265e-09
2.4655278e-06
3.1944742e-09
2.4648425e-06
3.6232912e-09
2.4640634e-06
4.1195239e-09
2.4631745e-06
4.6999447e-09
2.4621555e-06
5.3889017e-09
2.4609799e-06
6.2174514e-09
2.4596103e-06
7.2441817e-09
2.4579997e-06
8.5203819e-09
2.4560632e-06
1.0245346e-08
2.453721e-06
1.2393844e-08
2.4506976e-06
1.6000399e-08
2.4469613e-06
1.9776592e-08
2.4412205e-06
3.0394794e-08
2.4341573e-06
3.7399864e-08
2.4172723e-06
8.9414971e-08
2.4054701e-06
6.2380047e-08
1.2480576e-06
6.2468995e-06
6.2341334e-08
6.3348789e-06
3.0546714e-08
9.372733e-08
2.3145395e-08
2.1684242e-08
1.9565342e-08
1.0487019e-08
1.7351909e-08
6.4830896e-09
1.5781173e-08
4.6006178e-09
1.4582587e-08
3.5106257e-09
1.3620737e-08
2.817285e-09
1.2825228e-08
2.3300774e-09
1.2152247e-08
1.9711958e-09
1.1571955e-08
1.6997157e-09
1.1063965e-08
1.4879455e-09
1.0613955e-08
1.3181198e-09
1.0211355e-08
1.1792564e-09
9.8480857e-09
1.0640567e-09
9.517889e-09
9.6718403e-10
9.2158364e-09
8.847469e-10
8.9379237e-09
8.1404116e-10
8.6809719e-09
7.5264486e-10
8.4423604e-09
6.9892292e-10
8.2198466e-09
6.5177187e-10
8.0115979e-09
6.0998756e-10
7.8160487e-09
5.7278967e-10
7.6318652e-09
5.394981e-10
7.4579047e-09
5.0955376e-10
7.2931782e-09
4.825062e-10
7.1368224e-09
4.5798719e-10
6.9880827e-09
4.3567892e-10
6.8462961e-09
4.1531241e-10
6.7108792e-09
3.9665456e-10
6.581318e-09
3.7950253e-10
6.4571539e-09
3.6369379e-10
6.3379749e-09
3.4909153e-10
6.2234127e-09
3.3556844e-10
6.113137e-09
3.2301248e-10
6.0068503e-09
3.1132814e-10
5.9042857e-09
3.0042567e-10
5.805205e-09
2.9022081e-10
5.7093928e-09
2.8064673e-10
5.6166512e-09
2.716526e-10
5.5267998e-09
2.6318667e-10
5.4396773e-09
2.5519314e-10
5.3551399e-09
2.4762102e-10
5.2730584e-09
2.4042723e-10
5.1933182e-09
2.335694e-10
5.1158213e-09
2.2699824e-10
5.040486e-09
2.2066638e-10
4.967244e-09
2.1453482e-10
4.8960407e-09
2.0856326e-10
4.8268354e-09
2.0271063e-10
4.7596015e-09
1.9693596e-10
4.6943287e-09
1.9119185e-10
4.6310288e-09
1.8541277e-10
4.5697515e-09
1.7948831e-10
4.5105817e-09
1.7331531e-10
4.4536284e-09
1.6682273e-10
4.3990309e-09
1.5992262e-10
4.34696e-09
1.5252189e-10
4.2976251e-09
1.4450815e-10
4.2513037e-09
1.3568174e-10
4.2083723e-09
1.2575315e-10
4.1693015e-09
1.1444642e-10
4.1347131e-09
1.0131885e-10
4.1056991e-09
8.4992114e-11
4.0824062e-09
6.8238093e-11
4.0678288e-09
4.2709473e-11
4.0630438e-09
1.4028079e-11
4.0682318e-09
-1.5180004e-11
4.0866981e-09
-5.4074373e-11
4.1199465e-09
-9.7372088e-11
4.1702369e-09
-1.4729195e-10
4.2390346e-09
-2.0150609e-10
4.3263045e-09
-2.5561768e-10
4.4312987e-09
-3.0754137e-10
4.552627e-09
-3.5540028e-10
4.6847751e-09
-3.8710865e-10
4.8165589e-09
-3.8604743e-10
4.9380293e-09
-3.5583807e-10
5.0382921e-09
-2.937049e-10
5.1157529e-09
-2.2690287e-10
5.1754532e-09
-1.7487477e-10
5.2185649e-09
-1.2627562e-10
5.2499717e-09
-9.198947e-11
5.2723881e-09
-6.5654145e-11
5.2877028e-09
-4.4852732e-11
5.2971992e-09
-2.781029e-11
5.3017739e-09
-1.3394833e-11
5.301851e-09
-2.2132512e-13
5.2974299e-09
1.2953578e-11
5.2888485e-09
2.5139295e-11
5.2767218e-09
3.5522931e-11
5.2615451e-09
4.445678e-11
5.2439739e-09
5.147011e-11
5.2246081e-09
5.6726789e-11
5.2038782e-09
6.072236e-11
5.1822387e-09
6.3386428e-11
5.1601168e-09
6.4799245e-11
5.13775e-09
6.5516438e-11
5.1152807e-09
6.5817071e-11
5.0928951e-09
6.5571651e-11
5.0707598e-09
6.4838148e-11
5.0489274e-09
6.3950998e-11
5.0273734e-09
6.3135686e-11
5.0060839e-09
6.2361468e-11
4.9850668e-09
6.1563313e-11
4.964364e-09
6.064304e-11
4.943545e-09
6.098465e-11
4.9229131e-09
6.0436525e-11
4.9003241e-09
6.6174019e-11
4.8776385e-09
6.6460304e-11
4.8526982e-09
7.3037443e-11
4.340558e-11
2.6636382e-06
5.4977532e-10
2.6633914e-06
1.4543729e-09
2.6630546e-06
1.9832904e-09
2.6626664e-06
2.2859847e-09
2.6622216e-06
2.6185067e-09
2.6617139e-06
2.9897546e-09
2.6611373e-06
3.3953126e-09
2.6604839e-06
3.8478616e-09
2.6597429e-06
4.3643055e-09
2.6589005e-06
4.9619196e-09
2.6579396e-06
5.6608985e-09
2.6568379e-06
6.4905576e-09
2.6555671e-06
7.4882866e-09
2.6540866e-06
8.7246261e-09
2.6523457e-06
1.0261315e-08
2.6502527e-06
1.2338312e-08
2.6477214e-06
1.4925175e-08
2.6444543e-06
1.9267485e-08
2.6404171e-06
2.3813826e-08
2.6342147e-06
3.6597177e-08
2.6265841e-06
4.5030417e-08
2.608344e-06
1.0765514e-07
2.5955816e-06
7.5142379e-08
1.3568465e-06
7.4856346e-06
8.1610718e-08
7.6101147e-06
4.0090068e-08
1.3524798e-07
3.0377753e-08
3.1396558e-08
2.5679272e-08
1.51855e-08
2.2774086e-08
9.3882756e-09
2.0712449e-08
6.6622544e-09
1.9139275e-08
5.0837998e-09
1.7876842e-08
4.0797184e-09
1.6832736e-08
3.374183e-09
1.594945e-08
2.8544822e-09
1.5187821e-08
2.4613445e-09
1.4521091e-08
2.1546751e-09
1.3930462e-08
1.9087487e-09
1.3402059e-08
1.7076603e-09
1.2925276e-08
1.5408398e-09
1.2491901e-08
1.4005589e-09
1.2095464e-08
1.2811832e-09
1.1730712e-08
1.1787937e-09
1.139347e-08
1.0898863e-09
1.10803e-08
1.0120936e-09
1.0788257e-08
9.4381453e-10
1.0514937e-08
8.8330746e-10
1.0258285e-08
8.2944193e-10
1.001655e-08
7.8123309e-10
9.7882323e-09
7.3787136e-10
9.5720341e-09
6.9870442e-10
9.3668223e-09
6.6319903e-10
9.1716062e-09
6.3089497e-10
8.9855159e-09
6.0140273e-10
8.8077857e-09
5.7438477e-10
8.6377408e-09
5.4954739e-10
8.4747794e-09
5.2665519e-10
8.3183609e-09
5.0551006e-10
8.1680017e-09
4.8592765e-10
8.0232684e-09
4.6774573e-10
7.8837706e-09
4.5082597e-10
7.7491579e-09
4.3503843e-10
7.6191176e-09
4.2026109e-10
7.4933671e-09
4.0639719e-10
7.3716466e-09
3.933731e-10
7.2537194e-09
3.8111389e-10
7.1393738e-09
3.6953874e-10
7.028421e-09
3.5857382e-10
6.9206915e-09
3.4815674e-10
6.8160347e-09
3.3822617e-10
6.7143222e-09
3.2871072e-10
6.6154468e-09
3.1954181e-10
6.5193187e-09
3.1066294e-10
6.4258662e-09
3.0201577e-10
6.335036e-09
2.935408e-10
6.2467932e-09
2.8517872e-10
6.1611242e-09
2.7686087e-10
6.0780447e-09
2.6849233e-10
5.9976197e-09
2.5991329e-10
5.9199606e-09
2.5097435e-10
5.8452108e-09
2.4157257e-10
5.7735527e-09
2.3158066e-10
5.7052109e-09
2.2086375e-10
5.6404601e-09
2.0925896e-10
5.5796647e-09
1.9647715e-10
5.5233188e-09
1.8209907e-10
5.4720402e-09
1.6572497e-10
5.4266453e-09
1.467138e-10
5.3885671e-09
1.2307029e-10
5.357999e-09
9.8806206e-11
5.3388694e-09
6.1839007e-11
5.332593e-09
2.0304525e-11
5.3394071e-09
-2.199412e-11
5.3636482e-09
-7.8315474e-11
5.4072908e-09
-1.4101467e-10
5.4732996e-09
-2.1330077e-10
5.5635976e-09
-2.9180406e-10
5.6781384e-09
-3.7015856e-10
5.8159396e-09
-4.4534254e-10
5.9751741e-09
-5.1463481e-10
6.1486047e-09
-5.6053918e-10
6.3215553e-09
-5.5899809e-10
6.4809706e-09
-5.152533e-10
6.6125564e-09
-4.2529068e-10
6.7142192e-09
-3.2856568e-10
6.7925736e-09
-2.5322917e-10
6.8491587e-09
-1.8286077e-10
6.8903819e-09
-1.3321267e-10
6.9198055e-09
-9.507772e-11
6.9399082e-09
-6.4955488e-11
6.9523744e-09
-4.0276493e-11
6.9583809e-09
-1.9401275e-11
6.9584839e-09
-3.2432637e-13
6.952683e-09
1.8754429e-11
6.9414214e-09
3.640095e-11
6.9255066e-09
5.1437728e-11
6.9055886e-09
6.4374793e-11
6.8825278e-09
7.4530925e-11
6.8571113e-09
8.2143225e-11
6.8299046e-09
8.7929072e-11
6.8015041e-09
9.1786943e-11
6.7724703e-09
9.3833063e-11
6.743115e-09
9.487167e-11
6.7136252e-09
9.5306921e-11
6.6842452e-09
9.4951601e-11
6.6551938e-09
9.3889601e-11
6.6265398e-09
9.2604955e-11
6.5982513e-09
9.1424169e-11
6.57031e-09
9.0302855e-11
6.5427263e-09
8.914693e-11
6.5155551e-09
8.7814271e-11
6.4882318e-09
8.8307946e-11
6.4611541e-09
8.7514226e-11
6.4315099e-09
9.5818274e-11
6.4017387e-09
9.6231509e-11
6.3690046e-09
1.0577155e-10
6.2841517e-11
2.8985257e-06
6.5137858e-10
2.8982566e-06
1.7234704e-09
2.8978893e-06
2.3505962e-09
2.8974658e-06
2.7094786e-09
2.8969807e-06
3.1036031e-09
2.8964268e-06
3.5435922e-09
2.8957979e-06
4.0242228e-09
2.8950853e-06
4.560516e-09
2.8942771e-06
5.172499e-09
2.8933584e-06
5.880639e-09
2.8923104e-06
6.7088597e-09
2.8911091e-06
7.6918886e-09
2.8897233e-06
8.8740148e-09
2.8881092e-06
1.0338802e-08
2.8862111e-06
1.2159369e-08
2.8839294e-06
1.4619984e-08
2.8811701e-06
1.7684498e-08
2.8776091e-06
2.2828456e-08
2.8732091e-06
2.8213827e-08
2.8664505e-06
4.3355781e-08
2.8581362e-06
5.3344705e-08
2.8382631e-06
1.2752827e-07
2.8243424e-06
8.9063068e-08
1.4883155e-06
8.8216615e-06
1.0562959e-07
8.9928007e-06
5.2031101e-08
1.8884647e-07
3.9427759e-08
4.39999e-08
3.3329882e-08
2.1283377e-08
2.955904e-08
1.3159117e-08
2.6883091e-08
9.3382036e-09
2.484116e-08
7.1257311e-09
2.3202587e-08
5.7182918e-09
2.1847397e-08
4.7293725e-09
2.0700944e-08
4.0009348e-09
1.9712401e-08
3.4498878e-09
1.8847035e-08
3.0200413e-09
1.8080444e-08
2.6753395e-09
1.7394618e-08
2.3934863e-09
1.6775793e-08
2.1596649e-09
1.6213309e-08
1.9630429e-09
1.5698769e-08
1.7957238e-09
1.5225352e-08
1.6522103e-09
1.4787643e-08
1.5275954e-09
1.4381175e-08
1.4185615e-09
1.400213e-08
1.3228596e-09
1.3647385e-08
1.238052e-09
1.3314274e-08
1.1625532e-09
1.3000524e-08
1.094983e-09
1.2704189e-08
1.0342067e-09
1.2423583e-08
9.7930985e-10
1.2157237e-08
9.2954511e-10
1.1903865e-08
8.8426741e-10
1.1662337e-08
8.4293079e-10
1.1431659e-08
8.0506217e-10
1.1210957e-08
7.702499e-10
1.0999448e-08
7.3816403e-10
1.0796431e-08
7.0852688e-10
1.0601279e-08
6.8108004e-10
1.0413428e-08
6.5559616e-10
1.0232373e-08
6.3188134e-10
1.0057658e-08
6.0975346e-10
9.8888776e-09
5.890415e-10
9.7256649e-09
5.6960985e-10
9.5676827e-09
5.5135528e-10
9.4146239e-09
5.3417277e-10
9.2662135e-09
5.1794905e-10
9.1222067e-09
5.0258064e-10
8.9823834e-09
4.8798008e-10
8.8465481e-09
4.7406142e-10
8.7145342e-09
4.607246e-10
8.5862025e-09
4.4787352e-10
8.4614365e-09
4.3542897e-10
8.3401431e-09
4.2330916e-10
8.2222532e-09
4.1143069e-10
8.1077215e-09
3.9971043e-10
7.9965303e-09
3.8805212e-10
7.8886999e-09
3.7632273e-10
7.7843148e-09
3.642983e-10
7.6835197e-09
3.5176944e-10
7.5865005e-09
3.3859182e-10
7.4934941e-09
3.2458701e-10
7.4047919e-09
3.0956596e-10
7.3207507e-09
2.9330016e-10
7.2418436e-09
2.7538433e-10
7.1687118e-09
2.552308e-10
7.1021577e-09
2.322791e-10
7.0432408e-09
2.056307e-10
6.9938211e-09
1.7248999e-10
6.9541504e-09
1.3847687e-10
6.9293258e-09
8.6663607e-11
6.9211845e-09
2.8445887e-11
6.9300352e-09
-3.0844859e-11
6.9615041e-09
-1.0978433e-10