/*--------------------------------*- C++ -*----------------------------------*\
| =========                 |                                                 |
| \\      /  F ield         | OpenFOAM: The Open Source CFD Toolbox           |
|  \\    /   O peration     | Version:  2206                                  |
|   \\  /    A nd           | Website:  www.openfoam.com                      |
|    \\/     M anipulation  |                                                 |
\*---------------------------------------------------------------------------*/
FoamFile
{
    version     2.0;
    format      ascii;
    arch        "LSB;label=32;scalar=64";
    class       volVectorField;
    location    "1600";
    object      U;
}
// * * * * * * * * * * * * * * * * * * * * * * * * * * * * * * * * * * * * * //

dimensions      [0 1 -1 0 0 0 0];

internalField   nonuniform List<vector> 
13056
(
(0.99999999 8.6952592e-10 5.0754956e-25)
(0.99993461 2.6087159e-09 0)
(0.99981932 4.03448e-09 0)
(0.99968526 5.2747113e-09 0)
(0.99953182 6.8524025e-09 0)
(0.99935594 8.8697914e-09 0)
(0.9991557 1.1413105e-08 0)
(0.99892869 1.4644586e-08 0)
(0.99867143 1.8788958e-08 0)
(0.99837935 2.4134997e-08 0)
(0.99804678 3.1061828e-08 0)
(0.99766661 4.0097684e-08 0)
(0.99722945 5.1956441e-08 0)
(0.99672345 6.7774488e-08 0)
(0.99613045 8.88964e-08 0)
(0.99543042 1.1862757e-07 0)
(0.99457596 1.5830485e-07 0)
(0.99354784 2.2381595e-07 0)
(0.9921497 3.0031281e-07 0)
(0.99053591 4.9597948e-07 0)
(0.98755009 6.4796079e-07 0)
(0.98481136 1.6228772e-06 0)
(0.97403151 1.1668112e-06 -5.1180884e-21)
(0.97514438 0.00012155683 8.8214984e-18)
(0.0030895677 0.00012188089 0)
(0.0012203994 7.2412462e-08 -1.2266249e-20)
(0.00086931158 4.761126e-08 4.0704325e-18)
(0.00071420656 6.0463156e-09 0)
(0.00062448099 3.7054778e-09 0)
(0.00056285238 2.6054067e-09 0)
(0.00051705866 1.9699046e-09 0)
(0.00048087032 1.5658796e-09 0)
(0.00045126008 1.2824099e-09 0)
(0.00042644732 1.0740115e-09 0)
(0.00040521709 9.1657278e-10 0)
(0.00038674355 7.9390597e-10 0)
(0.00037045865 6.9567465e-10 0)
(0.00035595129 6.1547096e-10 0)
(0.00034290964 5.4902313e-10 0)
(0.00033109294 4.9321768e-10 0)
(0.000320314 4.4577898e-10 0)
(0.00031042295 4.0513433e-10 4.1110316e-25)
(0.00030129548 3.6988675e-10 0)
(0.00029283863 3.3907667e-10 0)
(0.00028496619 3.1205657e-10 0)
(0.00027761076 2.8813238e-10 0)
(0.00027071443 2.6684886e-10 0)
(0.00026422798 2.478124e-10 0)
(0.00025810938 2.3070018e-10 0)
(0.00025232248 2.1525128e-10 0)
(0.00024683576 2.0125157e-10 0)
(0.00024162167 1.8851741e-10 0)
(0.00023665612 1.7689378e-10 0)
(0.00023191785 1.6624714e-10 0)
(0.00022738819 1.5646212e-10 0)
(0.00022305064 1.4744493e-10 0)
(0.00021889032 1.3911588e-10 0)
(0.00021489392 1.3140236e-10 0)
(0.00021104955 1.2424087e-10 0)
(0.00020734649 1.1757695e-10 0)
(0.0002037751 1.1136071e-10 0)
(0.00020032677 1.0554649e-10 0)
(0.00019699381 1.0009713e-10 0)
(0.00019376917 9.4982755e-11 0)
(0.00019064635 9.0174403e-11 0)
(0.00018761951 8.5643111e-11 0)
(0.00018468345 8.1362958e-11 0)
(0.00018183353 7.7311933e-11 0)
(0.00017906556 7.3469343e-11 0)
(0.00017637588 6.9813456e-11 0)
(0.00017376145 6.6324518e-11 0)
(0.00017121972 6.2986493e-11 0)
(0.00016874857 5.9783981e-11 0)
(0.00016634639 5.6702408e-11 0)
(0.00016401201 5.372838e-11 0)
(0.00016174478 5.084778e-11 0)
(0.00015954465 4.8043131e-11 0)
(0.0001574125 4.5287229e-11 0)
(0.00015535086 4.2557623e-11 0)
(0.00015336302 3.9842479e-11 0)
(0.00015145318 3.7127361e-11 0)
(0.00014962668 3.4399089e-11 0)
(0.00014788988 3.1642726e-11 0)
(0.00014625077 2.8827258e-11 0)
(0.0001447204 2.5908024e-11 0)
(0.00014331353 2.2850509e-11 0)
(0.00014204763 1.959548e-11 0)
(0.00014094789 1.5911629e-11 0)
(0.00014006438 1.2381225e-11 0)
(0.00013935521 2.8150054e-11 0)
(0.00013907301 2.6426155e-12 -5.7826326e-25)
(0.00013903086 -2.609705e-12 0)
(0.00013943482 -8.3650834e-12 0)
(0.0001403024 -1.4549357e-11 0)
(0.00014172016 -2.1199548e-11 0)
(0.0001437563 -2.7891852e-11 0)
(0.00014644248 -3.3978951e-11 0)
(0.00014974334 -3.9203896e-11 0)
(0.00015364377 -4.3404039e-11 0)
(0.00015806286 -4.5248919e-11 0)
(0.00016269909 -4.3132602e-11 0)
(0.00016708315 -3.7958599e-11 0)
(0.0001710085 -1.1236622e-10 9.6017774e-21)
(0.00017392536 -2.1934264e-11 0)
(0.00017629957 -1.6067023e-11 0)
(0.00017799623 -1.0993777e-11 0)
(0.00017923918 -7.5819334e-12 0)
(0.00018013691 -5.1141428e-12 0)
(0.00018076606 -3.2971861e-12 0)
(0.00018117879 -1.9272421e-12 0)
(0.00018141039 -8.7633202e-13 0)
(0.00018148677 -2.5490873e-14 0)
(0.0001814103 7.2900117e-13 0)
(0.00018118357 1.3823414e-12 0)
(0.00018082564 1.9567742e-12 0)
(0.00018035339 2.4512189e-12 0)
(0.00017978669 2.8393395e-12 0)
(0.00017915057 3.1301901e-12 0)
(0.00017846106 3.3515281e-12 0)
(0.00017773156 3.4991621e-12 0)
(0.00017697979 3.5774824e-12 0)
(0.0001762173 3.617372e-12 0)
(0.00017544878 3.6342905e-12 0)
(0.00017467925 3.6209769e-12 0)
(0.00017391646 3.5805705e-12 0)
(0.00017316409 3.5317012e-12 0)
(0.00017242203 3.4868084e-12 0)
(0.00017168869 3.4442506e-12 0)
(0.00017096471 3.4002727e-12 0)
(0.00017025001 3.3496128e-12 0)
(0.00016954754 3.368542e-12 0)
(0.00016882477 3.3394115e-12 0)
(0.00016813514 3.6547833e-12 0)
(0.00016727785 1.3860093e-11 0)
(0.00016658187 3.9789654e-12 4.8285999e-24)
(0.00016556978 9.136741e-12 0)
(0.99999999 2.6226556e-09 0)
(0.99993456 7.8695844e-09 0)
(0.99981914 1.2171656e-08 0)
(0.99968492 1.5913751e-08 0)
(0.9995313 2.0673626e-08 0)
(0.99935521 2.6759909e-08 0)
(0.99915473 3.4432738e-08 0)
(0.99892746 4.4181487e-08 0)
(0.9986699 5.6684004e-08 0)
(0.9983775 7.281133e-08 0)
(0.99804457 9.3707e-08 0)
(0.99766398 1.2096426e-07 0)
(0.99722638 1.5673623e-07 0)
(0.99671987 2.0445036e-07 0)
(0.9961263 2.6816171e-07 0)
(0.99542561 3.5783952e-07 0)
(0.99457039 4.7751424e-07 0)
(0.99354139 6.7510334e-07 0)
(0.99214214 9.0582014e-07 0)
(0.99052713 1.4959321e-06 0)
(0.98753933 1.9542894e-06 0)
(0.98479881 4.8946385e-06 0)
(0.97401211 3.5184653e-06 1.8997794e-20)
(0.97512013 0.0003653513 -7.062518e-21)
(0.0092799593 0.0003667877 0)
(0.0036791636 1.195628e-06 0)
(0.0026208877 2.6825764e-07 3.9026219e-22)
(0.0021533083 1.2672073e-07 0)
(0.0018827805 7.7634377e-08 0)
(0.0016969673 5.4593741e-08 0)
(0.0015588955 4.1273887e-08 0)
(0.0014497871 3.2808314e-08 0)
(0.0013605124 2.6869278e-08 0)
(0.0012857021 2.2502572e-08 0)
(0.0012216934 1.920361e-08 0)
(0.0011659964 1.6633353e-08 0)
(0.0011168983 1.4575154e-08 0)
(0.0010731594 1.2894691e-08 0)
(0.0010338397 1.1502451e-08 0)
(0.00099821314 1.0333193e-08 0)
(0.00096571542 9.3393982e-09 0)
(0.00093589461 8.4878466e-09 -6.2649881e-25)
(0.00090837611 7.7493259e-09 -9.6856982e-25)
(0.00088287937 7.1038596e-09 0)
(0.0008591446 6.5376883e-09 0)
(0.00083696862 6.0364285e-09 0)
(0.00081617677 5.5905009e-09 0)
(0.0007966207 5.1916578e-09 0)
(0.00077817366 4.8331347e-09 0)
(0.00076072668 4.5094619e-09 0)
(0.00074418471 4.2161519e-09 0)
(0.00072846472 3.9493586e-09 0)
(0.00071349403 3.7058326e-09 0)
(0.00069920857 3.4827767e-09 0)
(0.00068555208 3.2777747e-09 0)
(0.00067247475 3.0888589e-09 0)
(0.00065993178 2.91436e-09 0)
(0.000647883 2.7527572e-09 0)
(0.00063629256 2.6027199e-09 0)
(0.0006251282 2.4631071e-09 0)
(0.00061436079 2.3328736e-09 0)
(0.00060396439 2.2110632e-09 0)
(0.00059391581 2.0968965e-09 0)
(0.00058419381 1.989747e-09 0)
(0.00057477878 1.8890085e-09 0)
(0.00056565312 1.794074e-09 0)
(0.00055680117 1.7044004e-09 0)
(0.00054820892 1.6195261e-09 0)
(0.00053986372 1.5390178e-09 0)
(0.00053175456 1.4624207e-09 0)
(0.00052387228 1.3893201e-09 0)
(0.00051620919 1.3193794e-09 0)
(0.00050875888 1.2522756e-09 0)
(0.0005015165 1.1877035e-09 0)
(0.00049447854 1.1253816e-09 0)
(0.00048764304 1.0650147e-09 0)
(0.00048100982 1.0062353e-09 0)
(0.00047458156 9.4847398e-10 0)
(0.00046836589 8.9126021e-10 0)
(0.00046237272 8.3434118e-10 0)
(0.00045661471 7.7741731e-10 0)
(0.00045110798 7.2021157e-10 0)
(0.00044587172 6.6240689e-10 0)
(0.00044093 6.0335296e-10 0)
(0.00043631614 5.4211491e-10 0)
(0.00043207465 4.7796352e-10 0)
(0.00042825824 4.0963181e-10 0)
(0.00042494287 3.3240812e-10 0)
(0.00042227942 2.5798194e-10 0)
(0.00042014193 1.5825808e-10 8.8613002e-25)
(0.0004192913 4.9315652e-11 1.81123e-24)
(0.00041916496 -5.1253224e-11 0)
(0.00042038342 -1.7678542e-10 0)
(0.00042299977 -3.0643301e-10 0)
(0.00042727488 -4.4572051e-10 0)
(0.00043341422 -5.8572202e-10 0)
(0.00044151324 -7.1292133e-10 0)
(0.00045146533 -8.2210038e-10 0)
(0.00046322472 -9.0955892e-10 0)
(0.00047654722 -9.4735587e-10 0)
(0.00049052387 -9.0224616e-10 0)
(0.0005037402 -7.9314625e-10 0)
(0.0005155733 -6.3257961e-10 -2.0070914e-24)
(0.00052436708 -4.5805759e-10 -2.6931072e-24)
(0.00053152439 -3.3520453e-10 0)
(0.00053663959 -2.2945901e-10 0)
(0.00054038697 -1.5820378e-10 0)
(0.00054309361 -1.06672e-10 0)
(0.00054499051 -6.8717288e-11 0)
(0.00054623497 -4.0091791e-11 0)
(0.00054693332 -1.8125772e-11 0)
(0.00054716365 -2.602586e-13 0)
(0.00054693319 1.5386654e-11 0)
(0.00054624966 2.9092613e-11 0)
(0.00054517055 4.1102439e-11 0)
(0.00054374679 5.1436404e-11 0)
(0.0005420383 5.9548087e-11 0)
(0.00054012048 6.5627985e-11 0)
(0.00053804168 7.0250254e-11 0)
(0.00053584236 7.3331538e-11 0)
(0.00053357588 7.4964798e-11 0)
(0.00053127706 7.5794189e-11 0)
(0.00052896005 7.614227e-11 0)
(0.00052664004 7.5858059e-11 0)
(0.00052434033 7.5008811e-11 0)
(0.00052207201 7.3982506e-11 0)
(0.00051983481 7.3039846e-11 0)
(0.0005176239 7.2144958e-11 0)
(0.00051544122 7.1221999e-11 0)
(0.00051328652 7.0157704e-11 0)
(0.00051116867 7.0555695e-11 0)
(0.0005089897 6.9924033e-11 0)
(0.00050691058 7.6569586e-11 0)
(0.0005043264 7.8053206e-11 0)
(0.00050222808 8.4351901e-11 -7.4689347e-24)
(0.00049917674 5.117144e-11 1.1576792e-24)
(0.99999999 4.4164146e-09 0)
(0.9999345 1.3253151e-08 0)
(0.99981894 2.0499863e-08 0)
(0.99968455 2.6803082e-08 0)
(0.99953072 3.482e-08 0)
(0.9993544 4.5070713e-08 0)
(0.99915365 5.7993348e-08 0)
(0.99892609 7.4411974e-08 0)
(0.9986682 9.5468053e-08 0)
(0.99837544 1.2262836e-07 0)
(0.9980421 1.5781848e-07 0)
(0.99766106 2.0372123e-07 0)
(0.99722295 2.6396205e-07 0)
(0.99671588 3.4431212e-07 0)
(0.99612166 4.5159897e-07 0)
(0.99542025 6.0260873e-07 0)
(0.99456418 8.0412551e-07 0)
(0.99353422 1.1368313e-06 0)
(0.99213373 1.5253084e-06 0)
(0.99051737 2.518891e-06 0)
(0.98752737 3.2906315e-06 0)
(0.98478486 8.2414833e-06 0)
(0.97399059 5.9266226e-06 -1.0065063e-20)
(0.97509331 0.00061286531 6.7492711e-55)
(0.01557253 0.00061642026 -6.7468957e-55)
(0.0061925208 3.3517506e-06 0)
(0.0044115169 7.6629398e-07 -2.0884888e-22)
(0.0036245452 3.6789191e-07 0)
(0.0031691694 2.2539695e-07 0)
(0.0028563934 1.5850457e-07 0)
(0.0026239774 1.1983141e-07 0)
(0.0024403188 9.5251958e-08 0)
(0.0022900465 7.800909e-08 0)
(0.0021641216 6.5331187e-08 0)
(0.002056379 5.5753156e-08 0)
(0.0019626274 4.8290845e-08 0)
(0.0018799835 4.2315274e-08 0)
(0.0018063608 3.7436418e-08 0)
(0.0017401766 3.3394361e-08 0)
(0.001680209 2.9999694e-08 0)
(0.0016255079 2.711446e-08 0)
(0.0015753127 2.4642169e-08 0)
(0.001528993 2.2498056e-08 0)
(0.0014860763 2.0624128e-08 0)
(0.0014461254 1.8980393e-08 0)
(0.0014087983 1.7525118e-08 0)
(0.001373801 1.6230486e-08 0)
(0.0013408838 1.5072552e-08 0)
(0.0013098334 1.4031678e-08 0)
(0.0012804663 1.3091982e-08 0)
(0.0012526225 1.2240437e-08 0)
(0.0012261623 1.1465877e-08 0)
(0.0012009634 1.0758866e-08 0)
(0.0011769178 1.0111285e-08 0)
(0.001153931 9.5161189e-09 0)
(0.001131919 8.9676548e-09 0)
(0.0011108064 8.4610462e-09 0)
(0.0010905257 7.9918779e-09 0)
(0.0010710164 7.5562868e-09 0)
(0.0010522244 7.1509608e-09 0)
(0.0010341004 6.7728646e-09 0)
(0.001016601 6.4192231e-09 0)
(0.00099968706 6.0877732e-09 0)
(0.0009833228 5.7766958e-09 0)
(0.00096747523 5.4842308e-09 0)
(0.00095211475 5.2086162e-09 0)
(0.00093721496 4.9482751e-09 0)
(0.00092275229 4.7018673e-09 0)
(0.00090870548 4.4681352e-09 0)
(0.00089505596 4.2457582e-09 0)
(0.00088178833 4.0335327e-09 0)
(0.00086888965 3.8304808e-09 0)
(0.00085634911 3.6356654e-09 0)
(0.00084415858 3.4482001e-09 0)
(0.00083231211 3.2672674e-09 0)
(0.00082080643 3.0920104e-09 0)
(0.00080964123 2.9213617e-09 0)
(0.00079882102 2.7536692e-09 0)
(0.00078835866 2.587567e-09 0)
(0.00077827083 2.4223201e-09 0)
(0.00076857881 2.2570595e-09 0)
(0.00075930977 2.0909805e-09 0)
(0.000750496 1.9231608e-09 0)
(0.00074217803 1.751713e-09 0)
(0.00073441196 1.5739225e-09 0)
(0.00072727272 1.3876722e-09 0)
(0.00072084907 1.1892841e-09 0)
(0.00071526888 9.6507512e-10 0)
(0.00071078604 7.4902931e-10 0)
(0.00070718893 4.52157e-10 1.8783626e-24)
(0.00070575735 1.4376774e-10 -9.5986978e-25)
(0.00070554563 -1.4938146e-10 0)
(0.00070759727 -5.1323286e-10 0)
(0.00071200202 -8.8962142e-10 0)
(0.00071919881 -1.2939918e-09 0)
(0.00072953339 -1.7004384e-09 0)
(0.00074316634 -2.0697248e-09 0)
(0.00075991823 -2.3866893e-09 0)
(0.00077971176 -2.6405638e-09 0)
(0.00080213557 -2.7502886e-09 0)
(0.00082565978 -2.6193571e-09 0)
(0.00084790418 -2.3027068e-09 0)
(0.00086782002 -1.8073313e-09 0)
(0.00088262159 -1.3299021e-09 0)
(0.00089466804 -9.7328455e-10 0)
(0.00090327803 -6.6625646e-10 0)
(0.00090958574 -4.5937355e-10 0)
(0.00091414175 -3.0975377e-10 0)
(0.00091733482 -1.9955095e-10 0)
(0.00091942968 -1.164372e-10 0)
(0.00092060532 -5.2657557e-11 0)
(0.00092099315 -7.9308205e-13 0)
(0.00092060534 4.4653797e-11 0)
(0.00091945491 8.4444426e-11 0)
(0.00091763858 1.1931509e-10 0)
(0.00091524214 1.493191e-10 0)
(0.00091236644 1.7287164e-10 0)
(0.00090913837 1.9052499e-10 0)
(0.00090563934 2.0394514e-10 0)
(0.00090193746 2.1289207e-10 0)
(0.00089812252 2.1763532e-10 0)
(0.00089425314 2.2004385e-10 0)
(0.00089035316 2.2105449e-10 0)
(0.00088644811 2.2022997e-10 0)
(0.00088257725 2.177653e-10 0)
(0.0008787592 2.1478585e-10 0)
(0.00087499354 2.1204884e-10 0)
(0.00087127215 2.0945025e-10 0)
(0.00086759828 2.0677064e-10 0)
(0.00086397151 2.0368046e-10 0)
(0.00086040677 2.0483445e-10 0)
(0.00085673926 2.0299674e-10 0)
(0.0008532397 2.2228987e-10 0)
(0.00084889061 2.2294821e-10 0)
(0.00084535868 2.4509112e-10 0)
(0.00084022261 1.4588614e-10 0)
(0.99999999 6.2778447e-09 1.0877038e-24)
(0.99993443 1.8841143e-08 0)
(0.99981872 2.9145882e-08 0)
(0.99968412 3.8108619e-08 0)
(0.99953007 4.9507068e-08 0)
(0.99935348 6.4081144e-08 0)
(0.99915245 8.2453755e-08 0)
(0.99892456 1.0579629e-07 0)
(0.9986663 1.3573134e-07 0)
(0.99837313 1.7434388e-07 0)
(0.99803933 2.2437103e-07 0)
(0.9976578 2.8962616e-07 0)
(0.99721912 3.7526236e-07 0)
(0.99671141 4.8948256e-07 0)
(0.99611648 6.4199051e-07 0)
(0.99541425 8.5664509e-07 0)
(0.99455724 1.1430851e-06 0)
(0.99352619 1.6159861e-06 0)
(0.99212432 2.1681428e-06 0)
(0.99050646 3.5803004e-06 0)
(0.987514 4.6771506e-06 0)
(0.98476927 1.1713865e-05 0)
(0.97396661 8.4268281e-06 0)
(0.97506347 0.00086773379 -3.5211698e-55)
(0.022058073 0.00087458754 3.519939e-55)
(0.0087979006 6.9104978e-06 0)
(0.006267881 1.5798269e-06 0)
(0.0051498443 7.5777483e-07 0)
(0.0045028191 4.6428817e-07 0)
(0.0040584095 3.2650071e-07 0)
(0.0037281767 2.4683736e-07 0)
(0.0034672267 1.9620497e-07 0)
(0.0032537144 1.6068689e-07 0)
(0.0030747959 1.3457211e-07 0)
(0.0029217121 1.1484247e-07 0)
(0.0027885077 9.9471021e-08 0)
(0.0026710858 8.7162181e-08 0)
(0.0025664814 7.711247e-08 0)
(0.002472446 6.8786455e-08 0)
(0.0023872433 6.1793982e-08 0)
(0.0023095235 5.5850901e-08 0)
(0.0022382056 5.075835e-08 0)
(0.0021723945 4.6341835e-08 0)
(0.002111418 4.2481914e-08 0)
(0.0020546555 3.9096092e-08 0)
(0.002001621 3.6098483e-08 0)
(0.0019518966 3.3431774e-08 0)
(0.0019051278 3.1046638e-08 0)
(0.0018610112 2.8902627e-08 0)
(0.0018192863 2.6967027e-08 0)
(0.0017797258 2.5213001e-08 0)
(0.001742131 2.3617549e-08 0)
(0.0017063283 2.2161238e-08 0)
(0.0016721643 2.0827341e-08 0)
(0.0016395045 1.9601411e-08 0)
(0.0016082298 1.8471678e-08 0)
(0.001578233 1.742816e-08 0)
(0.001549418 1.6461762e-08 0)
(0.0015216992 1.5564526e-08 0)
(0.0014949994 1.4729631e-08 0)
(0.0014692489 1.3950825e-08 0)
(0.0014443856 1.3222391e-08 0)
(0.0014203542 1.2539668e-08 0)
(0.0013971038 1.1898909e-08 0)
(0.0013745875 1.1296487e-08 0)
(0.0013527633 1.0728774e-08 0)
(0.0013315936 1.0192522e-08 0)
(0.0013110449 9.6849692e-09 0)
(0.0012910871 9.2035261e-09 0)
(0.0012716938 8.7454724e-09 0)
(0.0012528431 8.3083289e-09 0)
(0.0012345166 7.8900814e-09 0)
(0.0012166989 7.488799e-09 0)
(0.0011993785 7.1026563e-09 0)
(0.0011825469 6.7299691e-09 0)
(0.0011661995 6.3689718e-09 0)
(0.0011503359 6.017466e-09 0)
(0.0011349625 5.6720495e-09 0)
(0.0011200975 5.3299086e-09 0)
(0.0011057646 4.9895282e-09 0)
(0.0010919941 4.6491191e-09 0)
(0.0010788246 4.3070231e-09 0)
(0.0010663019 3.9613378e-09 0)
(0.0010544837 3.6081758e-09 0)
(0.0010434497 3.2419454e-09 0)
(0.0010333064 2.858284e-09 0)
(0.0010241799 2.4496143e-09 0)
(0.0010162519 1.9877664e-09 0)
(0.0010098831 1.5427053e-09 0)
(0.0010047733 9.3213068e-10 -1.022736e-24)
(0.0010027396 2.9588103e-10 0)
(0.00100244 -3.0784068e-10 0)
(0.0010053559 -1.0573836e-09 0)
(0.0010116152 -1.8326809e-09 0)
(0.0010218415 -2.6655833e-09 0)
(0.0010365258 -3.5027418e-09 0)
(0.0010558962 -4.2633501e-09 0)
(0.0010796978 -4.9161725e-09 0)
(0.0011078203 -5.4389715e-09 0)
(0.0011396789 -5.6648384e-09 0)
(0.0011731001 -5.3950757e-09 0)
(0.0012047029 -4.7428373e-09 0)
(0.001232997 -3.7263006e-09 2.3163299e-24)
(0.0012540268 -2.7392294e-09 0)
(0.0012711415 -2.0047155e-09 0)
(0.0012833747 -1.3723549e-09 0)
(0.0012923369 -9.4622852e-10 0)
(0.0012988103 -6.3804861e-10 0)
(0.0013033474 -4.1105237e-10 0)
(0.001306324 -2.3985386e-10 0)
(0.0013079947 -1.0847731e-10 0)
(0.0013085459 -1.6416015e-12 0)
(0.0013079951 9.1970206e-11 0)
(0.0013063607 1.7393451e-10 0)
(0.0013037802 2.4576262e-10 0)
(0.0013003754 3.075649e-10 0)
(0.0012962897 3.5607971e-10 0)
(0.0012917034 3.9244241e-10 0)
(0.001286732 4.2008443e-10 0)
(0.0012814724 4.3851341e-10 0)
(0.0012760522 4.4828447e-10 0)
(0.0012705547 4.5324556e-10 0)
(0.0012650136 4.5532657e-10 0)
(0.0012594654 4.5362826e-10 0)
(0.0012539657 4.4855217e-10 0)
(0.0012485411 4.4241495e-10 0)
(0.0012431909 4.3677651e-10 0)
(0.0012379036 4.3142288e-10 0)
(0.0012326838 4.2590284e-10 0)
(0.001227531 4.1953717e-10 0)
(0.0012224663 4.2191091e-10 0)
(0.0012172557 4.1812183e-10 0)
(0.0012122836 4.5785372e-10 0)
(0.0012061053 4.5962917e-10 0)
(0.0012010871 5.0504613e-10 0)
(0.0011937898 3.0046835e-10 0)
(0.99999999 8.2350062e-09 0)
(0.99993436 2.4718009e-08 0)
(0.99981847 3.8240664e-08 0)
(0.99968365 5.0001719e-08 0)
(0.99952933 6.4957443e-08 0)
(0.99935246 8.4079304e-08 0)
(0.99915109 1.0818458e-07 0)
(0.99892283 1.3880985e-07 0)
(0.99866416 1.7808356e-07 0)
(0.99837053 2.2874072e-07 0)
(0.99803623 2.9437166e-07 0)
(0.99765412 3.7997835e-07 0)
(0.99721481 4.9231977e-07 0)
(0.99670639 6.4215526e-07 0)
(0.99611066 8.4221165e-07 0)
(0.99540752 1.1237828e-06 0)
(0.99454944 1.4995059e-06 0)
(0.99351717 2.1197898e-06 0)
(0.99211376 2.8440065e-06 0)
(0.9904942 4.6961298e-06 0)
(0.98749899 6.1346918e-06 0)
(0.98475179 1.5363982e-05 0)
(0.97393975 1.1056955e-05 0)
(0.97503011 0.0011335683 0)
(0.028828476 0.0011449655 0)
(0.011534093 1.2027109e-05 0)
(0.0082176405 2.7410888e-06 0)
(0.0067519404 1.3142236e-06 0)
(0.005903607 8.0526353e-07 0)
(0.0053209303 5.662868e-07 0)
(0.0048879495 4.281162e-07 0)
(0.0045458144 3.4029593e-07 0)
(0.0042658772 2.7869316e-07 0)
(0.0040312963 2.3339968e-07 0)
(0.0038305881 1.9918029e-07 0)
(0.0036559446 1.7251989e-07 0)
(0.0035019939 1.5117149e-07 0)
(0.0033648484 1.3374139e-07 0)
(0.00324156 1.1930088e-07 0)
(0.0031298523 1.0717327e-07 0)
(0.0030279552 9.6865784e-08 0)
(0.0029344516 8.8033316e-08 0)
(0.0028481682 8.0373424e-08 0)
(0.0027682231 7.3678977e-08 0)
(0.0026938031 6.7806688e-08 0)
(0.0026242707 6.2607738e-08 0)
(0.0025590783 5.7982691e-08 0)
(0.0024977607 5.3845999e-08 0)
(0.0024399205 5.0127507e-08 0)
(0.002385216 4.6770478e-08 0)
(0.0023333491 4.3728364e-08 0)
(0.0022840596 4.0961276e-08 0)
(0.0022371195 3.8435508e-08 0)
(0.0021923279 3.6122053e-08 0)
(0.0021495084 3.3995852e-08 0)
(0.0021085049 3.2036491e-08 0)
(0.0020691768 3.0226657e-08 0)
(0.0020313983 2.8550578e-08 0)
(0.0019950568 2.6994452e-08 0)
(0.0019600513 2.5546446e-08 0)
(0.0019262905 2.4195719e-08 0)
(0.0018936929 2.2932357e-08 0)
(0.0018621858 2.1748274e-08 0)
(0.0018317028 2.063697e-08 0)
(0.0018021822 1.9592158e-08 0)
(0.0017735689 1.8607543e-08 0)
(0.0017458138 1.7677492e-08 0)
(0.001718873 1.6797216e-08 0)
(0.0016927067 1.5962223e-08 0)
(0.0016672806 1.5167797e-08 0)
(0.0016425658 1.4409636e-08 0)
(0.0016185382 1.3684247e-08 0)
(0.0015951778 1.2988282e-08 0)
(0.0015724694 1.2318573e-08 0)
(0.0015504018 1.1672201e-08 0)
(0.0015289691 1.1046102e-08 0)
(0.0015081706 1.0436463e-08 0)
(0.0014880148 9.8373854e-09 0)
(0.0014685255 9.2439888e-09 0)
(0.0014497339 8.6536437e-09 0)
(0.0014316797 8.0632483e-09 0)
(0.0014144134 7.4699248e-09 0)
(0.0013979952 6.8703708e-09 0)
(0.0013825006 6.2578434e-09 0)
(0.0013680343 5.622645e-09 0)
(0.0013547358 4.9572062e-09 0)
(0.0013427705 4.2483841e-09 0)
(0.0013323768 3.4473445e-09 0)
(0.0013240273 2.6753708e-09 0)
(0.0013173291 1.617243e-09 0)
(0.0013146631 5.1286372e-10 0)
(0.0013142718 -5.3419739e-10 0)
(0.0013180958 -1.8342021e-09 0)
(0.0013263037 -3.1788566e-09 0)
(0.0013397125 -4.6233671e-09 0)
(0.0013589658 -6.0752302e-09 0)
(0.0013843626 -7.3943204e-09 0)
(0.0014155687 -8.5264437e-09 0)
(0.0014524391 -9.4329579e-09 0)
(0.0014942063 -9.824476e-09 0)
(0.0015380213 -9.3565225e-09 0)
(0.0015794524 -8.2253162e-09 0)
(0.0016165453 -6.4657601e-09 0)
(0.0016441166 -4.7506515e-09 0)
(0.0016665541 -3.4768106e-09 0)
(0.001682593 -2.3801655e-09 0)
(0.0016943435 -1.6411259e-09 0)
(0.0017028312 -1.1066417e-09 0)
(0.0017087801 -7.1294772e-10 0)
(0.0017126832 -4.1602616e-10 0)
(0.0017148739 -1.8816667e-10 0)
(0.001715597 -2.8680617e-12 0)
(0.0017148752 1.5949158e-10 0)
(0.0017127327 3.01652e-10 0)
(0.0017093496 4.2623024e-10 0)
(0.0017048858 5.3341771e-10 0)
(0.0016995293 6.1756112e-10 0)
(0.0016935164 6.8062838e-10 0)
(0.0016869986 7.285685e-10 0)
(0.0016801031 7.6053121e-10 0)
(0.0016729969 7.7747932e-10 0)
(0.0016657892 7.8608374e-10 0)
(0.0016585246 7.89692e-10 0)
(0.0016512506 7.8674675e-10 0)
(0.0016440401 7.7794414e-10 0)
(0.0016369281 7.6729994e-10 0)
(0.0016299137 7.5751968e-10 0)
(0.0016229817 7.4823298e-10 0)
(0.0016161383 7.3865829e-10 0)
(0.0016093827 7.2761738e-10 0)
(0.0016027426 7.3172786e-10 0)
(0.0015959115 7.2515307e-10 0)
(0.0015893928 7.9403978e-10 0)
(0.0015812938 7.9748663e-10 0)
(0.0015747146 8.7613497e-10 -9.6216531e-24)
(0.0015651473 5.210553e-10 1.4913772e-24)
(0.99999999 1.0317561e-08 0)
(0.99993427 3.0973156e-08 0)
(0.99981819 4.7923021e-08 0)
(0.99968312 6.2664096e-08 0)
(0.99952851 8.1407191e-08 0)
(0.9993513 1.0537068e-07 0)
(0.99914956 1.3557876e-07 0)
(0.99892088 1.739566e-07 0)
(0.99866175 2.2317094e-07 0)
(0.9983676 2.8664845e-07 0)
(0.99803272 3.6888728e-07 0)
(0.99764997 4.7615399e-07 0)
(0.99720995 6.1691606e-07 0)
(0.99670073 8.0465242e-07 0)
(0.99610409 1.0553055e-06 0)
(0.99539992 1.4080787e-06 0)
(0.99454064 1.8787956e-06 0)
(0.99350701 2.6558778e-06 0)
(0.99210185 3.5631327e-06 0)
(0.99048039 5.8832455e-06 0)
(0.98748208 7.6852679e-06 0)
(0.98473209 1.9246927e-05 0)
(0.97390956 1.3857225e-05 0)
(0.9749927 0.0014140291 0)
(0.035977812 0.0014314866 0)
(0.014441823 1.8855128e-05 0)
(0.010289848 4.3157119e-06 0)
(0.0084547155 2.0692687e-06 0)
(0.0073924127 1.2679703e-06 0)
(0.0066627733 8.9167993e-07 0)
(0.0061205807 6.7411334e-07 0)
(0.0056921564 5.3582613e-07 0)
(0.0053416189 4.388261e-07 0)
(0.0050478769 3.6750709e-07 0)
(0.0047965511 3.1362484e-07 0)
(0.0045778646 2.7164519e-07 0)
(0.00438509 2.3803011e-07 0)
(0.004213359 2.1058492e-07 0)
(0.0040589797 1.8784714e-07 0)
(0.0039191018 1.6875126e-07 0)
(0.0037915088 1.5252141e-07 0)
(0.0036744257 1.3861391e-07 1.7619451e-24)
(0.0035663842 1.2655284e-07 0)
(0.003466279 1.1601211e-07 -8.9219813e-35)
(0.0033730923 1.0676574e-07 0)
(0.0032860258 9.8579649e-08 0)
(0.0032043937 9.1297212e-08 0)
(0.0031276137 8.4783726e-08 0)
(0.0030551879 7.8928728e-08 0)
(0.0029866885 7.3642878e-08 0)
(0.0029217424 6.8852884e-08 0)
(0.0028600235 6.4495935e-08 0)
(0.0028012465 6.0518961e-08 0)
(0.0027451598 5.6876287e-08 0)
(0.0026915425 5.3528458e-08 0)
(0.0026401992 5.0443331e-08 0)
(0.0025909537 4.7593642e-08 0)
(0.0025436486 4.4954557e-08 0)
(0.0024981429 4.2504348e-08 0)
(0.0024543101 4.022438e-08 0)
(0.0024120357 3.8097583e-08 0)
(0.002371218 3.6108349e-08 0)
(0.0023317658 3.4243946e-08 0)
(0.0022935958 3.2494137e-08 0)
(0.002256631 3.0849024e-08 0)
(0.0022208022 2.9298693e-08 0)
(0.0021860481 2.7834277e-08 0)
(0.0021523135 2.6448234e-08 0)
(0.0021195488 2.5133493e-08 0)
(0.0020877109 2.3882625e-08 0)
(0.0020567637 2.268886e-08 0)
(0.002026677 2.1546697e-08 0)
(0.0019974257 2.0450862e-08 0)
(0.0019689907 1.939637e-08 0)
(0.0019413583 1.8378619e-08 0)
(0.0019145207 1.739279e-08 0)
(0.0018884773 1.6432875e-08 0)
(0.0018632386 1.548959e-08 0)
(0.0018388346 1.455525e-08 0)
(0.0018153042 1.3625713e-08 0)
(0.0017926971 1.2696095e-08 0)
(0.0017710766 1.1761863e-08 0)
(0.0017505181 1.0817813e-08 0)
(0.0017311163 9.8533255e-09 0)
(0.001713002 8.853132e-09 0)
(0.0016963501 7.8053095e-09 0)
(0.0016813679 6.6891631e-09 0)
(0.0016683537 5.4278329e-09 0)
(0.0016578993 4.212195e-09 0)
(0.0016495134 2.5462319e-09 0)
(0.0016461755 8.0715397e-10 0)
(0.0016456874 -8.416024e-10 0)
(0.001650477 -2.8885149e-09 0)
(0.0016607564 -5.0057696e-09 0)
(0.0016775479 -7.2801718e-09 0)
(0.0017016576 -9.5661115e-09 0)
(0.0017334596 -1.1642986e-08 0)
(0.0017725354 -1.342542e-08 0)
(0.0018187029 -1.4852469e-08 0)
(0.0018710003 -1.5468623e-08 0)
(0.0019258607 -1.4731694e-08 0)
(0.0019777362 -1.2950572e-08 0)
(0.0020241794 -1.0180771e-08 0)
(0.002058703 -7.4799953e-09 -1.9804612e-24)
(0.0020867974 -5.4743553e-09 0)
(0.0021068815 -3.7477638e-09 0)
(0.0021215957 -2.5841193e-09 0)
(0.0021322245 -1.7425519e-09 0)
(0.0021396742 -1.1226515e-09 0)
(0.0021445622 -6.5512443e-10 0)
(0.0021473061 -2.9633519e-10 0)
(0.0021482121 -4.5589987e-12 0)
(0.0021473087 2.5109398e-10 0)
(0.0021446262 4.7494262e-10 0)
(0.0021403903 6.7110363e-10 0)
(0.0021348012 8.3987803e-10 0)
(0.0021280942 9.7236942e-10 0)
(0.0021205651 1.0716755e-09 0)
(0.002112404 1.1471591e-09 0)
(0.0021037698 1.1974871e-09 0)
(0.0020948717 1.2241758e-09 0)
(0.0020858466 1.2377244e-09 0)
(0.0020767502 1.2434045e-09 0)
(0.002067642 1.2387677e-09 0)
(0.0020586134 1.2249094e-09 0)
(0.0020497081 1.2081495e-09 0)
(0.0020409249 1.192748e-09 0)
(0.0020322451 1.1781232e-09 0)
(0.0020236761 1.1630456e-09 0)
(0.0020152171 1.1456604e-09 0)
(0.0020069027 1.1521213e-09 0)
(0.0019983495 1.1417666e-09 0)
(0.001990187 1.2501881e-09 0)
(0.0019800474 1.2556325e-09 0)
(0.0019718091 1.3797267e-09 0)
(0.0019598292 8.2014313e-10 -8.511753e-25)
(0.99999999 1.2557215e-08 0)
(0.99993418 3.77023e-08 0)
(0.99981787 5.8341719e-08 0)
(0.99968251 7.6290566e-08 0)
(0.99952758 9.9109404e-08 0)
(0.99934999 1.2828276e-07 0)
(0.99914783 1.650575e-07 0)
(0.99891868 2.1177668e-07 0)
(0.99865902 2.7168596e-07 0)
(0.99836428 3.4895585e-07 0)
(0.99802875 4.4906074e-07 0)
(0.99764528 5.79627e-07 0)
(0.99720445 7.5095905e-07 0)
(0.99669432 9.7945991e-07 0)
(0.99609665 1.2845287e-06 0)
(0.99539132 1.7138727e-06 0)
(0.99453069 2.2867378e-06 0)
(0.99349551 3.2324132e-06 0)
(0.99208838 4.3364589e-06 0)
(0.99046477 7.1596632e-06 0)
(0.98746298 9.3523951e-06 0)
(0.98470983 2.3421508e-05 0)
(0.97387552 1.6870703e-05 0)
(0.97495065 0.0017128786 0)
(0.043603376 0.0017382342 0)
(0.017564355 2.7848249e-05 0)
(0.012515379 6.3984414e-06 0)
(0.010283555 3.068196e-06 0)
(0.0089914294 1.8801867e-06 0)
(0.0081039396 1.3222153e-06 0)
(0.0074444416 9.99597e-07 0)
(0.0069233372 7.9453226e-07 0)
(0.0064969716 6.5069733e-07 0)
(0.0061396875 5.4494365e-07 0)
(0.0058339965 4.6504491e-07 0)
(0.0055680064 4.02796e-07 0)
(0.005333534 3.5295079e-07 0)
(0.0051246574 3.1225466e-07 0)
(0.0049368862 2.785388e-07 0)
(0.0047667532 2.5022328e-07 0)
(0.0046115625 2.2615772e-07 0)
(0.0044691548 2.0553543e-07 0)
(0.0043377452 1.8765124e-07 0)
(0.0042159878 1.7202167e-07 9.6241707e-35)
(0.0041026457 1.5831112e-07 0)
(0.0039967475 1.4617283e-07 0)
(0.0038974592 1.3537447e-07 0)
(0.0038040724 1.2571632e-07 0)
(0.0037159816 1.1703458e-07 0)
(0.0036326666 1.0919677e-07 0)
(0.0035536733 1.0209422e-07 0)
(0.0034786053 9.5633779e-08 0)
(0.0034071155 8.9736765e-08 0)
(0.0033388979 8.433545e-08 0)
(0.0032736839 7.937133e-08 0)
(0.0032112355 7.4796743e-08 0)
(0.0031513388 7.0571261e-08 0)
(0.0030938021 6.6658061e-08 0)
(0.003038454 6.3024924e-08 0)
(0.0029851406 5.9644219e-08 0)
(0.0029337228 5.6490635e-08 0)
(0.0028840766 5.3541029e-08 0)
(0.0028360913 5.0776523e-08 0)
(0.0027896655 4.8181936e-08 0)
(0.0027447056 4.5742588e-08 0)
(0.0027011274 4.3443784e-08 0)
(0.0026588562 4.1272371e-08 0)
(0.0026178251 3.921717e-08 0)
(0.0025779738 3.7267693e-08 0)
(0.0025392495 3.5412928e-08 0)
(0.0025016086 3.3642835e-08 0)
(0.0024650144 3.1949256e-08 0)
(0.0024294362 3.0324371e-08 0)
(0.0023948509 2.8760788e-08 0)
(0.0023612417 2.7251683e-08 0)
(0.0023285993 2.5789907e-08 0)
(0.0022969228 2.4366556e-08 0)
(0.0022662251 2.2967861e-08 0)
(0.0022365425 2.1582432e-08 0)
(0.0022079226 2.0204119e-08 0)
(0.0021804256 1.8825686e-08 0)
(0.0021541286 1.7440407e-08 0)
(0.0021291234 1.6040554e-08 0)
(0.002105525 1.4610385e-08 0)
(0.0020834928 1.3127256e-08 0)
(0.0020632395 1.1573482e-08 0)
(0.0020450171 9.9183775e-09 0)
(0.0020291886 8.0480224e-09 0)
(0.0020164738 6.2453088e-09 0)
(0.0020062756 3.7750086e-09 0)
(0.0020022164 1.1962972e-09 0)
(0.002001625 -1.2486253e-09 0)
(0.0020074521 -4.283709e-09 0)
(0.0020199567 -7.4231733e-09 0)
(0.0020403819 -1.0795529e-08 0)
(0.0020697077 -1.4184937e-08 0)
(0.0021083891 -1.7264342e-08 0)
(0.0021559171 -1.9907067e-08 0)
(0.0022120693 -2.2022614e-08 0)
(0.0022756751 -2.2935781e-08 0)
(0.0023423968 -2.1842932e-08 0)
(0.0024054883 -1.9201966e-08 0)
(0.0024619727 -1.5095154e-08 0)
(0.002503963 -1.1091014e-08 -2.3053928e-24)
(0.0025381329 -8.1172146e-09 0)
(0.0025625619 -5.5572542e-09 0)
(0.0025804595 -3.8318343e-09 0)
(0.0025933883 -2.5839773e-09 0)
(0.0026024503 -1.6647832e-09 0)
(0.0026083965 -9.7152629e-10 0)