/*--------------------------------*- C++ -*----------------------------------*\
| =========                 |                                                 |
| \\      /  F ield         | OpenFOAM: The Open Source CFD Toolbox           |
|  \\    /   O peration     | Version:  2206                                  |
|   \\  /    A nd           | Website:  www.openfoam.com                      |
|    \\/     M anipulation  |                                                 |
\*---------------------------------------------------------------------------*/
FoamFile
{
    version     2.0;
    format      ascii;
    arch        "LSB;label=32;scalar=64";
    class       volScalarField;
    location    "300";
    object      nut;
}
// * * * * * * * * * * * * * * * * * * * * * * * * * * * * * * * * * * * * * //

dimensions      [0 2 -1 0 0 0 0];

internalField   nonuniform List<scalar> 
13056
(
1.3245489e-11
1.3246281e-11
1.3247995e-11
1.3250291e-11
1.3253077e-11
1.3256337e-11
1.3260066e-11
1.3264276e-11
1.3268993e-11
1.3274258e-11
1.3280129e-11
1.3286685e-11
1.3294032e-11
1.330231e-11
1.3311732e-11
1.3322545e-11
1.3335291e-11
1.3350264e-11
1.3369581e-11
1.3391983e-11
1.3429323e-11
1.346574e-11
1.3582583e-11
1.3559528e-11
4.5252511e-21
1.9927993e-21
3.2895907e-21
6.2334015e-21
1.1520216e-20
2.0192401e-20
3.3319544e-20
5.1597435e-20
7.4999044e-20
1.0258972e-19
1.326551e-19
1.6311662e-19
1.9201462e-19
2.1785968e-19
2.397714e-19
2.5743495e-19
2.7096341e-19
2.8073516e-19
2.8725796e-19
2.9107185e-19
2.9269092e-19
2.925731e-19
2.9110897e-19
2.8862214e-19
2.8537527e-19
2.8157858e-19
2.7739818e-19
2.7296383e-19
2.6837629e-19
2.6371305e-19
2.5903338e-19
2.5438205e-19
2.4979269e-19
2.4528988e-19
2.4089136e-19
2.3660952e-19
2.3245268e-19
2.2842591e-19
2.2453193e-19
2.2077176e-19
2.171449e-19
2.1364974e-19
2.1028392e-19
2.0704457e-19
2.0392843e-19
2.0093197e-19
1.9805146e-19
1.9528322e-19
1.9262362e-19
1.900689e-19
1.8761532e-19
1.8525925e-19
1.8299713e-19
1.8082551e-19
1.7874097e-19
1.767402e-19
1.7482019e-19
1.7297802e-19
1.7121064e-19
1.6951511e-19
1.6788863e-19
1.6632862e-19
1.6483155e-19
1.6339562e-19
1.6201801e-19
1.606963e-19
1.5942774e-19
1.5820975e-19
1.5703982e-19
1.5591525e-19
1.5483341e-19
1.5379199e-19
1.5278828e-19
1.5181939e-19
1.5088255e-19
1.4997488e-19
1.4909373e-19
1.482366e-19
1.4740046e-19
1.4658198e-19
1.4577785e-19
1.4498525e-19
1.4420167e-19
1.4342404e-19
1.4264871e-19
1.418723e-19
1.4109208e-19
1.4030428e-19
1.3950562e-19
1.3871007e-19
1.3793926e-19
1.3719714e-19
1.3647992e-19
1.3578564e-19
1.3511233e-19
1.3445762e-19
1.3381927e-19
1.331959e-19
1.3258656e-19
1.3198993e-19
1.3140439e-19
1.3082845e-19
1.3026133e-19
1.2970174e-19
1.2914827e-19
1.2859621e-19
1.2804752e-19
1.2747594e-19
1.2692513e-19
1.2622832e-19
1.2564017e-19
1.2475983e-19
1.3245489e-11
1.3246282e-11
1.3247999e-11
1.3250297e-11
1.3253088e-11
1.3256352e-11
1.3260087e-11
1.3264303e-11
1.3269027e-11
1.3274299e-11
1.3280178e-11
1.3286743e-11
1.32941e-11
1.3302389e-11
1.3311824e-11
1.332265e-11
1.3335413e-11
1.3350403e-11
1.3369743e-11
1.3392171e-11
1.3429551e-11
1.3466007e-11
1.3582963e-11
1.3559965e-11
3.7074772e-19
1.6439451e-19
2.7139841e-19
5.1445063e-19
9.5118419e-19
1.6679209e-18
2.7532726e-18
4.2649127e-18
6.2006137e-18
8.4829218e-18
1.0969791e-17
1.3489058e-17
1.5878503e-17
1.801494e-17
1.9825665e-17
2.12848e-17
2.2401861e-17
2.320827e-17
2.374611e-17
2.4060096e-17
2.4192767e-17
2.4181992e-17
2.4060064e-17
2.3853727e-17
2.3584683e-17
2.3270296e-17
2.2924285e-17
2.2557364e-17
2.2177849e-17
2.1792138e-17
2.1405119e-17
2.1020486e-17
2.0641013e-17
2.0268726e-17
1.9905084e-17
1.9551112e-17
1.920749e-17
1.8874636e-17
1.8552772e-17
1.824198e-17
1.7942218e-17
1.765335e-17
1.7375181e-17
1.7107471e-17
1.6849951e-17
1.6602327e-17
1.6364291e-17
1.6135539e-17
1.5915769e-17
1.5704671e-17
1.5501933e-17
1.5307257e-17
1.5120348e-17
1.494092e-17
1.476869e-17
1.4603384e-17
1.4444755e-17
1.4292559e-17
1.4146544e-17
1.4006468e-17
1.3872098e-17
1.3743223e-17
1.3619548e-17
1.3500925e-17
1.3387123e-17
1.327794e-17
1.3173148e-17
1.3072534e-17
1.2975891e-17
1.2882996e-17
1.2793631e-17
1.2707603e-17
1.2624692e-17
1.2544656e-17
1.2467267e-17
1.2392286e-17
1.2319494e-17
1.2248686e-17
1.217961e-17
1.211199e-17
1.2045555e-17
1.198007e-17
1.1915329e-17
1.1851076e-17
1.1787012e-17
1.1722855e-17
1.1658382e-17
1.159328e-17
1.1527279e-17
1.1461533e-17
1.1397831e-17
1.13365e-17
1.1277227e-17
1.1219849e-17
1.1164205e-17
1.1110098e-17
1.1057344e-17
1.1005828e-17
1.0955472e-17
1.0906166e-17
1.0857777e-17
1.0810182e-17
1.0763316e-17
1.0717073e-17
1.0671335e-17
1.0625713e-17
1.058037e-17
1.0533136e-17
1.0487617e-17
1.0430033e-17
1.0381428e-17
1.0308679e-17
1.324549e-11
1.3246285e-11
1.3248009e-11
1.3250317e-11
1.325312e-11
1.3256398e-11
1.326015e-11
1.3264385e-11
1.3269129e-11
1.3274423e-11
1.3280328e-11
1.328692e-11
1.3294307e-11
1.330263e-11
1.3312102e-11
1.332297e-11
1.3335781e-11
1.3350827e-11
1.3370236e-11
1.3392742e-11
1.3430243e-11
1.3466818e-11
1.3584113e-11
1.3561221e-11
2.9524986e-18
1.3165481e-18
2.1738349e-18
4.1227247e-18
7.6272834e-18
1.3382639e-17
2.2102782e-17
3.4252771e-17
4.9814875e-17
6.816488e-17
8.8158139e-17
1.0840797e-16
1.2760878e-16
1.447703e-16
1.5930926e-16
1.7101942e-16
1.7997899e-16
1.8644198e-16
1.9074764e-16
1.9325592e-16
1.9430899e-16
1.9421125e-16
1.9322213e-16
1.9155639e-16
1.8938825e-16
1.8685706e-16
1.8407285e-16
1.8112158e-16
1.7806991e-16
1.7496911e-16
1.7185836e-16
1.6876725e-16
1.6571799e-16
1.6272678e-16
1.5980531e-16
1.5696174e-16
1.5420152e-16
1.5152797e-16
1.4894283e-16
1.4644676e-16
1.4403939e-16
1.4171961e-16
1.3948584e-16
1.3733615e-16
1.3526835e-16
1.3328009e-16
1.3136889e-16
1.2953227e-16
1.2776783e-16
1.2607307e-16
1.2444547e-16
1.2288264e-16
1.213822e-16
1.1994185e-16
1.1855933e-16
1.1723242e-16
1.1595913e-16
1.1473752e-16
1.1356555e-16
1.1244127e-16
1.1136282e-16
1.1032848e-16
1.093359e-16
1.083839e-16
1.0747059e-16
1.0659437e-16
1.057534e-16
1.0494597e-16
1.0417041e-16
1.0342494e-16
1.0270779e-16
1.0201743e-16
1.0135207e-16
1.0070978e-16
1.0008872e-16
9.948698e-17
9.8902795e-17
9.8334508e-17
9.7780103e-17
9.7237372e-17
9.6704119e-17
9.6178478e-17
9.5658775e-17
9.5142973e-17
9.4628657e-17
9.4113577e-17
9.3595934e-17
9.3073214e-17
9.2543246e-17
9.2015317e-17
9.1503793e-17
9.1011298e-17
9.053533e-17
9.0074585e-17
8.962777e-17
8.9193299e-17
8.876969e-17
8.8356029e-17
8.7951687e-17
8.7555785e-17
8.7167242e-17
8.6785078e-17
8.6408767e-17
8.603746e-17
8.5670212e-17
8.5303896e-17
8.4939818e-17
8.4560554e-17
8.4195069e-17
8.3732692e-17
8.3342413e-17
8.2758282e-17
1.324549e-11
1.324629e-11
1.3248026e-11
1.3250351e-11
1.3253175e-11
1.3256478e-11
1.3260257e-11
1.3264523e-11
1.3269302e-11
1.3274635e-11
1.3280582e-11
1.3287221e-11
1.329466e-11
1.330304e-11
1.3312575e-11
1.3323515e-11
1.3336409e-11
1.3351549e-11
1.3371074e-11
1.3393713e-11
1.343142e-11
1.3468195e-11
1.3586067e-11
1.3563332e-11
1.1926544e-17
5.3470069e-18
8.830595e-18
1.6759621e-17
3.1033554e-17
5.449806e-17
9.0078532e-17
1.396826e-16
2.0323896e-16
2.7818938e-16
3.5984344e-16
4.4252267e-16
5.208866e-16
5.9089137e-16
6.5016217e-16
6.9786708e-16
7.3433578e-16
7.6061363e-16
7.7809143e-16
7.8824218e-16
7.9246415e-16
7.9200027e-16
7.87909e-16
7.81066e-16
7.7218126e-16
7.618224e-16
7.5043744e-16
7.3837616e-16
7.2590978e-16
7.1324681e-16
7.0054648e-16
6.8792902e-16
6.7548454e-16
6.6327885e-16
6.5135926e-16
6.3975885e-16
6.284996e-16
6.1759487e-16
6.0705165e-16
5.968724e-16
5.8705557e-16
5.7759653e-16
5.6848875e-16
5.5972428e-16
5.5129416e-16
5.4318869e-16
5.3539771e-16
5.2791117e-16
5.2071914e-16
5.1381141e-16
5.0717775e-16
5.0080829e-16
4.9469337e-16
4.8882359e-16
4.8318968e-16
4.7778259e-16
4.7259421e-16
4.6761657e-16
4.6284136e-16
4.5826063e-16
4.5386675e-16
4.4965277e-16
4.4560902e-16
4.4173066e-16
4.3801006e-16
4.3444062e-16
4.3101485e-16
4.2772577e-16
4.2456657e-16
4.2152993e-16
4.1860869e-16
4.1579658e-16
4.1308628e-16
4.1046989e-16
4.0793996e-16
4.0548863e-16
4.0310875e-16
4.0079354e-16
3.9853478e-16
3.9632346e-16
3.9415062e-16
3.9200866e-16
3.8989077e-16
3.8778863e-16
3.8569239e-16
3.8359289e-16
3.8148282e-16
3.793519e-16
3.7719128e-16
3.7503888e-16
3.7295332e-16
3.7094532e-16
3.690047e-16
3.6712617e-16
3.6530445e-16
3.6353308e-16
3.6180601e-16
3.6011953e-16
3.5847107e-16
3.5685703e-16
3.5527301e-16
3.53715e-16
3.5218087e-16
3.5066716e-16
3.4916999e-16
3.4767662e-16
3.4619238e-16
3.4464622e-16
3.4315624e-16
3.412712e-16
3.3968008e-16
3.3729876e-16
1.324549e-11
1.3246297e-11
1.3248051e-11
1.32504e-11
1.3253254e-11
1.3256592e-11
1.3260412e-11
1.3264723e-11
1.3269552e-11
1.3274941e-11
1.3280949e-11
1.3287655e-11
1.3295169e-11
1.330363e-11
1.3313258e-11
1.3324301e-11
1.3337313e-11
1.3352589e-11
1.3372283e-11
1.3395113e-11
1.3433115e-11
1.3470179e-11
1.3588879e-11
1.3566359e-11
3.4895132e-17
1.5728786e-17
2.5982358e-17
4.9358907e-17
9.1503001e-17
1.6087306e-16
2.6617449e-16
4.1309267e-16
6.0142097e-16
8.2354449e-16
1.0655037e-15
1.3104132e-15
1.5424153e-15
1.7495291e-15
1.924746e-15
2.0656413e-15
2.1732312e-15
2.2506444e-15
2.3020227e-15
2.3317418e-15
2.3439486e-15
2.3423249e-15
2.330003e-15
2.309572e-15
2.2831299e-15
2.2523529e-15
2.2185631e-15
2.1827924e-15
2.1458404e-15
2.1083214e-15
2.0707043e-15
2.0333429e-15
1.9965022e-15
1.9603755e-15
1.9251016e-15
1.8907773e-15
1.8574669e-15
1.8252092e-15
1.7940242e-15
1.7639187e-15
1.7348877e-15
1.7069171e-15
1.6799873e-15
1.6540744e-15
1.6291519e-15
1.6051907e-15
1.5821606e-15
1.5600318e-15
1.5387748e-15
1.5183592e-15
1.4987547e-15
1.479932e-15
1.4618625e-15
1.4445183e-15
1.4278718e-15
1.4118963e-15
1.3965677e-15
1.3818625e-15
1.3677559e-15
1.3542244e-15
1.3412455e-15
1.3287984e-15
1.3168547e-15
1.3053998e-15
1.2944113e-15
1.2838695e-15
1.2737524e-15
1.2640391e-15
1.2547095e-15
1.245742e-15
1.2371153e-15
1.2288109e-15
1.220807e-15
1.2130804e-15
1.2056088e-15
1.1983691e-15
1.1913401e-15
1.1845017e-15
1.1778297e-15
1.1712973e-15
1.164878e-15
1.1585495e-15
1.1522916e-15
1.1460796e-15
1.1398844e-15
1.1336791e-15
1.127442e-15
1.1211428e-15
1.1147551e-15
1.1083913e-15
1.1022251e-15
1.096288e-15
1.0905501e-15
1.0849959e-15
1.0796098e-15
1.0743725e-15
1.0692664e-15
1.0642803e-15
1.0594068e-15
1.0546351e-15
1.0499521e-15
1.0453461e-15
1.0408108e-15
1.0363359e-15
1.0319099e-15
1.0274951e-15
1.0231073e-15
1.0185365e-15
1.0141317e-15
1.0085588e-15
1.0038549e-15
9.9681515e-16
1.324549e-11
1.3246307e-11
1.3248084e-11
1.3250466e-11
1.3253359e-11
1.3256744e-11
1.3260618e-11
1.326499e-11
1.3269886e-11
1.3275349e-11
1.3281439e-11
1.3288235e-11
1.3295847e-11
1.3304419e-11
1.3314169e-11
1.3325349e-11
1.3338519e-11
1.3353976e-11
1.3373894e-11
1.3396978e-11
1.3435373e-11
1.3472823e-11
1.359262e-11
1.3570384e-11
8.4848525e-17
3.8454216e-17
6.3539442e-17
1.2084772e-16
2.2435297e-16
3.9500268e-16
6.5438741e-16
1.0166348e-15
1.4812511e-15
2.0293454e-15
2.6262926e-15
3.2302542e-15
3.8020079e-15
4.3120009e-15
4.743028e-15
5.0892302e-15
5.3532341e-15
5.5428526e-15
5.6683661e-15
5.7406025e-15
5.7698035e-15
5.7650481e-15
5.7340513e-15
5.6831843e-15
5.6176047e-15
5.5414303e-15
5.4579072e-15
5.3695666e-15
5.2783688e-15
5.1858189e-15
5.093065e-15
5.0009725e-15
4.9101889e-15
4.8211861e-15
4.7343023e-15
4.649773e-15
4.5677537e-15
4.4883379e-15
4.4115731e-15
4.3374744e-15
4.2660283e-15
4.1971989e-15
4.1309369e-15
4.0671831e-15
4.0058709e-15
3.9469285e-15
3.890281e-15
3.8358544e-15
3.7835758e-15
3.73337e-15
3.6851621e-15
3.6388798e-15
3.5944523e-15
3.5518107e-15
3.5108872e-15
3.4716156e-15
3.4339365e-15
3.3977916e-15
3.3631203e-15
3.3298642e-15
3.2979678e-15
3.2673803e-15
3.2380309e-15
3.2098839e-15
3.1828841e-15
3.156983e-15
3.1321259e-15
3.1082617e-15
3.0853409e-15
3.0633097e-15
3.0421161e-15
3.0217141e-15
3.0020504e-15
2.9830672e-15
2.96471e-15
2.9469216e-15
2.92965e-15
2.9128457e-15
2.8964488e-15
2.8803936e-15
2.864615e-15
2.8490578e-15
2.8336724e-15
2.8183983e-15
2.8031639e-15
2.7879028e-15
2.7725618e-15
2.7570663e-15
2.7413515e-15
2.7256944e-15
2.7105226e-15
2.6959146e-15
2.6817965e-15
2.6681306e-15
2.6548786e-15
2.6419931e-15
2.6294302e-15
2.6171632e-15
2.6051734e-15
2.5934343e-15
2.5819137e-15
2.5705825e-15
2.5594254e-15
2.548417e-15
2.5375291e-15
2.5266687e-15
2.5158746e-15
2.5046301e-15
2.4937945e-15
2.4800844e-15
2.4685118e-15
2.4511942e-15
1.324549e-11
1.324632e-11
1.3248126e-11
1.3250549e-11
1.3253494e-11
1.3256939e-11
1.3260881e-11
1.326533e-11
1.3270312e-11
1.327587e-11
1.3282064e-11
1.3288975e-11
1.3296714e-11
1.3305426e-11
1.3315332e-11
1.3326687e-11
1.3340058e-11
1.3355746e-11
1.337595e-11
1.3399358e-11
1.3438252e-11
1.3476191e-11
1.3597382e-11
1.357551e-11
1.8341599e-16
8.3597252e-17
1.3817128e-16
2.6315679e-16
4.8938619e-16
8.6310121e-16
1.4320476e-15
2.2275419e-15
3.2485459e-15
4.453277e-15
5.7651605e-15
7.0917809e-15
8.3466817e-15
9.4649299e-15
1.0408938e-14
1.1166149e-14
1.1742643e-14
1.2155834e-14
1.2428472e-14
1.2584438e-14
1.2646265e-14
1.2633894e-14
1.2564248e-14
1.2451283e-14
1.2306288e-14
1.2138266e-14
1.195431e-14
1.1759946e-14
1.155945e-14
1.1356102e-14
1.1152403e-14
1.0950236e-14
1.0751007e-14
1.0555741e-14
1.036517e-14
1.0179803e-14
9.9999743e-15
9.825883e-15
9.6576291e-15
9.4952416e-15
9.3386873e-15
9.1878849e-15
9.0427241e-15
8.9030727e-15
8.7687828e-15
8.6396958e-15
8.5156462e-15
8.3964704e-15
8.2820077e-15
8.1720924e-15
8.0665597e-15
7.9652501e-15
7.8680079e-15
7.7746819e-15
7.6851225e-15
7.5991843e-15
7.5167369e-15
7.437652e-15
7.3617963e-15
7.2890418e-15
7.2192661e-15
7.1523577e-15
7.0881613e-15
7.0265979e-15
6.9675467e-15
6.9109011e-15
6.8565407e-15
6.8043536e-15
6.7542305e-15
6.7060537e-15
6.6597088e-15
6.6150949e-15
6.5720946e-15
6.5305813e-15
6.4904353e-15
6.4515309e-15
6.4137541e-15
6.3769966e-15
6.3411267e-15
6.3060007e-15
6.2714755e-15
6.2374309e-15
6.203758e-15
6.1703241e-15
6.1369724e-15
6.1035579e-15
6.0699644e-15
6.036028e-15
6.0016068e-15
5.9673089e-15
5.9340729e-15
5.9020711e-15
5.8711425e-15
5.8412052e-15
5.8121751e-15
5.7839485e-15
5.7564292e-15
5.729559e-15
5.7032966e-15
5.677584e-15
5.6523503e-15
5.6275317e-15
5.6030951e-15
5.5789845e-15
5.5551377e-15
5.5313514e-15
5.5077101e-15
5.4830823e-15
5.4593502e-15
5.4293206e-15
5.4039726e-15
5.366044e-15
1.3245491e-11
1.3246335e-11
1.3248178e-11
1.3250653e-11
1.3253661e-11
1.3257181e-11
1.3261208e-11
1.3265753e-11
1.3270841e-11
1.3276517e-11
1.3282841e-11
1.3289894e-11
1.329779e-11
1.3306675e-11
1.3316775e-11
1.3328348e-11
1.3341969e-11
1.3357942e-11
1.33785e-11
1.3402309e-11
1.3441821e-11
1.3480364e-11
1.3603273e-11
1.3581863e-11
3.6609541e-16
1.6785967e-16
2.7752872e-16
5.2941675e-16
9.8649931e-16
1.7432867e-15
2.8975687e-15
4.5136689e-15
6.5896041e-15
9.0397999e-15
1.1707428e-14
1.4403469e-14
1.6951512e-14
1.9219549e-14
2.1131665e-14
2.2663063e-14
2.3826824e-14
2.4658914e-14
2.5205963e-14
2.5516721e-14
2.5637066e-14
2.560752e-14
2.5462413e-14
2.5230026e-14
2.4933203e-14
2.4590148e-14
2.4215187e-14
2.3819471e-14
2.3411623e-14
2.2998251e-14
2.2584387e-14
2.2173816e-14
2.1769362e-14
2.1373078e-14
2.0986428e-14
2.0610427e-14
2.0245737e-14
1.9892751e-14
1.9551659e-14
1.9222513e-14
1.8905237e-14
1.8599659e-14
1.830555e-14
1.8022638e-14
1.7750619e-14
1.7489167e-14
1.7237943e-14
1.6996614e-14
1.6764852e-14
1.6542318e-14
1.6328676e-14
1.6123602e-14
1.5926779e-14
1.5737898e-14
1.5556656e-14
1.5382756e-14
1.5215933e-14
1.5055926e-14
1.4902465e-14
1.4755288e-14
1.4614148e-14
1.4478817e-14
1.4348979e-14
1.4224474e-14
1.4105056e-14
1.3990509e-14
1.3880588e-14
1.3775066e-14
1.3673719e-14
1.357631e-14
1.3482605e-14
1.33924e-14
1.3305455e-14
1.3221515e-14
1.3140335e-14
1.306166e-14
1.298526e-14
1.2910914e-14
1.2838355e-14
1.2767292e-14
1.2697436e-14
1.2628541e-14
1.256039e-14
1.2492711e-14
1.2425188e-14
1.2357528e-14
1.2289496e-14
1.2220759e-14
1.2151029e-14
1.2081541e-14
1.2014203e-14
1.1949363e-14
1.1886697e-14
1.1826041e-14
1.1767225e-14
1.1710038e-14
1.1654286e-14
1.159985e-14
1.1546648e-14
1.1494561e-14
1.1443444e-14
1.139317e-14
1.134367e-14
1.1294831e-14
1.1246528e-14
1.1198346e-14
1.1150458e-14
1.1100572e-14
1.10525e-14
1.0991669e-14
1.094032e-14
1.0863493e-14
1.3245491e-11
1.3246354e-11
1.3248242e-11
1.3250779e-11
1.3253864e-11
1.3257475e-11
1.3261606e-11
1.3266268e-11
1.3271486e-11
1.3277305e-11
1.3283787e-11
1.3291014e-11
1.3299101e-11
1.3308197e-11
1.3318533e-11
1.333037e-11
1.3344294e-11
1.3360614e-11
1.3381602e-11
1.3405897e-11
1.3446157e-11
1.3485434e-11
1.3610418e-11
1.3589587e-11
6.9054515e-16
3.1867455e-16
5.2705274e-16
1.0072204e-15
1.8810509e-15
3.3315953e-15
5.5487224e-15
8.6577459e-15
1.265517e-14
1.7374902e-14
2.25125e-14
2.7701565e-14
3.2601016e-14
3.6956669e-14
4.0623419e-14
4.3555088e-14
4.5778384e-14
4.7363769e-14
4.8401823e-14
4.8986833e-14
4.9207281e-14
4.9141142e-14
4.8854365e-14
4.8401198e-14
4.7825405e-14
4.7161822e-14
4.6437836e-14
4.5674743e-14
4.4888995e-14
4.4093186e-14
4.3296896e-14
4.2507322e-14
4.1729827e-14
4.0968301e-14
4.0225512e-14
3.950337e-14
3.8803117e-14
3.8125479e-14
3.7470802e-14
3.6839161e-14
3.6230398e-14
3.564417e-14
3.5080023e-14
3.4537425e-14
3.4015784e-14
3.3514468e-14
3.303282e-14
3.2570193e-14
3.2125952e-14
3.1699445e-14
3.1290023e-14
3.0897059e-14
3.0519942e-14
3.0158077e-14
2.9810878e-14
2.9477775e-14
2.9158257e-14
2.8851821e-14
2.8557945e-14
2.8276128e-14
2.8005889e-14
2.7746796e-14
2.7498237e-14
2.7259899e-14
2.7031318e-14
2.6812071e-14
2.6601689e-14
2.6399733e-14
2.6205776e-14
2.6019356e-14
2.5840028e-14
2.5667397e-14
2.5501002e-14
2.5340349e-14
2.518497e-14
2.5034375e-14
2.488812e-14
2.4745783e-14
2.4606851e-14
2.4470764e-14
2.4336965e-14
2.420499e-14
2.4074415e-14
2.3944723e-14
2.3815308e-14
2.3685607e-14
2.3555171e-14
2.3423363e-14
2.3289627e-14
2.3156342e-14
2.3027172e-14
2.2902791e-14
2.278258e-14
2.2666228e-14
2.2553409e-14
2.2443716e-14
2.2336778e-14
2.2232371e-14
2.2130334e-14
2.2030438e-14
2.1932405e-14
2.1835988e-14
2.174106e-14
2.1647402e-14
2.1554769e-14
2.1462372e-14
2.1370537e-14
2.1274868e-14
2.1182682e-14
2.1066018e-14
2.0967536e-14
2.0820207e-14
1.3245492e-11
1.3246377e-11
1.3248318e-11
1.325093e-11
1.3254108e-11
1.3257828e-11
1.3262084e-11
1.3266886e-11
1.3272261e-11
1.3278252e-11
1.3284923e-11
1.3292358e-11
1.3300675e-11
1.3310025e-11
1.3320644e-11
1.3332798e-11
1.3347085e-11
1.3363821e-11
1.3385323e-11
1.34102e-11
1.3451353e-11
1.3491505e-11
1.3618957e-11
1.3598848e-11
1.2496073e-15
5.8077816e-16
9.6088626e-16
1.8399516e-15
3.4448442e-15
6.1166651e-15
1.0210221e-14
1.5960615e-14
2.3362161e-14
3.2104731e-14
4.1619657e-14
5.1223535e-14
6.0281953e-14
6.8324214e-14
7.5083773e-14
8.0478255e-14
8.4560164e-14
8.7462372e-14
8.9354176e-14
9.0410992e-14
9.0796922e-14
9.0656247e-14
9.0110764e-14
8.9260503e-14
8.8186054e-14
8.695149e-14
8.5607123e-14
8.419204e-14
8.2736399e-14
8.1263266e-14
7.979016e-14
7.8330228e-14
7.6893252e-14
7.548631e-14
7.4114426e-14
7.2781052e-14
7.148842e-14
7.0237816e-14
6.9029835e-14
6.7864581e-14
6.6741726e-14
6.566061e-14
6.4620375e-14
6.3620017e-14
6.2658427e-14
6.1734425e-14
6.0846784e-14
5.99943e-14
5.9175792e-14
5.8390047e-14
5.7635861e-14
5.691207e-14
5.6217539e-14
5.5551167e-14
5.4911868e-14
5.4298586e-14
5.3710372e-14
5.3146296e-14
5.2605389e-14
5.2086725e-14
5.1589413e-14
5.1112652e-14
5.0655313e-14
5.0216808e-14
4.9796285e-14
4.9392959e-14
4.900596e-14
4.8634477e-14
4.8277719e-14
4.7934832e-14
4.760499e-14
4.7287465e-14
4.6981402e-14
4.6685887e-14
4.6400055e-14
4.6122997e-14
4.5853899e-14
4.5591978e-14
4.5336288e-14
4.5085792e-14
4.4839468e-14
4.4596457e-14
4.4355983e-14
4.4117089e-14
4.3878655e-14
4.3639653e-14
4.3399254e-14
4.3156281e-14
4.2909707e-14
4.2663934e-14
4.2425735e-14
4.219636e-14
4.1974674e-14
4.176011e-14
4.155207e-14
4.13498e-14
4.1152615e-14
4.0960107e-14
4.0771976e-14
4.0587798e-14
4.040706e-14
4.0229301e-14
4.0054295e-14
3.9881635e-14
3.9710866e-14
3.9540529e-14
3.9371229e-14
3.9194861e-14
3.9024914e-14
3.8809828e-14
3.8628256e-14
3.8356656e-14
1.3245493e-11
1.3246404e-11
1.3248408e-11
1.325111e-11
1.3254398e-11
1.3258248e-11
1.3262653e-11
1.3267622e-11
1.3273181e-11
1.3279377e-11
1.3286273e-11
1.3293956e-11
1.3302545e-11
1.3312197e-11
1.332315e-11
1.333568e-11
1.3350399e-11
1.3367626e-11
1.3389737e-11
1.3415302e-11
1.3457509e-11
1.3498695e-11
1.3629045e-11
1.3609834e-11
2.1915938e-15
1.0266872e-15
1.6992852e-15
3.2609375e-15
6.1220487e-15
1.0900432e-14
1.8240792e-14
2.8572307e-14
4.1886587e-14
5.7620934e-14
7.4742777e-14
9.2013002e-14
1.0828463e-13
1.2271065e-13
1.3481552e-13
1.4445699e-13
1.517353e-13
1.5689404e-13
1.6024078e-13
1.6209265e-13
1.6274538e-13
1.6245835e-13
1.6145006e-13
1.598997e-13
1.5795139e-13
1.557196e-13
1.532941e-13
1.5074455e-13
1.4812463e-13
1.4547537e-13
1.4282786e-13
1.4020544e-13
1.3762542e-13
1.3510029e-13
1.326389e-13
1.3024732e-13
1.2792942e-13
1.2568742e-13
1.235223e-13
1.2143416e-13
1.1942238e-13
1.1748571e-13
1.1562257e-13
1.1383112e-13
1.1210935e-13
1.1045511e-13
1.0886617e-13
1.0734037e-13
1.0587555e-13
1.0446954e-13
1.0312016e-13
1.0182531e-13
1.0058295e-13
9.9391088e-14
9.8247773e-14
9.7151102e-14
9.6099369e-14
9.5090898e-14
9.4123946e-14
9.3196844e-14
9.2307993e-14
9.1455951e-14
9.0638687e-14
8.9855132e-14
8.910377e-14
8.8383182e-14
8.76918e-14
8.7028169e-14
8.6390864e-14
8.5778348e-14
8.5189142e-14
8.462193e-14
8.4075177e-14
8.354724e-14
8.3036564e-14
8.2541516e-14
8.2060638e-14
8.1592525e-14
8.1135477e-14
8.068764e-14
8.0247174e-14
7.9812554e-14
7.9382385e-14
7.8954953e-14
7.8528254e-14
7.8100451e-14
7.7670067e-14
7.7234989e-14
7.679337e-14
7.6353128e-14
7.5926429e-14
7.551552e-14
7.5118381e-14
7.4734017e-14
7.4361353e-14
7.3999035e-14
7.3645837e-14
7.3301035e-14
7.2964089e-14
7.2634233e-14
7.2310544e-14
7.1992196e-14
7.167879e-14
7.1369592e-14
7.1063782e-14
7.0758746e-14
7.0455565e-14
7.0139727e-14
6.9835391e-14
6.9450197e-14
6.9125005e-14
6.8638636e-14
1.3245494e-11
1.3246435e-11
1.3248515e-11
1.3251321e-11
1.3254739e-11
1.3258742e-11
1.3263322e-11
1.3268487e-11
1.3274266e-11
1.3280703e-11
1.3287864e-11
1.3295838e-11
1.3304748e-11
1.3314754e-11
1.3326101e-11
1.3339073e-11
1.3354298e-11
1.3372102e-11
1.3394926e-11
1.3421298e-11
1.3464735e-11
1.3507131e-11
1.3640851e-11
1.3622752e-11
3.7516234e-15
1.7733346e-15
2.9362925e-15
5.6479212e-15
1.0634824e-14
1.8992429e-14
3.1868004e-14
5.002938e-14
7.3465966e-14
1.0117878e-13
1.3133238e-13
1.6172709e-13
1.9033272e-13
2.1565725e-13
2.368705e-13
2.5373271e-13
2.6643087e-13
2.7540211e-13
2.8119336e-13
2.8436582e-13
2.8544105e-13
2.8487536e-13
2.8305238e-13
2.8028614e-13
2.7682892e-13
2.7288075e-13
2.6859836e-13
2.6410322e-13
2.5948884e-13
2.5482656e-13
2.5017044e-13
2.4556093e-13
2.4102801e-13
2.3659328e-13
2.3227198e-13
2.2807448e-13
2.2400741e-13
2.2007446e-13
2.162772e-13
2.1261572e-13
2.0908878e-13
2.0569412e-13
2.0242889e-13
1.9928979e-13
1.9627323e-13
1.933754e-13
1.9059235e-13
1.8792023e-13
1.8535525e-13
1.8289355e-13
1.8053129e-13
1.7826477e-13
1.7609038e-13
1.7400462e-13
1.7200404e-13
1.700853e-13
1.6824538e-13
1.6648133e-13
1.6479009e-13
1.6316872e-13
1.6161438e-13
1.6012456e-13
1.5869568e-13
1.5732583e-13
1.5601238e-13
1.547528e-13
1.5354434e-13
1.5238444e-13
1.512706e-13
1.5020009e-13
1.4917033e-13
1.48179e-13
1.472234e-13
1.4630062e-13
1.4540794e-13
1.4454249e-13
1.4370171e-13
1.4288314e-13
1.4208378e-13
1.4130039e-13
1.4052973e-13
1.3976915e-13
1.3901621e-13
1.3826788e-13
1.3752066e-13
1.3677136e-13
1.3601738e-13
1.3525502e-13
1.3448102e-13
1.3370933e-13
1.3296134e-13
1.3224099e-13
1.3154478e-13
1.3087098e-13
1.3021773e-13
1.2958263e-13
1.2896354e-13
1.283592e-13
1.2776866e-13
1.2719056e-13
1.2662329e-13
1.2606538e-13
1.2551616e-13
1.2497433e-13
1.2443843e-13
1.2390389e-13
1.233726e-13
1.2281913e-13
1.2228582e-13
1.2161078e-13
1.2104086e-13
1.2018857e-13
1.3245495e-11
1.3246471e-11
1.3248638e-11
1.3251568e-11
1.3255138e-11
1.3259319e-11
1.3264104e-11
1.32695e-11
1.3275534e-11
1.3282253e-11
1.3289724e-11
1.3298039e-11
1.3307323e-11
1.3317742e-11
1.332955e-11
1.3343037e-11
1.3358851e-11
1.3377328e-11
1.3400982e-11
1.342829e-11
1.3473154e-11
1.3516952e-11
1.3654554e-11
1.363783e-11
6.2995796e-15
3.0083738e-15
4.9835537e-15
9.6096097e-15
1.8151892e-14
3.2521359e-14
5.4727547e-14
8.6123708e-14
1.2670079e-13
1.7471509e-13
2.2695687e-13
2.7958371e-13
3.2905927e-13
3.7279715e-13
4.0937128e-13
4.3838491e-13
4.6018008e-13
4.7552836e-13
4.8538643e-13
4.9073123e-13
4.924677e-13
4.9138552e-13
4.8814729e-13
4.8329445e-13
4.7726132e-13
4.7039187e-13
4.6295524e-13
4.5515978e-13
4.4716572e-13
4.3909515e-13
4.3104044e-13
4.2307063e-13
4.1523679e-13
4.0757561e-13
4.0011292e-13
3.9286621e-13
3.8584654e-13
3.7906001e-13
3.7250908e-13
3.6619367e-13
3.6011146e-13
3.5425841e-13
3.4862945e-13
3.432188e-13
3.3802014e-13
3.3302682e-13
3.2823195e-13
3.2362882e-13
3.1921085e-13
3.1497131e-13
3.1090354e-13
3.0700111e-13
3.0325777e-13
2.9966744e-13
2.9622414e-13
2.9292207e-13
2.8975601e-13
2.8672085e-13
2.8381127e-13
2.8102217e-13
2.7834867e-13
2.7578639e-13
2.7332915e-13
2.7097358e-13
2.687152e-13
2.6654959e-13
2.64472e-13
2.6247799e-13
2.6056321e-13
2.5872297e-13
2.5695277e-13
2.5524862e-13
2.536058e-13
2.5201933e-13
2.5048446e-13
2.4899624e-13
2.4755026e-13
2.4614225e-13
2.4476706e-13
2.4341907e-13
2.4209271e-13
2.4078341e-13
2.3948696e-13
2.3819816e-13
2.3691097e-13
2.3561989e-13
2.3432049e-13
2.3300635e-13
2.3167184e-13
2.3034112e-13
2.2905116e-13
2.2780884e-13
2.2660812e-13
2.2544612e-13
2.243196e-13
2.2322441e-13
2.2215687e-13
2.2111483e-13
2.2009664e-13
2.1909994e-13
2.1812191e-13
2.1716006e-13
2.1621322e-13
2.1527914e-13
2.143553e-13
2.134338e-13
2.1251789e-13
2.1156376e-13
2.1064438e-13
2.0948065e-13
2.0849802e-13
2.0702876e-13
1.3245497e-11
1.3246513e-11
1.3248781e-11
1.3251854e-11
1.32556e-11
1.325999e-11
1.3265013e-11
1.3270677e-11
1.3277008e-11
1.3284054e-11
1.3291885e-11
1.3300596e-11
1.3310315e-11
1.3321214e-11
1.3333556e-11
1.3347639e-11
1.3364136e-11
1.338339e-11
1.3408002e-11
1.3436392e-11
1.3482895e-11
1.3528307e-11
1.3670345e-11
1.3655318e-11
1.0412732e-14
5.0315834e-15
8.3394037e-15
1.6122612e-14
3.0556452e-14
5.4932584e-14
9.2728166e-14
1.4630142e-13
2.1565707e-13
2.9779288e-13
3.8716747e-13
4.771523e-13
5.6166289e-13
6.362699e-13
6.9855284e-13
7.4786362e-13
7.8481748e-13
8.1075814e-13
8.2733759e-13
8.3623494e-13
8.3900057e-13
8.3698406e-13
8.3131554e-13
8.2291698e-13
8.1252688e-13
8.0072936e-13
7.8798095e-13
7.7463465e-13
7.6096161e-13
7.4716826e-13
7.3341048e-13
7.1980469e-13
7.0643681e-13
6.9336846e-13
6.8064284e-13
6.6828909e-13
6.563255e-13
6.4476196e-13
6.3360225e-13
6.2284591e-13
6.1248867e-13
6.0252338e-13
5.9294121e-13
5.8373209e-13
5.7488513e-13
5.6638882e-13
5.5823133e-13
5.504011e-13
5.4288682e-13
5.3567698e-13
5.2876012e-13
5.2212523e-13
5.157616e-13
5.0965883e-13
5.0380668e-13
4.981952e-13
4.9281548e-13
4.8765877e-13
4.8271596e-13
4.7797833e-13
4.7343752e-13
4.6908603e-13
4.6491336e-13
4.6091361e-13
4.5707921e-13
4.5340259e-13
4.498756e-13
4.4649065e-13
4.432403e-13
4.4011653e-13
4.3711167e-13
4.3421885e-13
4.3143002e-13
4.2873666e-13
4.2613067e-13
4.2360355e-13
4.2114783e-13
4.1875624e-13
4.1641994e-13
4.1412937e-13
4.1187506e-13
4.0964924e-13
4.0744476e-13
4.0525274e-13
4.0306293e-13
4.0086598e-13
3.9865439e-13
3.964172e-13
3.9414481e-13
3.9187851e-13
3.8968147e-13
3.8756548e-13
3.8552034e-13
3.8354123e-13
3.8162263e-13
3.7975745e-13
3.7793944e-13
3.7616497e-13
3.744312e-13
3.7273408e-13
3.710688e-13
3.6943109e-13
3.6781901e-13
3.6622871e-13
3.6465584e-13
3.6308697e-13
3.615276e-13
3.5990317e-13
3.5833791e-13
3.5635662e-13
3.5468345e-13
3.5218201e-13
1.3245498e-11
1.3246561e-11
1.3248946e-11
1.3252183e-11
1.3256134e-11
1.3260765e-11
1.3266063e-11
1.3272036e-11
1.3278711e-11
1.3286136e-11
1.3294383e-11
1.330355e-11
1.3313772e-11
1.3325225e-11
1.3338181e-11
1.3352952e-11
1.3370233e-11
1.3390381e-11
1.3416092e-11
1.3445722e-11
1.3494097e-11
1.3541356e-11
1.3688418e-11
1.3675486e-11
1.6984334e-14
8.3197005e-15
1.379729e-14
2.6747108e-14
5.0869975e-14
9.1778752e-14
1.5543236e-13
2.4590509e-13
3.6324803e-13
5.0235103e-13
6.5374651e-13
8.0611286e-13
9.4908135e-13
1.0751363e-12
1.1802051e-12
1.2632375e-12
1.3253235e-12
1.3687771e-12
1.3964215e-12
1.4111136e-12
1.4154833e-12
1.4118148e-12
1.402017e-12
1.3876451e-12
1.3699428e-12
1.3498928e-12
1.3282623e-12
1.3056439e-12
1.2824922e-12
1.2591532e-12
1.2358875e-12
1.2128896e-12
1.190303e-12
1.16823e-12
1.1467425e-12
1.1258885e-12
1.105698e-12
1.086187e-12
1.0673612e-12
1.0492193e-12
1.0317536e-12
1.0149516e-12
9.987981e-13
9.8327585e-13
9.6836617e-13
9.5404945e-13
9.403055e-13
9.2711468e-13
9.1445776e-13
9.0231515e-13
8.9066744e-13
8.7949594e-13
8.6878246e-13
8.5850939e-13
8.4865936e-13
8.3921551e-13
8.3016275e-13
8.2148622e-13
8.1317051e-13
8.0520084e-13
7.9756304e-13
7.902444e-13
7.8322722e-13
7.7650125e-13
7.7005395e-13
7.6387235e-13
7.5794265e-13
7.5225201e-13
7.467878e-13
7.4153646e-13
7.3648499e-13
7.3162176e-13
7.2693313e-13
7.2240466e-13
7.1802264e-13
7.1377269e-13
7.0964223e-13
7.0561894e-13
7.0168792e-13
6.9783301e-13
6.9403824e-13
6.9029058e-13
6.8657794e-13
6.8288535e-13
6.7919554e-13
6.7549283e-13
6.717646e-13
6.6799235e-13
6.6415982e-13
6.6033695e-13
6.5663064e-13
6.5306089e-13
6.4961064e-13
6.4627193e-13
6.4303548e-13
6.3988923e-13
6.3682266e-13
6.3382975e-13
6.3090565e-13
6.2804346e-13
6.2523502e-13
6.2247315e-13
6.1975462e-13
6.1707288e-13
6.1442057e-13
6.11775e-13
6.0914541e-13
6.0640622e-13
6.037667e-13
6.004258e-13
5.9760396e-13
5.9338581e-13
1.32455e-11
1.3246616e-11
1.3249134e-11
1.3252561e-11
1.3256747e-11
1.3261655e-11
1.3267271e-11
1.3273599e-11
1.3280669e-11
1.328853e-11
1.3297256e-11
1.3306947e-11
1.3317745e-11
1.3329833e-11
1.3343494e-11
1.3359052e-11
1.3377231e-11
1.3398401e-11
1.3425364e-11
1.3456408e-11
1.3506908e-11
1.3556263e-11
1.3708975e-11
1.3698621e-11
2.7383615e-14
1.362733e-14
2.2615024e-14
4.3964708e-14
8.3919009e-14
1.5196951e-13
2.5824864e-13
4.0974852e-13
6.0664542e-13
8.4032868e-13
1.0947642e-12
1.3507714e-12
1.5908151e-12
1.802232e-12
1.9782114e-12
2.1170569e-12
2.220671e-12
2.2930011e-12
2.3388295e-12
2.3629775e-12
2.3698714e-12
2.3633471e-12
2.3466055e-12
2.3222501e-12
2.2923608e-12
2.2585793e-12
2.2221858e-12
2.1841683e-12
2.1452842e-12
2.1061089e-12
2.0670758e-12
2.0285081e-12