/*--------------------------------*- C++ -*----------------------------------*\
| =========                 |                                                 |
| \\      /  F ield         | OpenFOAM: The Open Source CFD Toolbox           |
|  \\    /   O peration     | Version:  2206                                  |
|   \\  /    A nd           | Website:  www.openfoam.com                      |
|    \\/     M anipulation  |                                                 |
\*---------------------------------------------------------------------------*/
FoamFile
{
    version     2.0;
    format      ascii;
    arch        "LSB;label=32;scalar=64";
    class       volScalarField;
    location    "300";
    object      nuTilda;
}
// * * * * * * * * * * * * * * * * * * * * * * * * * * * * * * * * * * * * * //

dimensions      [0 2 -1 0 0 0 0];

internalField   nonuniform List<scalar> 
13056
(
1.9999997e-06
2.0000296e-06
2.0000943e-06
2.0001809e-06
2.0002861e-06
2.000409e-06
2.0005497e-06
2.0007085e-06
2.0008863e-06
2.0010848e-06
2.001306e-06
2.001553e-06
2.0018296e-06
2.0021412e-06
2.0024956e-06
2.0029021e-06
2.003381e-06
2.0039431e-06
2.0046676e-06
2.0055069e-06
2.0069034e-06
2.0082625e-06
2.0126049e-06
2.0117503e-06
8.5985036e-09
7.0045155e-09
7.9395826e-09
9.3152278e-09
1.0861189e-08
1.2497099e-08
1.4164034e-08
1.5800442e-08
1.7349068e-08
1.876239e-08
2.0007517e-08
2.1068653e-08
2.1945515e-08
2.2649385e-08
2.3198588e-08
2.3614518e-08
2.3918827e-08
2.4131616e-08
2.4270584e-08
2.4350745e-08
2.4384537e-08
2.4382083e-08
2.4351522e-08
2.4299348e-08
2.4230718e-08
2.4149721e-08
2.4059584e-08
2.3962851e-08
2.3861528e-08
2.3757192e-08
2.3651089e-08
2.3544194e-08
2.3437276e-08
2.3330933e-08
2.322563e-08
2.3121727e-08
2.3019498e-08
2.2919152e-08
2.2820846e-08
2.2724696e-08
2.2630785e-08
2.2539164e-08
2.2449864e-08
2.2362902e-08
2.227828e-08
2.2195987e-08
2.2116007e-08
2.2038318e-08
2.1962895e-08
2.1889708e-08
2.1818721e-08
2.1749896e-08
2.1683195e-08
2.1618578e-08
2.1556003e-08
2.1495425e-08
2.1436807e-08
2.138011e-08
2.1325288e-08
2.1272293e-08
2.1221082e-08
2.1171613e-08
2.1123812e-08
2.1077656e-08
2.1033088e-08
2.099006e-08
2.0948512e-08
2.0908386e-08
2.0869625e-08
2.0832163e-08
2.0795931e-08
2.0760874e-08
2.0726917e-08
2.069398e-08
2.0661981e-08
2.0630837e-08
2.0600466e-08
2.0570795e-08
2.0541725e-08
2.051315e-08
2.0484959e-08
2.0457057e-08
2.0429361e-08
2.0401763e-08
2.0374135e-08
2.0346355e-08
2.0318323e-08
2.0289901e-08
2.0260965e-08
2.0232018e-08
2.0203852e-08
2.0176623e-08
2.0150202e-08
2.0124526e-08
2.0099532e-08
2.0075139e-08
2.0051269e-08
2.0027877e-08
2.0004932e-08
1.9982389e-08
1.996019e-08
1.9938283e-08
1.991664e-08
1.9895216e-08
1.9873958e-08
1.9852685e-08
1.9831474e-08
1.9809306e-08
1.9787873e-08
1.9760658e-08
1.97376e-08
1.9702934e-08
1.9999997e-06
2.0000296e-06
2.0000944e-06
2.0001812e-06
2.0002865e-06
2.0004096e-06
2.0005505e-06
2.0007095e-06
2.0008876e-06
2.0010863e-06
2.0013079e-06
2.0015551e-06
2.0018322e-06
2.0021441e-06
2.002499e-06
2.0029061e-06
2.0033856e-06
2.0039484e-06
2.0046737e-06
2.0055139e-06
2.0069119e-06
2.0082725e-06
2.012619e-06
2.0117665e-06
2.586913e-08
2.1109796e-08
2.392842e-08
2.8076834e-08
3.2739976e-08
3.7675244e-08
4.2704585e-08
4.7641973e-08
5.2314355e-08
5.6578128e-08
6.0333955e-08
6.3534206e-08
6.6178146e-08
6.8299954e-08
6.9955062e-08
7.1208133e-08
7.2124569e-08
7.2765061e-08
7.318302e-08
7.3423747e-08
7.3524756e-08
7.3516568e-08
7.3423723e-08
7.3265795e-08
7.3058326e-08
7.281363e-08
7.2541437e-08
7.2249408e-08
7.1943583e-08
7.1628716e-08
7.1308552e-08
7.0986031e-08
7.066347e-08
7.0342665e-08
7.0025015e-08
6.9711603e-08
6.9403258e-08
6.9100605e-08
6.8804114e-08
6.8514138e-08
6.8230922e-08
6.795462e-08
6.7685328e-08
6.7423091e-08
6.7167915e-08
6.6919771e-08
6.6678605e-08
6.6444353e-08
6.6216941e-08
6.5996274e-08
6.5782242e-08
6.5574736e-08
6.5373637e-08
6.5178827e-08
6.4990174e-08
6.4807547e-08
6.4630832e-08
6.4459911e-08
6.4294644e-08
6.4134891e-08
6.3980517e-08
6.3831397e-08
6.3687306e-08
6.3548176e-08
6.3413835e-08
6.328414e-08
6.3158906e-08
6.303796e-08
6.2921129e-08
6.2808211e-08
6.2699006e-08
6.2593339e-08
6.249099e-08
6.239171e-08
6.2295262e-08
6.2201386e-08
6.2109842e-08
6.2020403e-08
6.1932776e-08
6.1846637e-08
6.1761653e-08
6.1677541e-08
6.1594043e-08
6.1510839e-08
6.1427541e-08
6.1343783e-08
6.1259265e-08
6.1173565e-08
6.1086312e-08
6.0999024e-08
6.091409e-08
6.083198e-08
6.0752308e-08
6.0674884e-08
6.0599516e-08
6.0525959e-08
6.0453982e-08
6.0383445e-08
6.0314256e-08
6.024628e-08
6.0179342e-08
6.0113285e-08
6.0048025e-08
5.9983424e-08
5.9919322e-08
5.9855178e-08
5.979122e-08
5.9724377e-08
5.9659748e-08
5.9577686e-08
5.9508155e-08
5.9403626e-08
1.9999997e-06
2.0000297e-06
2.0000948e-06
2.0001819e-06
2.0002877e-06
2.0004114e-06
2.0005529e-06
2.0007126e-06
2.0008914e-06
2.001091e-06
2.0013135e-06
2.0015618e-06
2.00184e-06
2.0021532e-06
2.0025095e-06
2.0029181e-06
2.0033994e-06
2.0039643e-06
2.0046922e-06
2.0055353e-06
2.0069377e-06
2.0083027e-06
2.0126616e-06
2.0118131e-06
4.3456989e-08
3.5511694e-08
4.0254909e-08
4.7239826e-08
5.5094047e-08
6.3408525e-08
7.1882627e-08
8.0202173e-08
8.8074861e-08
9.5258201e-08
1.0158458e-07
1.0697382e-07
1.1142492e-07
1.1499583e-07
1.1778025e-07
1.1988741e-07
1.2142767e-07
1.225034e-07
1.2320462e-07
1.2360767e-07
1.2377571e-07
1.2376014e-07
1.2360226e-07
1.2333501e-07
1.2298452e-07
1.2257152e-07
1.2211236e-07
1.2161993e-07
1.2110438e-07
1.2057369e-07
1.2003416e-07
1.1949074e-07
1.1894731e-07
1.1840689e-07
1.1787182e-07
1.1734394e-07
1.1682462e-07
1.1631491e-07
1.1581561e-07
1.1532731e-07
1.148504e-07
1.1438516e-07
1.1393174e-07
1.1349022e-07
1.1306059e-07
1.1264282e-07
1.1223682e-07
1.1184246e-07
1.1145963e-07
1.1108816e-07
1.1072788e-07
1.1037859e-07
1.1004009e-07
1.0971219e-07
1.0939466e-07
1.0908729e-07
1.0878987e-07
1.0850221e-07
1.0822407e-07
1.0795522e-07
1.0769543e-07
1.0744448e-07
1.07202e-07
1.0696788e-07
1.0674182e-07
1.0652358e-07
1.0631286e-07
1.0610935e-07
1.0591276e-07
1.0572277e-07
1.0553902e-07
1.0536122e-07
1.0518901e-07
1.0502196e-07
1.0485967e-07
1.0470171e-07
1.0454767e-07
1.0439716e-07
1.042497e-07
1.0410474e-07
1.0396172e-07
1.0382016e-07
1.0367962e-07
1.0353958e-07
1.0339937e-07
1.0325837e-07
1.0311609e-07
1.0297182e-07
1.0282492e-07
1.0267796e-07
1.0253496e-07
1.0239672e-07
1.0226258e-07
1.0213222e-07
1.0200533e-07
1.0188148e-07
1.017603e-07
1.0164154e-07
1.0152506e-07
1.0141062e-07
1.0129792e-07
1.0118671e-07
1.0107684e-07
1.0096808e-07
1.0086016e-07
1.0075217e-07
1.006445e-07
1.0053196e-07
1.0042316e-07
1.00285e-07
1.0016794e-07
9.9991958e-08
1.9999997e-06
2.0000299e-06
2.0000954e-06
2.0001832e-06
2.0002897e-06
2.0004144e-06
2.0005569e-06
2.0007178e-06
2.000898e-06
2.001099e-06
2.0013231e-06
2.0015732e-06
2.0018532e-06
2.0021686e-06
2.0025273e-06
2.0029386e-06
2.003423e-06
2.0039913e-06
2.0047236e-06
2.0055716e-06
2.0069817e-06
2.0083541e-06
2.012734e-06
2.0118914e-06
6.1608532e-08
5.0412692e-08
5.714914e-08
6.7077714e-08
7.824743e-08
9.0075663e-08
1.0213334e-07
1.139719e-07
1.2517395e-07
1.3539335e-07
1.4439116e-07
1.5205338e-07
1.5837915e-07
1.6345158e-07
1.6740469e-07
1.7039443e-07
1.7257818e-07
1.7410179e-07
1.7509344e-07
1.7566172e-07
1.7589647e-07
1.7587072e-07
1.7564315e-07
1.7526054e-07
1.7475999e-07
1.7417092e-07
1.7351652e-07
1.7281507e-07
1.7208098e-07
1.7132556e-07
1.7055775e-07
1.6978453e-07
1.6901142e-07
1.6824271e-07
1.674817e-07
1.6673097e-07
1.659925e-07
1.6526775e-07
1.6455786e-07
1.6386363e-07
1.6318567e-07
1.6252432e-07
1.6187981e-07
1.6125224e-07
1.6064161e-07
1.6004787e-07
1.5947086e-07
1.5891044e-07
1.5836642e-07
1.5783857e-07
1.5732663e-07
1.5683034e-07
1.563494e-07
1.5588354e-07
1.5543242e-07
1.5499575e-07
1.5457324e-07
1.5416461e-07
1.5376952e-07
1.5338763e-07
1.5301863e-07
1.526622e-07
1.5231781e-07
1.519853e-07
1.5166425e-07
1.5135432e-07
1.5105506e-07
1.5076605e-07
1.5048689e-07
1.5021708e-07
1.4995614e-07
1.4970367e-07
1.4945911e-07
1.4922189e-07
1.4899142e-07
1.4876709e-07
1.4854833e-07
1.4833457e-07
1.4812514e-07
1.4791923e-07
1.4771607e-07
1.4751498e-07
1.4731533e-07
1.4711636e-07
1.4691714e-07
1.467168e-07
1.4651462e-07
1.4630958e-07
1.4610081e-07
1.4589193e-07
1.4568869e-07
1.4549219e-07
1.4530153e-07
1.4511625e-07
1.4493589e-07
1.4475987e-07
1.4458763e-07
1.4441885e-07
1.4425329e-07
1.4409064e-07
1.4393048e-07
1.4377242e-07
1.4361627e-07
1.434617e-07
1.4330833e-07
1.4315485e-07
1.4300183e-07
1.4284189e-07
1.4268725e-07
1.424909e-07
1.4232452e-07
1.4207442e-07
1.9999997e-06
2.0000302e-06
2.0000964e-06
2.000185e-06
2.0002927e-06
2.0004187e-06
2.0005627e-06
2.0007253e-06
2.0009074e-06
2.0011105e-06
2.0013369e-06
2.0015895e-06
2.0018724e-06
2.0021908e-06
2.002553e-06
2.0029681e-06
2.0034569e-06
2.0040304e-06
2.0047689e-06
2.005624e-06
2.007045e-06
2.0084281e-06
2.0128381e-06
2.0120036e-06
8.0575576e-08
6.6021594e-08
7.4848284e-08
8.7872623e-08
1.0253474e-07
1.1806823e-07
1.3390716e-07
1.4945969e-07
1.6417493e-07
1.7759632e-07
1.8940915e-07
1.9946388e-07
2.0776029e-07
2.1440875e-07
2.1958646e-07
2.2349918e-07
2.2635427e-07
2.2834364e-07
2.2963581e-07
2.3037339e-07
2.3067431e-07
2.3063435e-07
2.3033043e-07
2.2982384e-07
2.2916319e-07
2.2838697e-07
2.2752554e-07
2.2660282e-07
2.2563765e-07
2.2464482e-07
2.2363601e-07
2.2262035e-07
2.2160505e-07
2.2059569e-07
2.195966e-07
2.1861115e-07
2.1764189e-07
2.1669075e-07
2.1575918e-07
2.1484826e-07
2.1395875e-07
2.130911e-07
2.122456e-07
2.1142239e-07
2.1062145e-07
2.098427e-07
2.0908595e-07
2.0835099e-07
2.0763759e-07
2.0694543e-07
2.0627417e-07
2.0562345e-07
2.0499291e-07
2.0438215e-07
2.0379077e-07
2.0321834e-07
2.0266451e-07
2.021289e-07
2.0161106e-07
2.0111056e-07
2.0062695e-07
2.0015986e-07
1.9970856e-07
1.9927283e-07
1.9885215e-07
1.9844604e-07
1.9805393e-07
1.9767527e-07
1.973095e-07
1.9695601e-07
1.9661414e-07
1.9628335e-07
1.9596295e-07
1.9565214e-07
1.9535018e-07
1.9505624e-07
1.9476959e-07
1.9448949e-07
1.9421503e-07
1.9394518e-07
1.936789e-07
1.9341531e-07
1.931536e-07
1.9289275e-07
1.9263155e-07
1.9236885e-07
1.9210371e-07
1.9183482e-07
1.9156099e-07
1.9128701e-07
1.9102041e-07
1.9076266e-07
1.9051256e-07
1.9026952e-07
1.9003295e-07
1.8980206e-07
1.8957614e-07
1.8935475e-07
1.8913761e-07
1.8892427e-07
1.887142e-07
1.8850689e-07
1.883021e-07
1.8809937e-07
1.8789821e-07
1.8769692e-07
1.8749622e-07
1.8728645e-07
1.8708364e-07
1.8682609e-07
1.8660786e-07
1.8627984e-07
1.9999997e-06
2.0000306e-06
2.0000976e-06
2.0001875e-06
2.0002967e-06
2.0004244e-06
2.0005705e-06
2.0007354e-06
2.00092e-06
2.0011259e-06
2.0013554e-06
2.0016113e-06
2.0018979e-06
2.0022205e-06
2.0025872e-06
2.0030075e-06
2.0035022e-06
2.0040824e-06
2.0048293e-06
2.0056939e-06
2.0071294e-06
2.0085266e-06
2.0129766e-06
2.0121529e-06
1.0061744e-07
8.2555915e-08
9.3599398e-08
1.0991876e-07
1.2830547e-07
1.4779584e-07
1.6767601e-07
1.8719897e-07
2.0566926e-07
2.2251085e-07
2.3732746e-07
2.4993172e-07
2.6032475e-07
2.6864695e-07
2.7512251e-07
2.8001109e-07
2.8357391e-07
2.8605236e-07
2.8765815e-07
2.8857026e-07
2.8893654e-07
2.8887698e-07
2.884879e-07
2.8784596e-07
2.8701197e-07
2.8603401e-07
2.8495005e-07
2.8378995e-07
2.8257721e-07
2.8133032e-07
2.8006382e-07
2.7878912e-07
2.7751519e-07
2.7624898e-07
2.7499589e-07
2.737601e-07
2.7254479e-07
2.7135235e-07
2.7018459e-07
2.6904284e-07
2.6792802e-07
2.6684071e-07
2.6578126e-07
2.647498e-07
2.6374634e-07
2.6277075e-07
2.6182279e-07
2.609022e-07
2.6000866e-07
2.591418e-07
2.5830116e-07
2.5748631e-07
2.5669676e-07
2.5593204e-07
2.5519163e-07
2.5447499e-07
2.5378168e-07
2.5311122e-07
2.5246304e-07
2.518366e-07
2.5123134e-07
2.5064678e-07
2.5008201e-07
2.4953676e-07
2.4901036e-07
2.4850222e-07
2.4801161e-07
2.4753784e-07
2.4708023e-07
2.4663797e-07
2.4621026e-07
2.4579642e-07
2.4539556e-07
2.450067e-07
2.446289e-07
2.4426113e-07
2.4390244e-07
2.4355193e-07
2.4320846e-07
2.4287072e-07
2.4253743e-07
2.4220746e-07
2.4187981e-07
2.415532e-07
2.4122612e-07
2.4089712e-07
2.4056504e-07
2.4022821e-07
2.3988516e-07
2.395419e-07
2.3920787e-07
2.3888492e-07
2.3857156e-07
2.3826705e-07
2.3797064e-07
2.3768136e-07
2.3739831e-07
2.3712094e-07
2.368489e-07
2.3658163e-07
2.3631845e-07
2.3605875e-07
2.3580219e-07
2.3554822e-07
2.3529623e-07
2.3504406e-07
2.3479263e-07
2.3452984e-07
2.3427577e-07
2.3395311e-07
2.3367971e-07
2.3326879e-07
1.9999997e-06
2.000031e-06
2.0000992e-06
2.0001907e-06
2.0003018e-06
2.0004318e-06
2.0005804e-06
2.0007482e-06
2.0009361e-06
2.0011455e-06
2.0013789e-06
2.0016392e-06
2.0019306e-06
2.0022584e-06
2.002631e-06
2.0030578e-06
2.00356e-06
2.0041488e-06
2.0049063e-06
2.0057829e-06
2.0072369e-06
2.0086521e-06
2.0131529e-06
2.0123429e-06
1.2200328e-07
1.0024442e-07
1.1366235e-07
1.33526e-07
1.5592837e-07
1.7969154e-07
2.039396e-07
2.277554e-07
2.5028479e-07
2.7082087e-07
2.8887839e-07
3.042293e-07
3.1687697e-07
3.2699534e-07
3.3486042e-07
3.4079096e-07
3.4510693e-07
3.481035e-07
3.5003917e-07
3.511322e-07
3.5156269e-07
3.5147668e-07
3.5099129e-07
3.5019967e-07
3.4917567e-07
3.4797767e-07
3.4665171e-07
3.4523399e-07
3.43753e-07
3.4223115e-07
3.4068603e-07
3.3913146e-07
3.3757828e-07
3.3603491e-07
3.3450785e-07
3.3300216e-07
3.3152168e-07
3.3006928e-07
3.2864713e-07
3.2725683e-07
3.2589948e-07
3.2457577e-07
3.232861e-07
3.2203064e-07
3.2080936e-07
3.1962212e-07
3.1846859e-07
3.1734846e-07
3.1626135e-07
3.1520676e-07
3.1418417e-07
3.1319301e-07
3.1223272e-07
3.1130268e-07
3.1040228e-07
3.0953086e-07
3.0868786e-07
3.0787269e-07
3.0708468e-07
3.0632315e-07
3.0558742e-07
3.048769e-07
3.0419047e-07
3.0352781e-07
3.0288808e-07
3.0227058e-07
3.0167441e-07
3.0109873e-07
3.005427e-07
3.0000533e-07
2.9948565e-07
2.9898282e-07
2.9849576e-07
2.9802327e-07
2.9756419e-07
2.9711727e-07
2.9668138e-07
2.9625539e-07
2.958379e-07
2.9542736e-07
2.9502216e-07
2.9462096e-07
2.9422253e-07
2.9382531e-07
2.9342746e-07
2.9302723e-07
2.9262319e-07
2.9221333e-07
2.9179584e-07
2.9137805e-07
2.9097148e-07
2.9057839e-07
2.9019696e-07
2.8982632e-07
2.8946555e-07
2.8911346e-07
2.8876895e-07
2.8843138e-07
2.8810029e-07
2.8777502e-07
2.8745474e-07
2.8713868e-07
2.8682646e-07
2.865174e-07
2.8621073e-07
2.8590386e-07
2.8559788e-07
2.8527808e-07
2.8496889e-07
2.845762e-07
2.8424347e-07
2.837434e-07
1.9999997e-06
2.0000316e-06
2.0001012e-06
2.0001946e-06
2.0003081e-06
2.0004409e-06
2.0005928e-06
2.0007642e-06
2.000956e-06
2.0011699e-06
2.0014082e-06
2.0016738e-06
2.0019711e-06
2.0023054e-06
2.0026852e-06
2.0031202e-06
2.0036318e-06
2.0042312e-06
2.0050019e-06
2.0058933e-06
2.0073701e-06
2.0088076e-06
2.0133709e-06
2.0125782e-06
1.4501428e-07
1.1932977e-07
1.353129e-07
1.5902362e-07
1.8579602e-07
2.1421723e-07
2.4323196e-07
2.7173441e-07
2.9869437e-07
3.2325996e-07
3.4484789e-07
3.6318591e-07
3.7828082e-07
3.9034445e-07
3.9971058e-07
4.067634e-07
4.1188763e-07
4.154375e-07
4.1772266e-07
4.1900425e-07
4.1949742e-07
4.193765e-07
4.1878113e-07
4.1782232e-07
4.1658798e-07
4.1514757e-07
4.1355585e-07
4.1185585e-07
4.1008142e-07
4.0825914e-07
4.0640991e-07
4.0455011e-07
4.0269259e-07
4.0084731e-07
3.99022e-07
3.9722261e-07
3.9545367e-07
3.9371859e-07
3.920199e-07
3.903595e-07
3.8873867e-07
3.8715819e-07
3.8561854e-07
3.8411989e-07
3.8266222e-07
3.8124529e-07
3.7986875e-07
3.7853219e-07
3.7723514e-07
3.7597702e-07
3.7475717e-07
3.7357493e-07
3.7242961e-07
3.7132047e-07
3.7024676e-07
3.692077e-07
3.682026e-07
3.6723079e-07
3.6629141e-07
3.6538367e-07
3.6450676e-07
3.6365995e-07
3.6284192e-07
3.6205226e-07
3.6128998e-07
3.6055423e-07
3.5984393e-07
3.5915807e-07
3.5849564e-07
3.5785546e-07
3.5723636e-07
3.5663734e-07
3.560571e-07
3.554942e-07
3.5494725e-07
3.5441476e-07
3.5389536e-07
3.5338772e-07
3.5289017e-07
3.5240082e-07
3.5191778e-07
3.5143945e-07
3.5096434e-07
3.5049061e-07
3.5001604e-07
3.4953857e-07
3.490565e-07
3.4856739e-07
3.480691e-07
3.4757041e-07
3.4708508e-07
3.4661583e-07
3.461605e-07
3.4571805e-07
3.452874e-07
3.4486712e-07
3.444559e-07
3.4405296e-07
3.4365779e-07
3.4326957e-07
3.428873e-07
3.4251007e-07
3.4213744e-07
3.4176859e-07
3.414026e-07
3.4103636e-07
3.4067118e-07
3.402895e-07
3.3992049e-07
3.394518e-07
3.3905466e-07
3.3845784e-07
1.9999998e-06
2.0000323e-06
2.0001036e-06
2.0001993e-06
2.0003157e-06
2.000452e-06
2.0006078e-06
2.0007836e-06
2.0009803e-06
2.0011996e-06
2.0014438e-06
2.001716e-06
2.0020204e-06
2.0023627e-06
2.0027513e-06
2.0031962e-06
2.0037191e-06
2.0043314e-06
2.0051181e-06
2.0060276e-06
2.007532e-06
2.0089964e-06
2.0136353e-06
2.0128643e-06
1.6994572e-07
1.4007127e-07
1.588458e-07
1.8676407e-07
2.1832946e-07
2.5186932e-07
2.8612806e-07
3.1978892e-07
3.5162457e-07
3.8062105e-07
4.0608612e-07
4.2769905e-07
4.4547158e-07
4.5965863e-07
4.7065896e-07
4.7892989e-07
4.8492808e-07
4.890731e-07
4.9173107e-07
4.9321021e-07
4.9376415e-07
4.9359816e-07
4.9287644e-07
4.9172948e-07
4.9026047e-07
4.8855095e-07
4.8666511e-07
4.8465338e-07
4.8255541e-07
4.8040231e-07
4.7821854e-07
4.7602323e-07
4.7383143e-07
4.7165474e-07
4.6950218e-07
4.6738067e-07
4.6529552e-07
4.6325066e-07
4.6124902e-07
4.5929281e-07
4.573835e-07
4.5552198e-07
4.5370878e-07
4.5194408e-07
4.5022783e-07
4.4855974e-07
4.4693938e-07
4.4536624e-07
4.4383977e-07
4.4235927e-07
4.4092395e-07
4.3953301e-07
4.3818564e-07
4.3688097e-07
4.3561809e-07
4.3439607e-07
4.3321412e-07
4.320714e-07
4.3096694e-07
4.2989975e-07
4.288689e-07
4.2787353e-07
4.2691206e-07
4.2598399e-07
4.2508817e-07
4.2422358e-07
4.2338895e-07
4.2258307e-07
4.2180475e-07
4.2105259e-07
4.2032523e-07
4.1962144e-07
4.1893971e-07
4.1827832e-07
4.1763566e-07
4.1700993e-07
4.1639954e-07
4.158029e-07
4.1521805e-07
4.1464277e-07
4.1407482e-07
4.135123e-07
4.129535e-07
4.1239621e-07
4.1183785e-07
4.1127598e-07
4.1070858e-07
4.1013282e-07
4.0954615e-07
4.0895894e-07
4.0838743e-07
4.0783483e-07
4.0729862e-07
4.0677759e-07
4.0627047e-07
4.0577558e-07
4.0529136e-07
4.0481692e-07
4.0435164e-07
4.0389455e-07
4.0344448e-07
4.0300035e-07
4.0256164e-07
4.0212739e-07
4.0169651e-07
4.0126533e-07
4.008354e-07
4.0038604e-07
3.9995161e-07
3.9939978e-07
3.9893217e-07
3.9822954e-07
1.9999998e-06
2.0000332e-06
2.0001065e-06
2.000205e-06
2.000325e-06
2.0004653e-06
2.0006258e-06
2.0008069e-06
2.0010095e-06
2.0012353e-06
2.0014866e-06
2.0017666e-06
2.0020796e-06
2.0024314e-06
2.0028307e-06
2.0032874e-06
2.0038238e-06
2.0044517e-06
2.0052575e-06
2.0061885e-06
2.0077259e-06
2.0092225e-06
2.013951e-06
2.0132072e-06
1.9710861e-07
1.6274767e-07
1.8457811e-07
2.1712699e-07
2.5398297e-07
2.9318442e-07
3.3325064e-07
3.7262725e-07
4.0986465e-07
4.4376646e-07
4.7351838e-07
4.9874621e-07
5.194683e-07
5.3598901e-07
5.4878059e-07
5.5838258e-07
5.6533214e-07
5.7012165e-07
5.7317988e-07
5.748672e-07
5.7547969e-07
5.7525666e-07
5.7438937e-07
5.730296e-07
5.7129734e-07
5.6928728e-07
5.6707395e-07
5.6471585e-07
5.6225895e-07
5.5973929e-07
5.5718518e-07
5.5461878e-07
5.5205745e-07
5.4951464e-07
5.4700073e-07
5.4452372e-07
5.4208969e-07
5.3970317e-07
5.3736754e-07
5.3508529e-07
5.3285811e-07
5.30687e-07
5.2857253e-07
5.265149e-07
5.2451401e-07
5.2256951e-07
5.2068087e-07
5.1884749e-07
5.1706869e-07
5.1534365e-07
5.1367143e-07
5.1205111e-07
5.104817e-07
5.0896218e-07
5.074915e-07
5.0606855e-07
5.0469239e-07
5.0336205e-07
5.0207636e-07
5.008342e-07
4.9963444e-07
4.9847608e-07
4.9735727e-07
4.9627739e-07
4.9523514e-07
4.9422929e-07
4.9325835e-07
4.9232091e-07
4.9141556e-07
4.9054067e-07
4.8969462e-07
4.8887601e-07
4.8808303e-07
4.873137e-07
4.8656609e-07
4.8583813e-07
4.8512793e-07
4.8443368e-07
4.8375304e-07
4.8308343e-07
4.8242225e-07
4.8176729e-07
4.8111652e-07
4.804674e-07
4.798169e-07
4.7916219e-07
4.7850093e-07
4.7782979e-07
4.771458e-07
4.7646109e-07
4.7579466e-07
4.7515025e-07
4.7452495e-07
4.7391737e-07
4.7332602e-07
4.7274895e-07
4.7218434e-07
4.7163116e-07
4.7108867e-07
4.7055575e-07
4.7003103e-07
4.6951323e-07
4.6900178e-07
4.6849553e-07
4.6799321e-07
4.6749055e-07
4.6698933e-07
4.6646547e-07
4.65959e-07
4.6531563e-07
4.6477043e-07
4.639513e-07
1.9999998e-06
2.0000342e-06
2.0001099e-06
2.0002118e-06
2.0003359e-06
2.0004811e-06
2.0006473e-06
2.0008346e-06
2.0010442e-06
2.0012777e-06
2.0015375e-06
2.0018267e-06
2.00215e-06
2.0025131e-06
2.0029249e-06
2.0033956e-06
2.0039482e-06
2.0045943e-06
2.0054228e-06
2.0063793e-06
2.0079556e-06
2.0094901e-06
2.0143239e-06
2.0136137e-06
2.268309e-07
1.8766001e-07
2.1285251e-07
2.5052313e-07
2.9324891e-07
3.3874519e-07
3.8527704e-07
4.3102111e-07
4.7427579e-07
5.1363817e-07
5.4815645e-07
5.77397e-07
6.0138685e-07
6.2048715e-07
6.352537e-07
6.4631893e-07
6.543105e-07
6.5980233e-07
6.6329312e-07
6.6520126e-07
6.6586993e-07
6.6557613e-07
6.6454101e-07
6.6293987e-07
6.6091118e-07
6.585641e-07
6.5598452e-07
6.532398e-07
6.503828e-07
6.4745501e-07
6.4448893e-07
6.4151002e-07
6.3853821e-07
6.3558889e-07
6.3267396e-07
6.2980257e-07
6.2698166e-07
6.2421641e-07
6.2151064e-07
6.1886718e-07
6.1628792e-07
6.13774e-07
6.1132602e-07
6.0894418e-07
6.0662833e-07
6.0437804e-07
6.0219267e-07
6.0007149e-07
5.9801372e-07
5.9601837e-07
5.9408436e-07
5.9221058e-07
5.9039587e-07
5.8863907e-07
5.8693891e-07
5.8529411e-07
5.8370358e-07
5.8216616e-07
5.8068052e-07
5.7924531e-07
5.7785922e-07
5.7652111e-07
5.752288e-07
5.7398157e-07
5.7277789e-07
5.7161633e-07
5.7049517e-07
5.6941275e-07
5.6836742e-07
5.6735729e-07
5.6638049e-07
5.6543535e-07
5.6451979e-07
5.6363149e-07
5.6276822e-07
5.6192756e-07
5.6110733e-07
5.6030541e-07
5.5951911e-07
5.5874542e-07
5.5798132e-07
5.5722427e-07
5.5647192e-07
5.5572133e-07
5.5496898e-07
5.5421159e-07
5.534465e-07
5.5266981e-07
5.5187809e-07
5.5108543e-07
5.5031388e-07
5.495678e-07
5.4884382e-07
5.4814039e-07
5.4745578e-07
5.467877e-07
5.4613407e-07
5.4549371e-07
5.4486575e-07
5.442489e-07
5.4364153e-07
5.4304219e-07
5.4245022e-07
5.4186428e-07
5.4128289e-07
5.407011e-07
5.4012098e-07
5.3951464e-07
5.3892845e-07
5.3818376e-07
5.3755266e-07
5.3660459e-07
1.9999999e-06
2.0000354e-06
2.0001139e-06
2.0002198e-06
2.0003488e-06
2.0004998e-06
2.0006725e-06
2.0008673e-06
2.0010851e-06
2.0013276e-06
2.0015974e-06
2.0018976e-06
2.0022329e-06
2.0026092e-06
2.0030358e-06
2.003523e-06
2.0040945e-06
2.0047621e-06
2.0056171e-06
2.0066035e-06
2.0082251e-06
2.009804e-06
2.0147599e-06
2.0140913e-06
2.5945797e-07
2.1513441e-07
2.4404057e-07
2.8739841e-07
3.3666253e-07
3.8918612e-07
4.4294615e-07
4.9581367e-07
5.458003e-07
5.9126828e-07
6.3111017e-07
6.6482589e-07
6.9245348e-07
7.1441943e-07
7.3137479e-07
7.4405726e-07
7.5319665e-07
7.5945852e-07
7.6341996e-07
7.6556416e-07
7.6628682e-07
7.6590687e-07
7.6467862e-07
7.6280346e-07
7.6044027e-07
7.5771428e-07
7.5472387e-07
7.5154618e-07
7.4824171e-07
7.4485788e-07
7.4143186e-07
7.3799269e-07
7.3456312e-07
7.311607e-07
7.2779898e-07
7.2448836e-07
7.2123673e-07
7.1804994e-07
7.1493231e-07
7.1188703e-07
7.0891623e-07
7.0602114e-07
7.0320242e-07
7.0046026e-07
6.9779444e-07
6.9520445e-07
6.9268949e-07
6.9024873e-07
6.8788123e-07
6.8558583e-07
6.8336126e-07
6.8120624e-07
6.7911941e-07
6.770994e-07
6.7514476e-07
6.7325398e-07
6.7142579e-07
6.6965886e-07
6.6795162e-07
6.6630252e-07
6.6471003e-07
6.6317282e-07
6.6168838e-07
6.6025582e-07
6.5887343e-07
6.5753952e-07
6.5625207e-07
6.5500918e-07
6.5380895e-07
6.5264916e-07
6.5152764e-07
6.5044248e-07
6.4939126e-07
6.4837129e-07
6.4737998e-07
6.4641454e-07
6.4547246e-07
6.4455128e-07
6.436479e-07
6.4275885e-07
6.4188065e-07
6.4101038e-07
6.4014534e-07
6.3928211e-07
6.3841667e-07
6.3754526e-07
6.3666479e-07
6.357708e-07
6.3485929e-07
6.3394658e-07
6.330581e-07
6.3219892e-07
6.3136518e-07
6.3055514e-07
6.297668e-07
6.2899751e-07
6.2824489e-07
6.2750758e-07
6.2678459e-07
6.2607441e-07
6.2537515e-07
6.2468516e-07
6.2400366e-07
6.2332914e-07
6.2265984e-07
6.2199009e-07
6.2132225e-07
6.2062424e-07
6.1994941e-07
6.1909208e-07
6.1836546e-07
6.1727404e-07
1.9999999e-06
2.0000367e-06
2.0001185e-06
2.0002291e-06
2.0003638e-06
2.0005215e-06
2.000702e-06
2.0009054e-06
2.0011329e-06
2.001386e-06
2.0016674e-06
2.0019804e-06
2.0023298e-06
2.0027216e-06
2.0031654e-06
2.0036719e-06
2.0042653e-06
2.004958e-06
2.0058437e-06
2.0068648e-06
2.0085389e-06
2.0101692e-06
2.0152658e-06
2.0146484e-06
2.9535213e-07
2.4552468e-07
2.7854604e-07
3.2823784e-07
3.8480675e-07
4.4519921e-07
5.0706509e-07
5.679275e-07
6.2547083e-07
6.777895e-07
7.2359919e-07
7.6232509e-07
7.940188e-07
8.19182e-07
8.385744e-07
8.5305329e-07
8.6346396e-07
8.7057536e-07
8.7505263e-07
8.7745164e-07
8.7822684e-07
8.7774397e-07
8.762943e-07
8.7410825e-07
8.7136743e-07
8.6821486e-07
8.6476283e-07
8.610993e-07
8.5729322e-07
8.5339859e-07
8.4945772e-07
8.4550364e-07
8.4156219e-07
8.3765331e-07
8.3379234e-07
8.2999108e-07
8.2625844e-07
8.2260103e-07
8.190237e-07
8.1553004e-07
8.121224e-07
8.0880215e-07
8.0556998e-07
8.0242605e-07
7.9937009e-07
7.9640147e-07
7.9351924e-07
7.9072241e-07
7.8800987e-07
7.8538029e-07
7.8283217e-07
7.8036402e-07
7.7797427e-07
7.7566132e-07
7.7342349e-07
7.7125904e-07
7.691665e-07
7.671443e-07
7.6519065e-07
7.6330374e-07
7.6148181e-07
7.5972331e-07
7.5802536e-07
7.5638687e-07
7.5480593e-07
7.5328054e-07
7.5180839e-07
7.5038729e-07
7.49015e-07
7.47689e-07
7.4640677e-07
7.451661e-07
7.439642e-07
7.4279796e-07
7.4166441e-07
7.4056032e-07
7.3948282e-07
7.3842907e-07
7.373955e-07
7.3637814e-07
7.3537298e-07
7.3437669e-07
7.3338616e-07
7.3239748e-07
7.3140603e-07
7.3040751e-07
7.293984e-07
7.2837357e-07
7.2732841e-07
7.2628171e-07
7.2526274e-07
7.2427731e-07
7.2332106e-07
7.2239201e-07
7.2148789e-07
7.2060565e-07
7.1974255e-07
7.1889706e-07
7.1806803e-07
7.1725371e-07
7.1645194e-07
7.156608e-07
7.1487943e-07
7.1410607e-07
7.1333871e-07
7.1257083e-07
7.1180513e-07
7.1100484e-07
7.1023114e-07
7.0924816e-07
7.0841496e-07
7.0716362e-07
2e-06
2.0000383e-06
2.0001239e-06
2.0002399e-06
2.0003812e-06
2.0005468e-06
2.0007363e-06
2.0009498e-06
2.0011884e-06
2.0014539e-06
2.0017488e-06
2.0020766e-06
2.0024423e-06
2.0028521e-06
2.0033158e-06
2.0038446e-06
2.0044635e-06
2.0051851e-06
2.0061063e-06
2.0071674e-06
2.0089019e-06
2.0105913e-06
2.0158481e-06
2.0152939e-06
3.3489093e-07
2.7921476e-07
3.1680787e-07
3.735692e-07
4.3831663e-07
5.0753936e-07
5.7851569e-07
6.4837217e-07
7.1441928e-07
7.7444544e-07
8.269647e-07
8.7131767e-07
9.0757225e-07
9.3631639e-07
9.5843375e-07
9.7491755e-07
9.8674392e-07
9.947985e-07
9.998457e-07
1.0025231e-06
1.0033509e-06
1.0027475e-06
1.0010454e-06
9.9850743e-07
9.9534062e-07
9.9170781e-07
9.8773677e-07
9.8352753e-07
9.7915845e-07
9.7469086e-07
9.7017274e-07
9.6564157e-07
9.6112664e-07
9.5665051e-07
9.5223054e-07
9.4788003e-07
9.4360906e-07
9.3942504e-07
9.3533343e-07
9.3133823e-07
9.2744207e-07
9.2364642e-07
9.1995203e-07
9.1635904e-07
9.1286707e-07
9.0947537e-07
9.0618282e-07
9.0298824e-07
8.9989035e-07
8.9688759e-07
8.9397823e-07
8.9116052e-07
8.8843267e-07
8.8579282e-07
8.8323902e-07
8.8076926e-07
8.7838185e-07
8.7607498e-07
8.7384656e-07
8.7169452e-07
8.6961682e-07
8.6761168e-07
8.6567579e-07
8.6380785e-07
8.6200568e-07
8.60267e-07
8.585891e-07
8.5696948e-07
8.5540557e-07
8.5389443e-07
8.5243321e-07
8.5101934e-07
8.4964959e-07
8.4832041e-07
8.4702837e-07
8.4576977e-07
8.4454132e-07
8.4333977e-07
8.4216102e-07
8.4100052e-07
8.3985368e-07
8.3871671e-07
8.3758607e-07
8.3645725e-07
8.3532499e-07
8.3418439e-07
8.3303145e-07
8.3186026e-07
8.3066557e-07
8.2946892e-07
8.2830388e-07
8.2717715e-07
8.2608375e-07
8.2502151e-07
8.2398781e-07
8.2297915e-07
8.2199241e-07
8.2102587e-07
8.2007819e-07
8.1914735e-07
8.1823088e-07
8.1732657e-07
8.1643347e-07
8.1554955e-07
8.1467249e-07
8.1379482e-07
8.1291964e-07
8.1200494e-07
8.1112062e-07
8.0999709e-07
8.0904464e-07
8.0761438e-07
2e-06
2.0000401e-06
2.0001302e-06
2.0002523e-06
2.0004014e-06
2.0005761e-06
2.0007759e-06
2.001001e-06
2.0012526e-06
2.0015323e-06
2.0018428e-06
2.0021878e-06
2.0025723e-06
2.0030028e-06
2.0034895e-06
2.004044e-06
2.0046921e-06
2.0054469e-06
2.0064089e-06
2.0075158e-06
2.009319e-06
2.011076e-06
2.0165141e-06
2.0160376e-06
3.784638e-07
3.1662057e-07
3.5930285e-07
4.2396638e-07
4.9788334e-07
5.7702916e-07
6.582602e-07
7.3825113e-07
8.1388505e-07
8.8260034e-07
9.4268072e-07
9.9337049e-07
1.0347565e-06
1.0675254e-06
1.0927019e-06
1.1114338e-06
1.1248453e-06
1.1339542e-06
1.1396368e-06
1.1426227e-06
1.1435062e-06
1.1427646e-06
1.1407768e-06
1.1378419e-06
1.1341956e-06
1.1300227e-06
1.1254684e-06
1.1206462e-06
1.115645e-06
1.1105343e-06
1.1053684e-06
1.1001899e-06
1.0950317e-06
1.0899195e-06
1.0848727e-06
1.0799065e-06
1.0750321e-06
1.070258e-06
1.0655901e-06
1.061033e-06
1.0565895e-06
1.0522614e-06
1.0480494e-06
1.0439535e-06
1.0399733e-06
1.036108e-06
1.0323561e-06
1.0287164e-06
1.0251873e-06
1.021767e-06
1.0184535e-06
1.0152448e-06
1.0121388e-06
1.0091334e-06
1.0062263e-06
1.0034152e-06
1.0006982e-06
9.9807314e-07
9.9553767e-07
9.930894e-07
9.9072597e-07
9.8844532e-07
9.8624369e-07
9.8411949e-07
9.820703e-07
9.8009345e-07
9.7818585e-07
9.763446e-07
9.7456676e-07
9.7284895e-07
9.711879e-07
9.6958065e-07
9.680235e-07
9.6651238e-07
9.6504335e-07
9.6361215e-07
9.6221506e-07
9.6084834e-07
9.5950731e-07
9.5818675e-07
9.5688145e-07
9.5558708e-07
9.5429961e-07
9.5301389e-07
9.5172393e-07
9.5042416e-07
9.4911003e-07
9.4777479e-07
9.4641242e-07
9.4504759e-07
9.4371872e-07
9.4243347e-07
9.4118623e-07
9.3997457e-07
9.3879553e-07
9.3764508e-07
9.3651968e-07
9.3541738e-07
9.3433665e-07
9.3327515e-07
9.3223006e-07
9.3119886e-07
9.3018048e-07
9.291726e-07
9.2817254e-07
9.2717179e-07
9.2617387e-07
9.251309e-07
9.2412255e-07
9.2284149e-07
9.217553e-07
9.2012444e-07
2.0000001e-06
2.0000422e-06
2.0001373e-06
2.0002666e-06
2.0004245e-06
2.0006096e-06
2.0008214e-06
2.00106e-06
2.0013264e-06
2.0016224e-06
2.0019509e-06
2.0023156e-06
2.0027217e-06
2.003176e-06
2.003689e-06
2.0042728e-06
2.0049544e-06
2.0057471e-06
2.0067555e-06
2.0079145e-06
2.0097957e-06
2.0116292e-06
2.0172708e-06
2.0168897e-06
4.2646649e-07
3.5819119e-07
4.0654767e-07
4.8005198e-07
5.6425746e-07
6.5456284e-07
7.4734607e-07
8.3876752e-07
9.2522212e-07
1.0037478e-06
1.0723646e-06
1.1302065e-06
1.1773817e-06
1.2146888e-06
1.2433132e-06
1.2645777e-06
1.2797745e-06
1.2900706e-06
1.2964687e-06
1.2998023e-06
1.3007493e-06
1.2998531e-06
1.297545e-06
1.294165e-06
1.2899805e-06
1.2852015e-06
1.2799927e-06
1.2744826e-06
1.268772e-06
1.2629396e-06
1.2570469e-06
1.2511419e-06