/*--------------------------------*- C++ -*----------------------------------*\
| =========                 |                                                 |
| \\      /  F ield         | OpenFOAM: The Open Source CFD Toolbox           |
|  \\    /   O peration     | Version:  2206                                  |
|   \\  /    A nd           | Website:  www.openfoam.com                      |
|    \\/     M anipulation  |                                                 |
\*---------------------------------------------------------------------------*/
FoamFile
{
    version     2.0;
    format      ascii;
    arch        "LSB;label=32;scalar=64";
    class       volScalarField;
    location    "300";
    object      p;
}
// * * * * * * * * * * * * * * * * * * * * * * * * * * * * * * * * * * * * * //

dimensions      [0 2 -2 0 0 0 0];

internalField   nonuniform List<scalar> 
13056
(
0.011675126
0.011776909
0.011993143
0.012269434
0.01260418
0.01299774
0.013448373
0.013955353
0.01452005
0.01514572
0.015837381
0.016602156
0.017449884
0.018394423
0.019454711
0.020659623
0.022046501
0.023688789
0.025653166
0.028212873
0.031340797
0.036672663
0.041941853
0.081444445
0.051381794
0.0018861471
0.00058616442
0.0014587314
0.0020163985
0.0024438141
0.0026931177
0.0028712404
0.0029997053
0.0030846782
0.00314034
0.0031761339
0.0031977316
0.003209371
0.0032137897
0.0032130812
0.0032090485
0.0032028877
0.0031954224
0.0031873968
0.0031793322
0.0031715597
0.0031643345
0.0031578349
0.0031522009
0.0031475136
0.0031437711
0.0031409791
0.0031391315
0.0031381883
0.0031381326
0.003138933
0.0031405001
0.0031427852
0.0031457388
0.0031493079
0.0031534417
0.0031580879
0.003163213
0.0031687651
0.00317467
0.0031808891
0.0031873782
0.003194094
0.0032009941
0.0032080255
0.0032151607
0.0032223718
0.003229587
0.0032367432
0.0032437984
0.0032506989
0.003257392
0.0032638302
0.0032699423
0.0032756938
0.0032810217
0.0032857947
0.0032899394
0.0032933818
0.0032960292
0.0032978065
0.0032985861
0.0032982953
0.003296851
0.0032940346
0.0032897112
0.0032837717
0.0032760744
0.0032664889
0.0032549075
0.0032410631
0.0032246781
0.0032056183
0.0031836535
0.0031586764
0.0031305245
0.0030987654
0.0030631502
0.0030233927
0.0029793693
0.0029308475
0.0028772703
0.0028182989
0.0027536721
0.0026831656
0.0026061593
0.0025218573
0.0024303444
0.0023326647
0.0022312929
0.0021285217
0.0020254311
0.0019220509
0.0018181388
0.0017139736
0.0016100162
0.0015064964
0.0014032204
0.0013004473
0.0011983949
0.0010977023
0.00099872618
0.00090152701
0.00080717512
0.00071603081
0.00063201739
0.00055108447
0.00049912429
0.00042144925
0.00058664678
-0.00040680891
0.011675126
0.011776909
0.011993143
0.012269434
0.01260418
0.01299774
0.013448373
0.013955353
0.01452005
0.01514572
0.015837382
0.016602157
0.017449886
0.018394425
0.019454714
0.020659626
0.022046506
0.023688795
0.025653175
0.028212888
0.031340817
0.036672707
0.041941912
0.081439586
0.051393357
0.0018934843
0.00058803963
0.001459578
0.0020169159
0.0024441774
0.0026933922
0.0028714582
0.0029998832
0.0030848268
0.0031404665
0.003176243
0.0031978268
0.0032094547
0.003213864
0.0032131475
0.003209108
0.0032029413
0.003195471
0.0031874409
0.0031793725
0.0031715965
0.0031643683
0.0031578659
0.0031522295
0.00314754
0.0031437954
0.0031410016
0.0031391524
0.0031382077
0.0031381517
0.0031389498
0.0031405158
0.0031427997
0.0031457524
0.0031493206
0.0031534535
0.003158099
0.0031632234
0.0031687749
0.0031746791
0.0031808976
0.0031873861
0.0031941014
0.0032010011
0.003208032
0.0032151669
0.0032223776
0.0032295924
0.0032367482
0.0032438031
0.0032507033
0.0032573961
0.003263834
0.0032699459
0.0032756971
0.0032810248
0.0032857976
0.0032899421
0.0032933843
0.0032960315
0.0032978087
0.0032985881
0.0032982971
0.0032968528
0.0032940362
0.0032897127
0.0032837731
0.0032760757
0.0032664901
0.0032549086
0.0032410641
0.003224679
0.0032056192
0.0031836543
0.0031586771
0.0031305252
0.003098766
0.0030631508
0.0030233932
0.0029793698
0.002930848
0.0028772708
0.0028182993
0.0027536725
0.002683166
0.0026061597
0.0025218576
0.0024303447
0.002332665
0.0022312932
0.002128522
0.0020254314
0.0019220512
0.001818139
0.0017139739
0.0016100165
0.0015064966
0.0014032207
0.0013004475
0.0011983951
0.0010977025
0.00099872641
0.00090152724
0.00080717534
0.00071603104
0.00063201762
0.00055108471
0.00049912457
0.00042144955
0.00058664708
-0.00040680872
0.011675126
0.011776909
0.011993143
0.012269434
0.012604181
0.012997741
0.013448373
0.013955353
0.014520051
0.015145721
0.015837383
0.016602158
0.017449887
0.018394427
0.019454716
0.02065963
0.022046511
0.023688803
0.025653185
0.028212906
0.031340841
0.036672756
0.04194196
0.081434658
0.051409306
0.0019005791
0.00059026333
0.0014605901
0.0020175344
0.0024446117
0.0026937204
0.0028717185
0.0030000958
0.0030850044
0.0031406176
0.0031763734
0.0031979405
0.0032095548
0.0032139528
0.0032132267
0.003209179
0.0032030054
0.003195529
0.0031874937
0.0031794206
0.0031716404
0.0031644086
0.003157903
0.0031522636
0.0031475715
0.0031438245
0.0031410286
0.0031391774
0.0031382309
0.0031381744
0.0031389699
0.0031405345
0.0031428172
0.0031457687
0.0031493358
0.0031534677
0.0031581122
0.0031632358
0.0031687865
0.0031746899
0.0031809078
0.0031873957
0.0031941104
0.0032010095
0.0032080398
0.0032151742
0.0032223844
0.0032295988
0.0032367542
0.0032438087
0.0032507086
0.003257401
0.0032638386
0.0032699502
0.0032757011
0.0032810285
0.0032858011
0.0032899454
0.0032933873
0.0032960343
0.0032978113
0.0032985905
0.0032982994
0.0032968548
0.0032940382
0.0032897145
0.0032837747
0.0032760772
0.0032664915
0.0032549099
0.0032410654
0.0032246801
0.0032056202
0.0031836553
0.003158678
0.003130526
0.0030987668
0.0030631515
0.0030233939
0.0029793704
0.0029308486
0.0028772713
0.0028182999
0.002753673
0.0026831665
0.0026061601
0.0025218581
0.0024303451
0.0023326654
0.0022312936
0.0021285223
0.0020254318
0.0019220515
0.0018181394
0.0017139742
0.0016100168
0.0015064969
0.0014032209
0.0013004478
0.0011983954
0.0010977028
0.00099872668
0.00090152751
0.00080717561
0.00071603131
0.0006320179
0.00055108499
0.00049912489
0.0004214499
0.00058664744
-0.0004068085
0.011675126
0.011776909
0.011993143
0.012269435
0.012604181
0.012997741
0.013448374
0.013955354
0.014520052
0.015145722
0.015837384
0.01660216
0.017449889
0.018394429
0.019454719
0.020659634
0.022046516
0.02368881
0.025653195
0.028212923
0.031340864
0.036672804
0.041942009
0.081429827
0.051427079
0.0019058428
0.00059235563
0.0014615817
0.0020181405
0.0024450373
0.0026940421
0.0028719737
0.0030003041
0.0030851785
0.0031407658
0.0031765012
0.003198052
0.0032096529
0.0032140398
0.0032133043
0.0032092487
0.0032030682
0.0031955859
0.0031875454
0.0031794677
0.0031716835
0.0031644481
0.0031579393
0.003152297
0.0031476023
0.003143853
0.003141055
0.0031392019
0.0031382536
0.0031381957
0.0031389895
0.0031405528
0.0031428342
0.0031457846
0.0031493506
0.0031534816
0.0031581252
0.0031632479
0.0031687978
0.0031747006
0.0031809177
0.003187405
0.0031941191
0.0032010177
0.0032080475
0.0032151813
0.0032223911
0.0032296051
0.0032367601
0.0032438142
0.0032507137
0.0032574058
0.0032638431
0.0032699544
0.0032757051
0.0032810322
0.0032858045
0.0032899485
0.0032933903
0.0032960371
0.0032978139
0.0032985929
0.0032983016
0.0032968569
0.0032940401
0.0032897162
0.0032837764
0.0032760787
0.0032664929
0.0032549112
0.0032410666
0.0032246813
0.0032056213
0.0031836562
0.0031586789
0.0031305268
0.0030987676
0.0030631522
0.0030233946
0.0029793711
0.0029308491
0.0028772719
0.0028183004
0.0027536735
0.0026831669
0.0026061606
0.0025218585
0.0024303455
0.0023326658
0.002231294
0.0021285227
0.0020254321
0.0019220518
0.0018181397
0.0017139745
0.0016100171
0.0015064972
0.0014032212
0.0013004481
0.0011983957
0.0010977031
0.00099872695
0.00090152777
0.00080717588
0.00071603157
0.00063201817
0.00055108526
0.00049912521
0.00042145024
0.00058664779
-0.00040680828
0.011675126
0.01177691
0.011993143
0.012269435
0.012604181
0.012997741
0.013448374
0.013955354
0.014520052
0.015145722
0.015837385
0.016602161
0.01744989
0.018394431
0.019454722
0.020659638
0.022046521
0.023688818
0.025653206
0.028212941
0.031340887
0.036672853
0.041942066
0.081424651
0.051445939
0.0019117273
0.00059447176
0.001462597
0.0020187612
0.0024454731
0.0026943714
0.002872235
0.0030005175
0.0030853568
0.0031409174
0.0031766321
0.0031981661
0.0032097534
0.0032141289
0.0032133839
0.00320932
0.0032031326
0.0031956441
0.0031875983
0.0031795159
0.0031717277
0.0031644886
0.0031579765
0.0031523313
0.0031476339
0.0031438822
0.003141082
0.0031392269
0.0031382769
0.0031382173
0.0031390097
0.0031405715
0.0031428517
0.003145801
0.0031493659
0.0031534958
0.0031581385
0.0031632604
0.0031688095
0.0031747114
0.0031809279
0.0031874145
0.003194128
0.003201026
0.0032080553
0.0032151887
0.003222398
0.0032296115
0.0032367661
0.0032438198
0.003250719
0.0032574108
0.0032638477
0.0032699586
0.0032757091
0.0032810359
0.003285808
0.0032899518
0.0032933933
0.0032960399
0.0032978165
0.0032985953
0.0032983038
0.003296859
0.003294042
0.003289718
0.003283778
0.0032760803
0.0032664943
0.0032549125
0.0032410678
0.0032246824
0.0032056223
0.0031836572
0.0031586798
0.0031305277
0.0030987684
0.003063153
0.0030233953
0.0029793717
0.0029308497
0.0028772724
0.0028183009
0.002753674
0.0026831674
0.002606161
0.0025218589
0.0024303459
0.0023326662
0.0022312943
0.002128523
0.0020254324
0.0019220522
0.00181814
0.0017139748
0.0016100174
0.0015064975
0.0014032215
0.0013004484
0.001198396
0.0010977034
0.00099872722
0.00090152804
0.00080717615
0.00071603184
0.00063201845
0.00055108554
0.00049912554
0.00042145058
0.00058664815
-0.00040680807
0.011675126
0.01177691
0.011993143
0.012269435
0.012604181
0.012997741
0.013448375
0.013955355
0.014520053
0.015145723
0.015837386
0.016602162
0.017449892
0.018394434
0.019454725
0.020659642
0.022046527
0.023688826
0.025653217
0.02821296
0.031340913
0.036672905
0.041942132
0.081418905
0.051465592
0.0019190464
0.00059672208
0.0014636752
0.0020194204
0.002445936
0.0026947213
0.0028725125
0.0030007441
0.0030855461
0.0031410786
0.0031767711
0.0031982874
0.00320986
0.0032142235
0.0032134683
0.0032093958
0.0032032009
0.003195706
0.0031876545
0.0031795672
0.0031717745
0.0031645315
0.003158016
0.0031523676
0.0031476675
0.0031439133
0.0031411107
0.0031392536
0.0031383016
0.0031382402
0.0031390311
0.0031405915
0.0031428703
0.0031458183
0.0031493821
0.003153511
0.0031581527
0.0031632736
0.0031688218
0.003174723
0.0031809387
0.0031874247
0.0031941375
0.0032010349
0.0032080636
0.0032151965
0.0032224053
0.0032296184
0.0032367725
0.0032438258
0.0032507246
0.003257416
0.0032638526
0.0032699632
0.0032757133
0.0032810399
0.0032858117
0.0032899552
0.0032933965
0.0032960429
0.0032978193
0.0032985979
0.0032983062
0.0032968612
0.0032940441
0.0032897199
0.0032837798
0.0032760819
0.0032664958
0.0032549139
0.0032410691
0.0032246836
0.0032056234
0.0031836582
0.0031586808
0.0031305285
0.0030987692
0.0030631537
0.003023396
0.0029793724
0.0029308504
0.002877273
0.0028183015
0.0027536745
0.0026831679
0.0026061615
0.0025218594
0.0024303463
0.0023326666
0.0022312947
0.0021285234
0.0020254328
0.0019220525
0.0018181403
0.0017139751
0.0016100177
0.0015064978
0.0014032218
0.0013004487
0.0011983963
0.0010977037
0.00099872751
0.00090152833
0.00080717644
0.00071603213
0.00063201875
0.00055108584
0.00049912589
0.00042145094
0.00058664854
-0.00040680784
0.011675126
0.01177691
0.011993143
0.012269435
0.012604182
0.012997742
0.013448375
0.013955355
0.014520053
0.015145724
0.015837387
0.016602164
0.017449894
0.018394437
0.019454729
0.020659647
0.022046533
0.023688835
0.02565323
0.028212982
0.031340943
0.036672965
0.041942209
0.081412473
0.051486276
0.001927117
0.00059914693
0.0014648356
0.0020201301
0.0024464344
0.0026950979
0.0028728112
0.0030009881
0.00308575
0.003141252
0.0031769207
0.0031984179
0.0032099749
0.0032143253
0.0032135592
0.0032094774
0.0032032744
0.0031957726
0.003187715
0.0031796224
0.003171825
0.0031645778
0.0031580585
0.0031524068
0.0031477036
0.0031439466
0.0031411416
0.0031392822
0.0031383282
0.0031382649
0.0031390541
0.0031406129
0.0031428903
0.0031458369
0.0031493995
0.0031535272
0.0031581679
0.0031632878
0.0031688351
0.0031747355
0.0031809504
0.0031874356
0.0031941477
0.0032010445
0.0032080726
0.0032152049
0.0032224132
0.0032296257
0.0032367793
0.0032438322
0.0032507306
0.0032574216
0.0032638578
0.0032699681
0.0032757179
0.0032810442
0.0032858157
0.0032899589
0.0032933999
0.0032960461
0.0032978223
0.0032986007
0.0032983088
0.0032968636
0.0032940463
0.003289722
0.0032837817
0.0032760837
0.0032664975
0.0032549154
0.0032410705
0.0032246849
0.0032056246
0.0031836593
0.0031586818
0.0031305295
0.0030987701
0.0030631546
0.0030233968
0.0029793731
0.0029308511
0.0028772737
0.0028183021
0.0027536751
0.0026831684
0.002606162
0.0025218598
0.0024303468
0.002332667
0.0022312951
0.0021285238
0.0020254332
0.0019220529
0.0018181407
0.0017139755
0.001610018
0.0015064982
0.0014032222
0.001300449
0.0011983966
0.001097704
0.00099872783
0.00090152864
0.00080717675
0.00071603244
0.00063201907
0.00055108616
0.00049912627
0.00042145133
0.00058664895
-0.00040680759
0.011675126
0.01177691
0.011993143
0.012269435
0.012604182
0.012997742
0.013448375
0.013955356
0.014520054
0.015145725
0.015837388
0.016602165
0.017449897
0.01839444
0.019454733
0.020659652
0.022046541
0.023688846
0.025653245
0.028213007
0.031340976
0.036673032
0.041942299
0.081405216
0.051508268
0.0019357802
0.00060177607
0.0014660939
0.0020208998
0.0024469749
0.0026955063
0.0028731352
0.0030012527
0.003085971
0.0031414401
0.003177083
0.0031985594
0.0032100994
0.0032144358
0.0032136578
0.0032095658
0.0032033542
0.0031958448
0.0031877806
0.0031796822
0.0031718797
0.0031646279
0.0031581045
0.0031524492
0.0031477428
0.0031439828
0.0031411751
0.0031393133
0.0031383571
0.0031382918
0.003139079
0.0031406361
0.003142912
0.0031458572
0.0031494183
0.0031535449
0.0031581844
0.0031633032
0.0031688496
0.003174749
0.003180963
0.0031874474
0.0031941588
0.0032010548
0.0032080823
0.003215214
0.0032224217
0.0032296337
0.0032367868
0.0032438392
0.0032507371
0.0032574277
0.0032638635
0.0032699734
0.0032757229
0.0032810488
0.00328582
0.003289963
0.0032934037
0.0032960496
0.0032978255
0.0032986037
0.0032983116
0.0032968662
0.0032940487
0.0032897242
0.0032837838
0.0032760856
0.0032664992
0.0032549171
0.003241072
0.0032246863
0.0032056259
0.0031836605
0.0031586829
0.0031305306
0.0030987711
0.0030631555
0.0030233976
0.0029793739
0.0029308518
0.0028772744
0.0028183027
0.0027536757
0.002683169
0.0026061625
0.0025218604
0.0024303473
0.0023326675
0.0022312956
0.0021285243
0.0020254336
0.0019220533
0.0018181411
0.0017139759
0.0016100184
0.0015064986
0.0014032225
0.0013004494
0.0011983969
0.0010977043
0.00099872817
0.00090152898
0.00080717709
0.00071603278
0.00063201942
0.00055108651
0.00049912668
0.00042145175
0.0005866494
-0.00040680733
0.011675126
0.01177691
0.011993144
0.012269436
0.012604182
0.012997743
0.013448376
0.013955357
0.014520055
0.015145726
0.01583739
0.016602168
0.017449899
0.018394443
0.019454738
0.020659659
0.02204655
0.023688858
0.025653262
0.028213035
0.031341014
0.036673109
0.041942403
0.081396953
0.051531801
0.0019451749
0.00060464629
0.001467468
0.0020217405
0.0024475652
0.0026959525
0.0028734891
0.0030015417
0.0030862124
0.0031416455
0.0031772602
0.003198714
0.0032102355
0.0032145564
0.0032137654
0.0032096624
0.0032034413
0.0031959236
0.0031878523
0.0031797475
0.0031719394
0.0031646827
0.0031581549
0.0031524956
0.0031477855
0.0031440224
0.0031412118
0.0031393472
0.0031383886
0.0031383211
0.0031391063
0.0031406615
0.0031429356
0.0031458792
0.003149439
0.0031535641
0.0031582024
0.0031633201
0.0031688653
0.0031747637
0.0031809768
0.0031874603
0.0031941709
0.0032010662
0.0032080929
0.0032152239
0.003222431
0.0032296424
0.0032367949
0.0032438468
0.0032507442
0.0032574344
0.0032638698
0.0032699792
0.0032757283
0.0032810538
0.0032858247
0.0032899674
0.0032934078
0.0032960534
0.003297829
0.003298607
0.0032983147
0.003296869
0.0032940513
0.0032897266
0.003283786
0.0032760877
0.0032665012
0.0032549188
0.0032410737
0.0032246878
0.0032056274
0.0031836619
0.0031586842
0.0031305317
0.0030987721
0.0030631564
0.0030233985
0.0029793747
0.0029308526
0.0028772751
0.0028183034
0.0027536764
0.0026831697
0.0026061631
0.0025218609
0.0024303478
0.002332668
0.0022312961
0.0021285247
0.0020254341
0.0019220537
0.0018181415
0.0017139763
0.0016100188
0.001506499
0.0014032229
0.0013004497
0.0011983973
0.0010977047
0.00099872854
0.00090152935
0.00080717745
0.00071603315
0.0006320198
0.00055108689
0.00049912712
0.00042145221
0.00058664989
-0.00040680703
0.011675126
0.01177691
0.011993144
0.012269436
0.012604183
0.012997743
0.013448377
0.013955357
0.014520056
0.015145728
0.015837392
0.01660217
0.017449902
0.018394447
0.019454743
0.020659666
0.02204656
0.023688873
0.025653281
0.028213068
0.031341058
0.036673197
0.041942523
0.081387465
0.051557085
0.0019554668
0.00060780019
0.0014689785
0.0020226649
0.0024482144
0.0026964431
0.0028738782
0.0030018594
0.0030864779
0.0031418714
0.003177455
0.0031988839
0.003210385
0.003214689
0.0032138838
0.0032097686
0.003203537
0.0031960103
0.0031879311
0.0031798194
0.0031720051
0.0031647429
0.0031582102
0.0031525465
0.0031478326
0.0031440658
0.003141252
0.0031393846
0.0031384232
0.0031383532
0.0031391362
0.0031406894
0.0031429616
0.0031459035
0.0031494616
0.0031535853
0.0031582221
0.0031633386
0.0031688826
0.0031747799
0.003180992
0.0031874745
0.0031941842
0.0032010786
0.0032081046
0.0032152348
0.0032224412
0.0032296519
0.0032368039
0.0032438552
0.003250752
0.0032574417
0.0032638766
0.0032699856
0.0032757342
0.0032810594
0.0032858299
0.0032899722
0.0032934123
0.0032960575
0.0032978329
0.0032986106
0.003298318
0.0032968721
0.0032940542
0.0032897293
0.0032837885
0.00327609
0.0032665033
0.0032549208
0.0032410755
0.0032246895
0.0032056289
0.0031836633
0.0031586855
0.0031305329
0.0030987733
0.0030631575
0.0030233995
0.0029793757
0.0029308535
0.002877276
0.0028183042
0.0027536771
0.0026831704
0.0026061638
0.0025218616
0.0024303484
0.0023326686
0.0022312966
0.0021285253
0.0020254346
0.0019220542
0.001818142
0.0017139768
0.0016100193
0.0015064994
0.0014032234
0.0013004502
0.0011983977
0.0010977051
0.00099872895
0.00090152975
0.00080717786
0.00071603355
0.00063202022
0.0005510873
0.00049912761
0.00042145271
0.00058665042
-0.00040680671
0.011675126
0.01177691
0.011993144
0.012269436
0.012604183
0.012997744
0.013448377
0.013955358
0.014520058
0.015145729
0.015837394
0.016602173
0.017449906
0.018394452
0.019454749
0.020659674
0.022046571
0.023688889
0.025653304
0.028213106
0.031341109
0.036673301
0.041942661
0.081376495
0.051584321
0.0019668099
0.00061128469
0.0014706477
0.0020236868
0.002448932
0.0026969854
0.0028743084
0.0030022107
0.0030867714
0.0031421211
0.0031776705
0.0031990718
0.0032105503
0.0032148357
0.0032140147
0.003209886
0.0032036429
0.0031961062
0.0031880182
0.0031798988
0.0031720777
0.0031648095
0.0031582714
0.0031526029
0.0031478845
0.0031441139
0.0031412965
0.0031394258
0.0031384615
0.0031383888
0.0031391694
0.0031407203
0.0031429904
0.0031459303
0.0031494867
0.0031536087
0.003158244
0.003163359
0.0031689018
0.0031747978
0.0031810088
0.0031874902
0.0031941989
0.0032010924
0.0032081174
0.0032152469
0.0032224525
0.0032296625
0.0032368138
0.0032438644
0.0032507607
0.0032574497
0.0032638841
0.0032699927
0.0032757408
0.0032810655
0.0032858356
0.0032899775
0.0032934172
0.0032960621
0.0032978372
0.0032986146
0.0032983217
0.0032968755
0.0032940574
0.0032897322
0.0032837912
0.0032760925
0.0032665056
0.003254923
0.0032410775
0.0032246914
0.0032056307
0.0031836649
0.003158687
0.0031305343
0.0030987746
0.0030631587
0.0030234007
0.0029793767
0.0029308545
0.0028772769
0.0028183051
0.0027536779
0.0026831711
0.0026061645
0.0025218623
0.0024303491
0.0023326692
0.0022312972
0.0021285259
0.0020254352
0.0019220548
0.0018181426
0.0017139773
0.0016100198
0.0015064999
0.0014032238
0.0013004506
0.0011983982
0.0010977056
0.0009987294
0.0009015302
0.0008071783
0.000716034
0.00063202068
0.00055108776
0.00049912815
0.00042145327
0.00058665102
-0.00040680635
0.011675126
0.011776911
0.011993144
0.012269437
0.012604184
0.012997744
0.013448378
0.013955359
0.014520059
0.015145731
0.015837396
0.016602176
0.01744991
0.018394458
0.019454757
0.020659684
0.022046584
0.023688909
0.02565333
0.02821315
0.031341167
0.03667342
0.041942821
0.08136373
0.051613696
0.0019793661
0.00061515137
0.0014725007
0.0020248215
0.0024497289
0.0026975876
0.002874786
0.0030026007
0.0030870972
0.0031423983
0.0031779096
0.0031992804
0.0032107339
0.0032149985
0.00321416
0.0032100164
0.0032037604
0.0031962126
0.0031881149
0.0031799869
0.0031721583
0.0031648834
0.0031583393
0.0031526654
0.0031479422
0.0031441672
0.0031413458
0.0031394716
0.003138504
0.0031384283
0.0031392061
0.0031407545
0.0031430223
0.0031459601
0.0031495145
0.0031536347
0.0031582683
0.0031633817
0.003168923
0.0031748177
0.0031810274
0.0031875076
0.0031942152
0.0032011076
0.0032081317
0.0032152602
0.003222465
0.0032296742
0.0032368247
0.0032438747
0.0032507703
0.0032574587
0.0032638925
0.0032700005
0.0032757481
0.0032810723
0.0032858419
0.0032899834
0.0032934227
0.0032960672
0.0032978419
0.003298619
0.0032983258
0.0032968793
0.0032940609
0.0032897355
0.0032837943
0.0032760953
0.0032665082
0.0032549254
0.0032410797
0.0032246934
0.0032056326
0.0031836667
0.0031586886
0.0031305358
0.003098776
0.0030631601
0.0030234019
0.0029793779
0.0029308555
0.0028772779
0.002818306
0.0027536788
0.002683172
0.0026061653
0.002521863
0.0024303498
0.0023326699
0.0022312979
0.0021285265
0.0020254358
0.0019220554
0.0018181431
0.0017139779
0.0016100203
0.0015065004
0.0014032244
0.0013004512
0.0011983987
0.0010977061
0.0009987299
0.0009015307
0.0008071788
0.00071603449
0.00063202119
0.00055108828
0.00049912875
0.00042145389
0.00058665168
-0.00040680596
0.011675126
0.011776911
0.011993145
0.012269437
0.012604184
0.012997745
0.013448379
0.013955361
0.014520061
0.015145734
0.015837399
0.01660218
0.017449915
0.018394464
0.019454765
0.020659696
0.0220466
0.023688931
0.02565336
0.0282132
0.031341235
0.036673558
0.041943009
0.081348799
0.05164537
0.0019933173
0.00061945733
0.001474565
0.002026086
0.0024506169
0.0026982587
0.0028753183
0.0030030354
0.0030874604
0.0031427073
0.0031781762
0.0031995129
0.0032109385
0.0032151799
0.0032143219
0.0032101616
0.0032038914
0.0031963312
0.0031882226
0.0031800852
0.0031722481
0.0031649657
0.003158415
0.0031527351
0.0031480065
0.0031442266
0.0031414008
0.0031395226
0.0031385513
0.0031384723
0.0031392471
0.0031407926
0.0031430578
0.0031459933
0.0031495454
0.0031536636
0.0031582953
0.003163407
0.0031689466
0.0031748398
0.0031810481
0.003187527
0.0031942333
0.0032011246
0.0032081476
0.0032152751
0.0032224789
0.0032296872
0.0032368369
0.0032438861
0.0032507809
0.0032574687
0.0032639018
0.0032700092
0.0032757562
0.0032810799
0.003285849
0.00328999
0.0032934288
0.0032960729
0.0032978472
0.0032986239
0.0032983304
0.0032968836
0.0032940648
0.0032897391
0.0032837976
0.0032760984
0.0032665111
0.003254928
0.0032410822
0.0032246957
0.0032056347
0.0031836686
0.0031586905
0.0031305375
0.0030987776
0.0030631615
0.0030234033
0.0029793792
0.0029308568
0.002877279
0.0028183071
0.0027536798
0.0026831729
0.0026061663
0.0025218639
0.0024303506
0.0023326707
0.0022312986
0.0021285272
0.0020254365
0.0019220561
0.0018181438
0.0017139785
0.001610021
0.0015065011
0.001403225
0.0013004517
0.0011983993
0.0010977066
0.00099873046
0.00090153125
0.00080717935
0.00071603505
0.00063202176
0.00055108885
0.00049912942
0.00042145458
0.00058665241
-0.00040680552
0.011675126
0.011776911
0.011993145
0.012269438
0.012604185
0.012997746
0.01344838
0.013955362
0.014520063
0.015145736
0.015837402
0.016602184
0.017449921
0.018394471
0.019454775
0.020659709
0.022046618
0.023688956
0.025653395
0.028213258
0.031341313
0.036673716
0.041943231
0.081331252
0.051679464
0.0020088692
0.00062426614
0.0014768713
0.0020274993
0.0024516095
0.0026990088
0.0028759132
0.0030035212
0.0030878662
0.0031430526
0.0031784741
0.0031997727
0.0032111671
0.0032153826
0.0032145028
0.0032103239
0.0032040377
0.0031964637
0.003188343
0.0031801949
0.0031723485
0.0031650577
0.0031584995
0.0031528129
0.0031480783
0.003144293
0.0031414623
0.0031395796
0.0031386042
0.0031385215
0.0031392928
0.0031408353
0.0031430976
0.0031460303
0.00314958
0.0031536959
0.0031583255
0.0031634352
0.003168973
0.0031748645
0.0031810712
0.0031875487
0.0031942536
0.0032011436
0.0032081654
0.0032152918
0.0032224945
0.0032297018
0.0032368506
0.0032438988
0.0032507928
0.0032574798
0.0032639122
0.0032700189
0.0032757653
0.0032810883
0.0032858568
0.0032899973
0.0032934356
0.0032960793
0.0032978531
0.0032986294
0.0032983354
0.0032968883
0.0032940692
0.0032897432
0.0032838014
0.0032761019
0.0032665144
0.003254931
0.0032410849
0.0032246983
0.0032056371
0.0031836708
0.0031586925
0.0031305394
0.0030987793
0.0030631632
0.0030234048
0.0029793806
0.0029308581
0.0028772803
0.0028183083
0.002753681
0.002683174
0.0026061673
0.0025218648
0.0024303516
0.0023326715
0.0022312995
0.002128528
0.0020254373
0.0019220568
0.0018181445
0.0017139792
0.0016100217
0.0015065017
0.0014032256
0.0013004524
0.0011983999
0.0010977073
0.00099873109
0.00090153187
0.00080717997
0.00071603566
0.0006320224
0.00055108949
0.00049913017
0.00042145535
0.00058665323
-0.00040680502
0.011675126
0.011776911
0.011993146
0.012269438
0.012604186
0.012997747
0.013448382
0.013955364
0.014520065
0.015145739
0.015837406
0.016602189
0.017449927
0.01839448
0.019454786
0.020659724
0.022046639
0.023688986
0.025653434
0.028213324
0.031341402
0.036673896
0.04194349
0.081310552
0.051716049
0.0020262558
0.00062964874
0.0014794538
0.0020290825
0.0024527214
0.0026998491
0.0028765796
0.0030040654
0.0030883209
0.0031434394
0.0031788077
0.0032000637
0.0032114232
0.0032156097
0.0032147054
0.0032105058
0.0032042017
0.0031966121
0.0031884779
0.0031803179
0.0031724609
0.0031651607
0.0031585942
0.0031529001
0.0031481588
0.0031443674
0.0031415311
0.0031396434
0.0031386635
0.0031385765
0.003139344
0.003140883
0.003143142
0.0031460718
0.0031496187
0.0031537321
0.0031583593
0.0031634669
0.0031690026
0.0031748922
0.0031810971
0.0031875729
0.0031942763
0.0032011648
0.0032081853
0.0032153104
0.0032225119
0.0032297181
0.0032368658
0.0032439131
0.0032508062
0.0032574923
0.0032639238
0.0032700297
0.0032757754
0.0032810978
0.0032858656
0.0032900055
0.0032934433
0.0032960864
0.0032978597
0.0032986355
0.0032983411
0.0032968936
0.0032940741
0.0032897477
0.0032838056
0.0032761058
0.003266518
0.0032549344
0.003241088
0.0032247011
0.0032056397
0.0031836733
0.0031586948
0.0031305416
0.0030987813
0.003063165
0.0030234065
0.0029793822
0.0029308596
0.0028772817
0.0028183096
0.0027536822
0.0026831752
0.0026061684
0.0025218659
0.0024303526
0.0023326725
0.0022313004
0.0021285289
0.0020254381
0.0019220577
0.0018181454
0.00171398
0.0016100224
0.0015065025
0.0014032264
0.0013004531
0.0011984007
0.001097708
0.00099873179
0.00090153257
0.00080718066
0.00071603636
0.00063202311
0.0005510902
0.000499131
0.00042145622
0.00058665416
-0.00040680446
0.011675126
0.011776912
0.011993146
0.012269439
0.012604187
0.012997748
0.013448383
0.013955366
0.014520068
0.015145742
0.015837411
0.016602195
0.017449935
0.01839449
0.019454799
0.020659742
0.022046662
0.023689019
0.02565348
0.028213399
0.031341503
0.036674101
0.041943774
0.081286047
0.051755122
0.0020457452
0.00063568454
0.0014823511
0.0020308594
0.0024539694
0.0027007923
0.0028773276
0.0030046762
0.0030888311
0.0031438735
0.0031791822
0.0032003903
0.0032117106
0.0032158645
0.0032149329
0.0032107098
0.0032043856
0.0031967786
0.0031886292
0.0031804558
0.003172587
0.0031652764
0.0031587004
0.003152998
0.003148249
0.0031444508
0.0031416084
0.003139715
0.0031387299
0.0031386383
0.0031394015
0.0031409365
0.0031431919
0.0031461183
0.0031496622
0.0031537727
0.0031583973
0.0031635023
0.0031690358
0.0031749232
0.0031811261
0.0031876001
0.0031943017
0.0032011887
0.0032082076
0.0032153312
0.0032225314
0.0032297364
0.0032368829
0.0032439291
0.0032508211
0.0032575062
0.0032639369
0.0032700419
0.0032757868
0.0032811084
0.0032858755
0.0032900147
0.0032934518
0.0032960943
0.0032978671
0.0032986424
0.0032983475
0.0032968995
0.0032940796
0.0032897528
0.0032838103
0.0032761101
0.003266522
0.0032549381
0.0032410915
0.0032247043
0.0032056427
0.0031836761
0.0031586973
0.0031305439
0.0030987835
0.0030631671
0.0030234085
0.002979384
0.0029308613
0.0028772833
0.0028183111
0.0027536837
0.0026831765
0.0026061697
0.0025218671
0.0024303537
0.0023326736
0.0022313015
0.0021285299
0.0020254391
0.0019220586
0.0018181463
0.0017139809
0.0016100233
0.0015065034
0.0014032272
0.001300454
0.0011984015
0.0010977088
0.00099873258
0.00090153335
0.00080718144
0.00071603713
0.00063202392
0.000551091
0.00049913194
0.00042145719
0.00058665519
-0.00040680384
0.011675126
0.011776912
0.011993147
0.01226944
0.012604188
0.01299775
0.013448385
0.013955369
0.014520071
0.015145746
0.015837416
0.016602201
0.017449943
0.018394501
0.019454814
0.020659762
0.022046689
0.023689057
0.025653531
0.028213484
0.031341617
0.036674333
0.041944063
0.08125696
0.051796579
0.0020676483
0.00064246261
0.0014856061
0.0020328567
0.0024553723
0.0027018524
0.0028781683
0.0030053627
0.0030894047
0.0031443615
0.0031796031
0.0032007574
0.0032120336
0.003216151
0.0032151885
0.0032109391
0.0032045924
0.0031969658
0.0031887993
0.0031806109
0.0031727288
0.0031654063
0.0031588198
0.0031531079
0.0031483505
0.0031445445
0.0031416951
0.0031397954
0.0031388046
0.0031387077
0.0031394661
0.0031409966
0.003143248
0.0031461706
0.003149711
0.0031538182
0.0031584399
0.0031635422
0.003169073
0.0031749581
0.0031811587
0.0031876306
0.0031943303
0.0032012154
0.0032082326
0.0032153547
0.0032225534
0.0032297569
0.0032369021
0.003243947
0.0032508379
0.0032575219
0.0032639515
0.0032700556
0.0032757995
0.0032811203
0.0032858866
0.003290025
0.0032934614
0.0032961032
0.0032978754
0.0032986501
0.0032983547
0.0032969061
0.0032940857
0.0032897585
0.0032838156
0.003276115
0.0032665265
0.0032549423
0.0032410954
0.0032247079
0.003205646
0.0031836792