/*--------------------------------*- C++ -*----------------------------------*\
| =========                 |                                                 |
| \\      /  F ield         | OpenFOAM: The Open Source CFD Toolbox           |
|  \\    /   O peration     | Version:  2206                                  |
|   \\  /    A nd           | Website:  www.openfoam.com                      |
|    \\/     M anipulation  |                                                 |
\*---------------------------------------------------------------------------*/
FoamFile
{
    version     2.0;
    format      ascii;
    arch        "LSB;label=32;scalar=64";
    class       surfaceScalarField;
    location    "300";
    object      phi;
}
// * * * * * * * * * * * * * * * * * * * * * * * * * * * * * * * * * * * * * //

dimensions      [0 3 -1 0 0 0 0];

oriented        oriented;

internalField   nonuniform List<scalar> 
25880
(
2.0046397e-06
1.4453006e-11
2.0046063e-06
3.3385886e-11
2.0045652e-06
4.1082008e-11
2.0045188e-06
4.6393401e-11
2.0044654e-06
5.34365e-11
2.0044037e-06
6.1654479e-11
2.0043327e-06
7.1015062e-11
2.0042508e-06
8.1915353e-11
2.004156e-06
9.4823683e-11
2.0040457e-06
1.1025983e-10
2.0039168e-06
1.2888991e-10
2.0037651e-06
1.5168903e-10
2.0035852e-06
1.7998128e-10
2.0033691e-06
2.1609871e-10
2.0031065e-06
2.6260663e-10
2.0027793e-06
3.2719558e-10
2.0023674e-06
4.1182647e-10
2.0018111e-06
5.5631279e-10
2.0010895e-06
7.2161953e-10
1.9999008e-06
1.1886945e-09
1.9983934e-06
1.5073829e-09
1.9946575e-06
3.7359073e-09
1.9936778e-06
9.79697e-10
1.0011826e-06
9.9249521e-07
4.4182203e-09
9.967644e-07
2.1243841e-09
2.2938362e-09
1.6070917e-09
5.1729239e-10
1.3577596e-09
2.4933213e-10
1.2040647e-09
1.5369491e-10
1.0951641e-09
1.0890055e-10
1.0120902e-09
8.3073901e-11
9.4554941e-10
6.6540793e-11
8.9067385e-10
5.4875561e-11
8.4436039e-10
4.631346e-11
8.045403e-10
3.9820084e-11
7.6981802e-10
3.4722286e-11
7.3919952e-10
3.0618498e-11
7.1195154e-10
2.7247975e-11
6.8750643e-10
2.4445109e-11
6.6543021e-10
2.2076219e-11
6.4538343e-10
2.0046782e-11
6.2708269e-10
1.8300743e-11
6.103021e-10
1.6780587e-11
5.9485398e-10
1.5448122e-11
5.8058204e-10
1.4271935e-11
5.6735427e-10
1.3227768e-11
5.5505808e-10
1.2296193e-11
5.4359692e-10
1.1461159e-11
5.3288785e-10
1.0709069e-11
5.2285916e-10
1.0028694e-11
5.1344798e-10
9.4111802e-12
5.0459905e-10
8.8489234e-12
4.9626317e-10
8.3358871e-12
4.8839867e-10
7.8644921e-12
4.8096721e-10
7.4314629e-12
4.739338e-10
7.0334162e-12
4.6726909e-10
6.6647019e-12
4.609456e-10
6.323492e-12
4.5493882e-10
6.006779e-12
4.492267e-10
5.7121194e-12
4.4378926e-10
5.4374447e-12
4.3860838e-10
5.1808783e-12
4.3366785e-10
4.9405286e-12
4.2895296e-10
4.7148883e-12
4.2445006e-10
4.5029021e-12
4.2014665e-10
4.303416e-12
4.1603137e-10
4.115279e-12
4.1209382e-10
3.9375476e-12
4.0832442e-10
3.7694029e-12
4.0471427e-10
3.6101445e-12
4.012553e-10
3.4589691e-12
3.9794025e-10
3.3150557e-12
3.9476227e-10
3.1779782e-12
3.9171483e-10
3.0474421e-12
3.8879188e-10
2.9229452e-12
3.8598785e-10
2.8040297e-12
3.8329752e-10
2.6903318e-12
3.8071595e-10
2.5815697e-12
3.7823843e-10
2.4775259e-12
3.7586077e-10
2.3776561e-12
3.7357921e-10
2.2815646e-12
3.7138979e-10
2.1894206e-12
3.692886e-10
2.1011861e-12
3.6727203e-10
2.0165696e-12
3.6533705e-10
1.9349852e-12
3.6347938e-10
1.8576625e-12
3.6169561e-10
1.7837736e-12
3.5998394e-10
1.7116703e-12
3.5834112e-10
1.642821e-12
3.5676359e-10
1.5775266e-12
3.5524811e-10
1.5154815e-12
3.5379167e-10
1.4564464e-12
3.5239109e-10
1.4005727e-12
3.5104325e-10
1.3478432e-12
3.4974547e-10
1.2977844e-12
3.4849478e-10
1.2506873e-12
3.4728751e-10
1.207267e-12
3.4612005e-10
1.1674661e-12
3.4498883e-10
1.1312218e-12
3.4389062e-10
1.0982069e-12
3.4282266e-10
1.0679564e-12
3.4178157e-10
1.0410911e-12
3.4076316e-10
1.018413e-12
3.3976313e-10
1.000031e-12
3.3877787e-10
9.8526038e-13
3.3780443e-10
9.7343271e-13
3.3683929e-10
9.6514662e-13
3.3587794e-10
9.6134704e-13
3.3491607e-10
9.6186915e-13
3.3395037e-10
9.6570486e-13
3.3297676e-10
9.7361088e-13
3.3199036e-10
9.8640089e-13
3.3098761e-10
1.0027481e-12
3.3000724e-10
9.8036987e-13
3.2906666e-10
9.4057462e-13
3.281591e-10
9.0756707e-13
3.2728172e-10
8.773735e-13
3.2643252e-10
8.4919862e-13
3.2560824e-10
8.2428e-13
3.2480544e-10
8.0280487e-13
3.2402195e-10
7.8348528e-13
3.2325658e-10
7.6537461e-13
3.2250766e-10
7.489214e-13
3.217728e-10
7.3485255e-13
3.2104965e-10
7.2315572e-13
3.2033687e-10
7.1277642e-13
3.1963313e-10
7.037441e-13
3.1893619e-10
6.9693795e-13
3.1824061e-10
6.9558092e-13
3.1754522e-10
6.9539395e-13
3.1682649e-10
7.1872649e-13
3.1610807e-10
7.1842308e-13
3.1526453e-10
8.4353639e-13
3.1439269e-10
8.7184102e-13
3.1347101e-10
9.2167431e-13
5.5909018e-13
2.0345132e-06
2.9280301e-11
2.034479e-06
6.7650745e-11
2.0344368e-06
8.325855e-11
2.0343892e-06
9.4024639e-11
2.0343343e-06
1.0829783e-10
2.034271e-06
1.2494966e-10
2.0341981e-06
1.4391386e-10
2.034114e-06
1.6599503e-10
2.0340167e-06
1.921418e-10
2.0339036e-06
2.234065e-10
2.0337713e-06
2.6113748e-10
2.0336157e-06
3.0730863e-10
2.0334311e-06
3.6460003e-10
2.0332094e-06
4.3773235e-10
2.0329402e-06
5.3189658e-10
2.0326047e-06
6.6266098e-10
2.0321825e-06
8.3398319e-10
2.0316124e-06
1.1264597e-09
2.030873e-06
1.461017e-09
2.0296554e-06
2.406298e-09
2.0281115e-06
3.051293e-09
2.0242863e-06
7.5610328e-09
2.0232774e-06
1.9886605e-09
1.0224955e-06
1.9932771e-06
1.3480126e-08
2.0057798e-06
6.5000155e-09
9.2739467e-09
4.9174821e-09
2.0998258e-09
4.1545645e-09
1.0122498e-09
3.6842583e-09
6.2400105e-10
3.3510169e-09
4.4214201e-10
3.0968106e-09
3.3728019e-10
2.8931974e-09
2.7015393e-10
2.7252796e-09
2.2279339e-10
2.5835622e-09
1.8803082e-10
2.461715e-09
1.6166732e-10
2.3554672e-09
1.4097012e-10
2.261777e-09
1.2430869e-10
2.1784005e-09
1.1062447e-10
2.1036008e-09
9.9244781e-11
2.03605e-09
8.9627076e-11
1.974709e-09
8.1387725e-11
1.9187109e-09
7.4298851e-11
1.8673644e-09
6.8127083e-11
1.8200952e-09
6.2717339e-11
1.776425e-09
5.7942092e-11
1.73595e-09
5.3702844e-11
1.6983254e-09
4.9920713e-11
1.6632561e-09
4.6530536e-11
1.630488e-09
4.3477108e-11
1.5998019e-09
4.0714846e-11
1.5710053e-09
3.8207791e-11
1.5439291e-09
3.5925077e-11
1.5184228e-09
3.3842186e-11
1.4943589e-09
3.1928381e-11
1.4716201e-09
3.0170322e-11
1.4500992e-09
2.8554272e-11
1.4297066e-09
2.7057334e-11
1.410358e-09
2.5672052e-11
1.3919786e-09
2.4386224e-11
1.3745008e-09
2.3189932e-11
1.3578634e-09
2.2074775e-11
1.3420112e-09
2.1033136e-11
1.3268944e-09
2.0057336e-11
1.312468e-09
1.9141255e-11
1.2986903e-09
1.8280606e-11
1.285523e-09
1.7470707e-11
1.2729314e-09
1.6706884e-11
1.2608836e-09
1.5985307e-11
1.2493504e-09
1.5302651e-11
1.2383045e-09
1.4656072e-11
1.2277211e-09
1.4042309e-11
1.2175781e-09
1.3458031e-11
1.2078546e-09
1.2901506e-11
1.1985305e-09
1.2371538e-11
1.1895874e-09
1.186609e-11
1.1810081e-09
1.1383302e-11
1.1727767e-09
1.0921697e-11
1.1648782e-09
1.0480133e-11
1.157298e-09
1.0057724e-11
1.1500234e-09
9.6522628e-12
1.1430428e-09
9.2621445e-12
1.1363442e-09
8.8880521e-12
1.1299155e-09
8.5298328e-12
1.1237458e-09
8.1863043e-12
1.1178257e-09
7.8550886e-12
1.1121422e-09
7.5411709e-12
1.1066847e-09
7.2411975e-12
1.1014479e-09
6.9484821e-12
1.0964218e-09
6.6689753e-12
1.0915954e-09
6.4039024e-12
1.0869589e-09
6.1520228e-12
1.0825029e-09
5.9123654e-12
1.078218e-09
5.6855446e-12
1.0740943e-09
5.4714901e-12
1.0701238e-09
5.268283e-12
1.0662974e-09
5.0771032e-12
1.0626038e-09
4.9008497e-12
1.059032e-09
4.7392932e-12
1.0555711e-09
4.5921763e-12
1.0522111e-09
4.4581719e-12
1.0489436e-09
4.3353949e-12
1.0457584e-09
4.226361e-12
1.0426425e-09
4.1343268e-12
1.0395828e-09
4.0597319e-12
1.0365682e-09
3.9997994e-12
1.0335898e-09
3.9518174e-12
1.0306368e-09
3.9182125e-12
1.0276953e-09
3.9028205e-12
1.0247522e-09
3.9049712e-12
1.0217973e-09
3.9205767e-12
1.0188182e-09
3.9527085e-12
1.0158e-09
4.0046635e-12
1.0127316e-09
4.0710693e-12
1.0097318e-09
3.9802502e-12
1.0068536e-09
3.8187002e-12
1.0040765e-09
3.6846993e-12
1.0013918e-09
3.5621227e-12
9.9879322e-10
3.4477395e-12
9.9627093e-10
3.3465727e-12
9.9381435e-10
3.2593834e-12
9.9141689e-10
3.1809436e-12
9.8907485e-10
3.107414e-12
9.8678316e-10
3.0406129e-12
9.8453452e-10
2.9834923e-12
9.8232167e-10
2.9359988e-12
9.801406e-10
2.8938542e-12
9.7798716e-10
2.8571793e-12
9.7585456e-10
2.8295379e-12
9.7372612e-10
2.8240192e-12
9.7159828e-10
2.8232343e-12
9.6939906e-10
2.9179499e-12
9.672009e-10
2.9165862e-12
9.6461975e-10
3.4246819e-12
9.6195348e-10
3.5381096e-12
9.5912664e-10
3.7485183e-12
2.2598034e-12
2.0947056e-06
4.472799e-11
2.0946699e-06
1.0336644e-10
2.0946259e-06
1.2723638e-10
2.0945763e-06
1.4369223e-10
2.0945191e-06
1.6550349e-10
2.0944531e-06
1.9094578e-10
2.0943771e-06
2.199164e-10
2.0942894e-06
2.536446e-10
2.094188e-06
2.9357924e-10
2.0940701e-06
3.4132667e-10
2.0939323e-06
3.9894477e-10
2.0937701e-06
4.6944618e-10
2.0935778e-06
5.5692093e-10
2.093347e-06
6.6857396e-10
2.0930665e-06
8.1232476e-10
2.0927173e-06
1.0119354e-09
2.0922778e-06
1.273426e-09
2.0916845e-06
1.7198136e-09
2.0909152e-06
2.2303142e-09
2.0896487e-06
3.6727148e-09
2.0880431e-06
4.6569046e-09
2.0840665e-06
1.1537646e-08
2.083012e-06
3.0431969e-09
1.0594319e-06
3.0168572e-06
2.3307643e-08
3.041904e-06
1.1264263e-08
2.1317327e-08
8.5221005e-09
4.8419887e-09
7.1999692e-09
2.3343811e-09
6.3848789e-09
1.4390914e-09
5.8073304e-09
1.0196905e-09
5.3667627e-09
7.7784781e-10
5.0138816e-09
6.2303508e-10
4.7228639e-09
5.1381105e-10
4.4772548e-09
4.3363992e-10
4.2660833e-09
3.7283884e-10
4.0819475e-09
3.2510596e-10
3.9195755e-09
2.8668067e-10
3.7750781e-09
2.5512186e-10
3.6454454e-09
2.2887746e-10
3.5283758e-09
2.0669668e-10
3.4220684e-09
1.8769512e-10
3.3250207e-09
1.7134654e-10
3.2360347e-09
1.5711308e-10
3.154115e-09
1.4463703e-10
3.0784328e-09
1.3362429e-10
3.008288e-09
1.2384768e-10
2.9430834e-09
1.1512528e-10
2.8823071e-09
1.0730682e-10
2.8255193e-09
1.0026497e-10
2.7723395e-09
9.3894628e-11
2.7224344e-09
8.8112842e-11
2.6755111e-09
8.2848432e-11
2.6313084e-09
7.8044836e-11
2.5896056e-09
7.3631246e-11
2.5501991e-09
6.9576801e-11
2.5129035e-09
6.5849819e-11
2.4775633e-09
6.2397588e-11
2.4440325e-09
5.9202839e-11
2.4121813e-09
5.6237452e-11
2.3818927e-09
5.3478549e-11
2.3530607e-09
5.0906762e-11
2.3255893e-09
4.8504518e-11
2.2993925e-09
4.6254113e-11
2.2743923e-09
4.4141435e-11
2.2505164e-09
4.2156591e-11
2.2276983e-09
4.0288786e-11
2.2058779e-09
3.8527241e-11
2.1850001e-09
3.6863122e-11
2.165014e-09
3.5288764e-11
2.1458725e-09
3.3797607e-11
2.1275326e-09
3.2382132e-11
2.109956e-09
3.1034658e-11
2.0931063e-09
2.9751188e-11
2.0769489e-09
2.8528963e-11
2.0614517e-09
2.7363287e-11
2.0465851e-09
2.6249873e-11
2.0323215e-09
2.5185313e-11
2.0186347e-09
2.4166972e-11
2.0054996e-09
2.3192809e-11
1.9928941e-09
2.2257736e-11
1.9807982e-09
2.1358053e-11
1.9691909e-09
2.0495329e-11
1.9580515e-09
1.9669215e-11
1.9473609e-09
1.8876986e-11
1.9371028e-09
1.8113162e-11
1.9272548e-09
1.7389215e-11
1.9177985e-09
1.6697444e-11
1.9087246e-09
1.6022431e-11
1.9000157e-09
1.5377867e-11
1.891653e-09
1.4766604e-11
1.8836192e-09
1.4185768e-11
1.8758985e-09
1.3633126e-11
1.8684739e-09
1.3110093e-11
1.8613289e-09
1.2616505e-11
1.8544492e-09
1.2147943e-11
1.8478192e-09
1.1707126e-11
1.8414193e-09
1.1300735e-11
1.8352304e-09
1.0928243e-11
1.8292335e-09
1.0589056e-11
1.8234116e-09
1.0280111e-11
1.8177499e-09
9.9970664e-12
1.8122305e-09
9.7457184e-12
1.8068313e-09
9.5335757e-12
1.8015294e-09
9.3616487e-12
1.7963056e-09
9.223535e-12
1.7911445e-09
9.1129837e-12
1.7860271e-09
9.0355894e-12
1.7809297e-09
9.000194e-12
1.7758294e-09
9.0052482e-12
1.7707087e-09
9.0413322e-12
1.7655459e-09
9.1155313e-12
1.7603151e-09
9.2354427e-12
1.7549975e-09
9.3886913e-12
1.7497984e-09
9.1793371e-12
1.7448102e-09
8.806825e-12
1.7399971e-09
8.4978246e-12
1.7353441e-09
8.2151579e-12
1.7308404e-09
7.9513765e-12
1.7264689e-09
7.7180703e-12
1.7222113e-09
7.5169936e-12
1.7180562e-09
7.3360867e-12
1.7139971e-09
7.1665056e-12
1.7100253e-09
7.0124441e-12
1.7061281e-09
6.880709e-12
1.7022929e-09
6.7711713e-12
1.6985128e-09
6.6739663e-12
1.6947806e-09
6.5893753e-12
1.6910845e-09
6.5256155e-12
1.6873956e-09
6.5128698e-12
1.6837079e-09
6.5110274e-12
1.6798964e-09
6.7294026e-12
1.6760869e-09
6.72613e-12
1.6716137e-09
7.8978596e-12
1.666994e-09
8.1578347e-12
1.6620901e-09
8.6523338e-12
5.2005801e-12
2.1861139e-06
6.1061517e-11
2.1860761e-06
1.4115084e-10
2.1860296e-06
1.7378006e-10
2.185977e-06
1.9626022e-10
2.1859164e-06
2.2604834e-10
2.1858466e-06
2.6078973e-10
2.1857662e-06
3.0034198e-10
2.1856734e-06
3.4638341e-10
2.1855661e-06
4.0089163e-10
2.1854414e-06
4.6605785e-10
2.1852957e-06
5.4468866e-10
2.1851242e-06
6.4089291e-10
2.1849209e-06
7.6024823e-10
2.1846769e-06
9.1258126e-10
2.1843805e-06
1.1086882e-09
2.1840115e-06
1.380979e-09
2.1835473e-06
1.7376341e-09
2.1829206e-06
2.3464427e-09
2.1821084e-06
3.0425228e-09
2.1807719e-06
5.0092692e-09
2.1790776e-06
6.3512174e-09
2.1748829e-06
1.5732281e-08
2.1737639e-06
4.1621756e-09
1.1128482e-06
4.0777729e-06
3.4482428e-08
4.1202698e-06
1.6702096e-08
3.9097659e-08
1.2636571e-08
8.9075144e-09
1.0676152e-08
4.2948002e-09
9.4674633e-09
2.6477796e-09
8.6110161e-09
1.8761377e-09
7.9576999e-09
1.431164e-09
7.4344182e-09
1.1463168e-09
7.0028729e-09
9.4535632e-10
6.6386639e-09
7.9784896e-10
6.3255228e-09
6.859799e-10
6.0524732e-09
5.9815563e-10
5.8116971e-09
5.2745668e-10
5.597427e-09
4.6939198e-10
5.4052001e-09
4.2110442e-10
5.2316031e-09
3.8029369e-10
5.0739649e-09
3.4533327e-10
4.930058e-09
3.1525345e-10
4.7981057e-09
2.8906536e-10
4.676632e-09
2.6611075e-10
4.5644078e-09
2.4584848e-10
4.4603949e-09
2.2786058e-10
4.3637079e-09
2.1181232e-10
4.2735875e-09
1.974272e-10
4.1893815e-09
1.8447099e-10
4.1105258e-09
1.7275026e-10
4.0365263e-09
1.6211242e-10
3.9669482e-09
1.5242649e-10
3.9014047e-09
1.4358836e-10
3.839568e-09
1.3546793e-10
3.7811366e-09
1.280082e-10
3.7258355e-09
1.2115088e-10
3.6734339e-09
1.1479919e-10
3.6237156e-09
1.0892119e-10
3.5764878e-09
1.034652e-10
3.5315773e-09
9.8389103e-11
3.4888268e-09
9.3657278e-11
3.4480939e-09
8.923739e-11
3.4092511e-09
8.5096872e-11
3.3721828e-09
8.1209754e-11
3.3367816e-09
7.7557833e-11
3.3029491e-09
7.4121246e-11
3.2705962e-09
7.0880169e-11
3.239641e-09
6.781834e-11
3.2100081e-09
6.4921663e-11
3.1816276e-09
6.2178067e-11
3.154436e-09
5.957372e-11
3.1283762e-09
5.7094491e-11
3.1033944e-09
5.4733024e-11
3.0794391e-09
5.2484242e-11
3.0564629e-09
5.0339506e-11
3.0344218e-09
4.829093e-11
3.0132749e-09
4.6332247e-11
2.9929832e-09
4.4458606e-11
2.9735098e-09
4.2666252e-11
2.9548217e-09
4.0945829e-11
2.9368892e-09
3.9290529e-11
2.9196813e-09
3.7703238e-11
2.9031672e-09
3.6183311e-11
2.8873185e-09
3.4725742e-11
2.8721112e-09
3.3320459e-11
2.8575119e-09
3.19885e-11
2.8434935e-09
3.0715802e-11
2.830042e-09
2.9473972e-11
2.8171317e-09
2.8288126e-11
2.8047347e-09
2.7163593e-11
2.7928255e-09
2.6095046e-11
2.7813802e-09
2.5078385e-11
2.7703741e-09
2.4116218e-11
2.7597823e-09
2.3208236e-11
2.749584e-09
2.2346317e-11
2.7397556e-09
2.1535468e-11
2.7302684e-09
2.0787966e-11
2.7210938e-09
2.0102848e-11
2.7122038e-09
1.947902e-11
2.7035731e-09
1.891084e-11
2.6951798e-09
1.8390324e-11
2.6869974e-09
1.7928138e-11
2.6789929e-09
1.7538086e-11
2.6711325e-09
1.7222025e-11
2.6633879e-09
1.6968169e-11
2.6557358e-09
1.6765026e-11
2.6481485e-09
1.6622894e-11
2.6405907e-09
1.6558028e-11
2.6330284e-09
1.6567567e-11
2.6254355e-09
1.6634192e-11
2.6177801e-09
1.6770949e-11
2.6100237e-09
1.6991813e-11
2.6021384e-09
1.7274024e-11
2.5944287e-09
1.6889061e-11
2.5870317e-09
1.6203832e-11
2.5798941e-09
1.5635404e-11
2.5729939e-09
1.5115381e-11
2.5663152e-09
1.4630074e-11
2.5598324e-09
1.4200833e-11
2.5535185e-09
1.3830881e-11
2.5473566e-09
1.3498015e-11
2.5413371e-09
1.3185986e-11
2.535447e-09
1.2902523e-11
2.5296676e-09
1.2660141e-11
2.5239802e-09
1.2458594e-11
2.5183744e-09
1.2279727e-11
2.5128397e-09
1.2124065e-11
2.5073586e-09
1.2006736e-11
2.5018882e-09
1.1983253e-11
2.4964194e-09
1.1979826e-11
2.4907674e-09
1.238147e-11
2.4851181e-09
1.2375355e-11
2.4784852e-09
1.4530777e-11
2.4716355e-09
1.5007547e-11
2.4643606e-09
1.5927295e-11
9.5577045e-12
2.3101002e-06
7.8572335e-11
2.3100596e-06
1.8168371e-10
2.3100097e-06
2.2373208e-10
2.3099533e-06
2.5268084e-10
2.3098883e-06
2.9102871e-10
2.3098133e-06
3.3574512e-10
2.309727e-06
3.8664362e-10
2.3096275e-06
4.4588409e-10
2.3095124e-06
5.1601076e-10
2.3093786e-06
5.9984079e-10
2.3092223e-06
7.0098168e-10
2.3090385e-06
8.2471502e-10
2.3088205e-06
9.7820944e-10
2.308559e-06
1.1740963e-09
2.3082415e-06
1.4262461e-09
2.3078461e-06
1.7763213e-09
2.307349e-06
2.2347937e-09
2.3066781e-06
3.0173564e-09
2.3058087e-06
3.9118565e-09
2.3043788e-06
6.4392221e-09
2.3025663e-06
8.1636696e-09
2.2980812e-06
2.021737e-08
2.2968768e-06
5.3665776e-09
1.1838837e-06
5.190766e-06
4.7661602e-08
5.256492e-06
2.3138745e-08
6.3620515e-08
1.7507024e-08
1.4539236e-08
1.4791058e-08
7.0107661e-09
1.3116393e-08
4.3224448e-09
1.1929755e-08
3.0627751e-09
1.1024564e-08
2.3363556e-09
1.0299545e-08
1.8713351e-09
9.7016298e-09
1.5432718e-09
9.1970107e-09
1.3024681e-09
8.7631488e-09
1.1198418e-09
8.3848353e-09
9.7646911e-10
8.0512383e-09
8.6105365e-10
7.7543658e-09
7.6626453e-10
7.4880353e-09
6.8743484e-10
7.2475178e-09
6.208112e-10
7.0291114e-09
5.6373974e-10
6.8297302e-09
5.1463464e-10
6.6469126e-09
4.7188295e-10
6.4786135e-09
4.3440988e-10
6.3231299e-09
4.0133206e-10
6.1790233e-09
3.7196711e-10
6.0450671e-09
3.457686e-10
5.9202091e-09
3.2228513e-10
5.8035458e-09
3.0113433e-10
5.6942956e-09
2.8200046e-10
5.5917736e-09
2.6463437e-10
5.4953779e-09
2.4882226e-10
5.4045721e-09
2.3439409e-10
5.3189023e-09
2.2113774e-10
5.2379507e-09
2.0895985e-10
5.1613363e-09
1.9776524e-10
5.0887392e-09
1.8739626e-10
5.0198599e-09
1.778005e-10
4.9544315e-09
1.6889364e-10
4.8922136e-09
1.6060696e-10
4.8329886e-09
1.5288228e-10
4.7765592e-09
1.4566683e-10
4.7227486e-09
1.3890745e-10
4.6713966e-09
1.3256174e-10
4.6223545e-09
1.2659997e-10
4.575486e-09
1.2098973e-10
4.5306675e-09
1.1569865e-10
4.4877857e-09
1.107002e-10
4.446736e-09
1.0597134e-10
4.4074217e-09
1.014924e-10
4.3697546e-09
9.7240783e-11
4.3336557e-09
9.3193423e-11
4.2990504e-09
8.9338311e-11
4.2658675e-09
8.5667156e-11
4.2340411e-09
8.2165864e-11
4.2035105e-09
7.8821561e-11
4.1742187e-09
7.5624016e-11
4.146112e-09
7.2565313e-11
4.1191389e-09
6.963932e-11
4.093254e-09
6.6830772e-11
4.068416e-09
6.4128556e-11
4.0445818e-09
6.1537379e-11
4.0217089e-09
5.9056189e-11
3.9997579e-09
5.6676824e-11
3.9786955e-09
5.4382867e-11
3.9584754e-09
5.2208509e-11
3.9390602e-09
5.0131033e-11
3.9204302e-09
4.810402e-11
3.90255e-09
4.6168296e-11
3.8853808e-09
4.4332782e-11
3.8688872e-09
4.2588663e-11
3.8530363e-09
4.092928e-11
3.8377936e-09
3.9358887e-11
3.8231249e-09
3.7876971e-11
3.8090009e-09
3.6470287e-11
3.7953894e-09
3.5147018e-11
3.7822502e-09
3.3927186e-11
3.7695438e-09
3.2809221e-11
3.7572315e-09
3.1791341e-11
3.745278e-09
3.0864315e-11
3.7336532e-09
3.0015119e-11
3.7223202e-09
2.926117e-11
3.7112333e-09
2.8624987e-11
3.7003457e-09
2.8109588e-11
3.6896181e-09
2.7695725e-11
3.6790185e-09
2.7364642e-11
3.6685082e-09
2.7133176e-11
3.6580384e-09
2.7027837e-11
3.6475621e-09
2.7043922e-11
3.6370431e-09
2.7153182e-11
3.6264371e-09
2.7376943e-11
3.6156909e-09
2.7738017e-11
3.6047657e-09
2.8199246e-11
3.5940835e-09
2.757127e-11
3.5838343e-09
2.6452982e-11
3.5739445e-09
2.5525255e-11
3.5643834e-09
2.4676438e-11
3.5551292e-09
2.3884228e-11
3.5461465e-09
2.3183541e-11
3.5373978e-09
2.2579619e-11
3.5288596e-09
2.2036187e-11
3.5205188e-09
2.1526766e-11
3.5123574e-09
2.1064006e-11
3.5043492e-09
2.0668321e-11
3.4964685e-09
2.0339287e-11
3.488701e-09
2.004725e-11
3.4810319e-09
1.9793089e-11
3.4734372e-09
1.9601528e-11
3.4658573e-09
1.9563144e-11
3.4582796e-09
1.9557512e-11
3.4504481e-09
2.0212922e-11
3.4426206e-09
2.0202902e-11
3.4334308e-09
2.3720585e-11
3.4239408e-09
2.4497467e-11
3.4138583e-09
2.6009819e-11
1.5592524e-11
2.4685122e-06
9.7585795e-11
2.4684681e-06
2.2572561e-10
2.4684138e-06
2.7803659e-10
2.4683525e-06
3.140215e-10
2.4682818e-06
3.6167339e-10
2.4682003e-06
4.1722785e-10
2.4681065e-06
4.8044888e-10
2.4679984e-06
5.5401933e-10
2.4678733e-06
6.4109839e-10
2.467728e-06
7.4518162e-10
2.4675582e-06
8.7074403e-10
2.4673586e-06
1.0243376e-09
2.4671219e-06
1.2148539e-09
2.4668381e-06
1.4579625e-09
2.4664935e-06
1.7708606e-09
2.4660646e-06
2.2052341e-09
2.4655253e-06
2.774014e-09
2.4647979e-06
3.7447924e-09
2.4638557e-06
4.8540973e-09
2.4623065e-06
7.9883609e-09
2.4603433e-06
1.0126882e-08
2.4554876e-06
2.5073031e-08
2.4541741e-06
6.6801049e-09
1.2739968e-06
6.3709432e-06
6.3616178e-08
6.4668726e-06
3.0959147e-08
9.6277546e-08
2.3424811e-08
2.2073573e-08
1.9790842e-08
1.0644735e-08
1.7549918e-08
6.5633686e-09
1.5962024e-08
4.6506686e-09
1.4750745e-08
3.5476348e-09
1.3780573e-08
2.8415076e-09
1.298048e-08
2.343364e-09
1.2305232e-08
1.9777166e-09
1.1724668e-08
1.7004057e-09
1.1218437e-08
1.4827004e-09
1.0772043e-08
1.3074472e-09
1.0374792e-08
1.1635159e-09
1.0018411e-08
1.0438154e-09
9.6965731e-09
9.4264945e-10
9.4043221e-09
8.5599074e-10
9.1375301e-09
7.8142665e-10
8.8929028e-09
7.1651024e-10
8.6677034e-09
6.5960922e-10
8.4596534e-09
6.0938212e-10
8.2668276e-09
5.6479287e-10
8.0875845e-09
5.250117e-10
7.9205165e-09
4.8935317e-10
7.7644141e-09
4.572367e-10
7.6182317e-09
4.2818286e-10
7.4810528e-09
4.0181329e-10
7.3520717e-09
3.7780333e-10
7.2305711e-09
3.5589472e-10
7.115943e-09
3.3576577e-10
7.0076287e-09
3.172742e-10
6.9051185e-09
3.0027544e-10
6.8079841e-09
2.845307e-10
6.7158246e-09
2.6995992e-10
6.6282831e-09
2.5643518e-10
6.5450379e-09
2.4385215e-10
6.4657977e-09
2.3212249e-10
6.3902985e-09
2.2116606e-10
6.3183038e-09
2.1090214e-10
6.2495992e-09
2.0126636e-10
6.1839856e-09
1.9221356e-10
6.1212808e-09
1.8369454e-10
6.0613193e-09
1.7566015e-10
6.0039494e-09
1.6807008e-10
5.9490313e-09
1.6088939e-10
5.8964355e-09
1.5408819e-10
5.8460441e-09
1.4763218e-10
5.7977512e-09
1.4148634e-10
5.7514571e-09
1.3563242e-10
5.7070664e-09
1.3005783e-10
5.6644911e-09
1.2474119e-10
5.6236497e-09
1.1966295e-10
5.5844662e-09
1.1480758e-10
5.5468684e-09
1.1016305e-10
5.5107877e-09
1.0572006e-10
5.476163e-09
1.0145543e-10
5.4429393e-09
9.73523e-11
5.4110589e-09
9.3417809e-11
5.3804647e-09
8.9650361e-11
5.3511039e-09
8.6037578e-11
5.3229322e-09
8.2554585e-11
5.2958877e-09
7.9252996e-11
5.26992e-09
7.6098804e-11
5.2450026e-09
7.3021362e-11
5.2210886e-09
7.0082321e-11
5.1981257e-09
6.7295689e-11
5.1760665e-09
6.4647832e-11
5.1548671e-09
6.2128701e-11
5.1344812e-09
5.9744759e-11
5.114863e-09
5.7495203e-11
5.0959733e-09
5.5359942e-11
5.0777689e-09
5.3351432e-11
5.0601961e-09
5.1500035e-11
5.0432019e-09
4.9803367e-11
5.0267345e-09
4.8258733e-11
5.0107468e-09
4.6852075e-11
4.9951983e-09
4.5563626e-11
4.9800396e-09
4.4419857e-11
4.9652096e-09
4.3454926e-11
4.9506458e-09
4.2673397e-11
4.9362955e-09
4.2046014e-11
4.9221159e-09
4.1544316e-11
4.9080551e-09
4.1193913e-11
4.894048e-09
4.1035016e-11
4.8800315e-09
4.1060421e-11
4.8659574e-09
4.1227265e-11
4.8517663e-09
4.1567998e-11
4.8373871e-09
4.2117263e-11
4.8227677e-09
4.2818609e-11
4.808473e-09
4.1865941e-11
4.7947575e-09
4.0168524e-11
4.7815225e-09
3.8760256e-11
4.7687273e-09
3.7471582e-11
4.7563428e-09
3.6268729e-11
4.7443215e-09
3.5204849e-11
4.7326133e-09
3.4287868e-11
4.7211868e-09
3.3462633e-11
4.7100246e-09
3.2689025e-11
4.6991023e-09
3.1986326e-11
4.6883851e-09
3.1385499e-11
4.6778385e-09
3.0885866e-11
4.6674434e-09
3.0442356e-11
4.6571801e-09
3.0056345e-11
4.6470162e-09
2.976544e-11
4.6368723e-09
2.9707087e-11
4.6267313e-09
2.9698502e-11
4.616251e-09
3.0693264e-11
4.6057758e-09
3.0678096e-11
4.5934787e-09
3.6017689e-11
4.58078e-09
3.7196125e-11
4.567285e-09
3.9504792e-11
2.3667218e-11
2.6637105e-06
1.1847056e-10
2.6636621e-06
2.7414047e-10
2.6636023e-06
3.37768e-10
2.6635349e-06
3.8149714e-10
2.6634572e-06
4.3938084e-10
2.6633675e-06
5.0684895e-10
2.6632644e-06
5.8360889e-10
2.6631455e-06
6.7291802e-10
2.663008e-06
7.7861073e-10
2.6628482e-06
9.0492614e-10
2.6626617e-06
1.0572896e-09
2.6624424e-06
1.243645e-09
2.6621825e-06
1.4747707e-09
2.6618708e-06
1.769665e-09
2.6614925e-06
2.1491648e-09
2.6610217e-06
2.6759389e-09
2.6604302e-06
3.3655836e-09
2.6596324e-06
4.5425576e-09
2.6585995e-06
5.88703e-09
2.6569021e-06
9.685697e-09
2.6547515e-06
1.2277534e-08
2.6494353e-06
3.0389182e-08
2.6479855e-06
8.1299463e-09
1.3850089e-06
7.6339199e-06
8.3275019e-08
7.7686065e-06
4.0630954e-08
1.3892161e-07
3.0743927e-08
3.1960599e-08
2.5974586e-08
1.5414076e-08
2.303321e-08
9.5047446e-09
2.0948961e-08
6.7349178e-09
1.9359047e-08
5.1375485e-09
1.8085619e-08
4.1149357e-09
1.7035434e-08
3.3935489e-09
1.6149116e-08
2.8640341e-09
1.5387082e-08
2.4624398e-09
1.4722618e-08
2.1471651e-09
1.4136696e-08
1.8933687e-09
1.3615278e-08
1.6849344e-09
1.3147507e-08
1.5115858e-09
1.2725078e-08
1.3650785e-09
1.2341484e-08
1.2395846e-09
1.1991308e-08
1.1316026e-09
1.1670226e-08
1.0375926e-09
1.1374645e-08
9.5519015e-10
1.1101574e-08
8.8245282e-10
1.0848487e-08
8.1787999e-10
1.0613229e-08
7.6027005e-10
1.0393952e-08
7.0863037e-10
1.0189068e-08
6.6212021e-10
9.9972058e-09
6.2004527e-10
9.8171615e-09
5.8185759e-10
9.6478778e-09
5.4708701e-10
9.4884132e-09
5.1535934e-10
9.3379696e-09
4.8620942e-10
9.1958134e-09
4.5943035e-10
9.0612761e-09
4.3481277e-10
8.933795e-09
4.1201173e-10
8.8128444e-09
3.9091058e-10
8.6979553e-09
3.7132426e-10
8.5887058e-09
3.5310168e-10
8.4847134e-09
3.361149e-10
8.3856316e-09
3.2024787e-10
8.29115e-09
3.0538373e-10
8.2009871e-09
2.9142922e-10
8.1148817e-09
2.7831897e-10
8.0325945e-09
2.6598169e-10
7.9539084e-09
2.5434626e-10
7.8786243e-09
2.4335426e-10
7.8065585e-09
2.3295511e-10
7.7375412e-09
2.2310555e-10
7.6714175e-09
2.137559e-10
7.6080484e-09
2.0485543e-10
7.5473031e-09
1.9637773e-10
7.4890563e-09
1.8830458e-10
7.4331925e-09
1.8060499e-10
7.3796048e-09
1.7325069e-10
7.3281932e-09
1.6621917e-10
7.2788632e-09
1.5949302e-10
7.2315245e-09
1.5305877e-10
7.186097e-09
1.4688289e-10
7.1425084e-09
1.4094094e-10
7.1006829e-09
1.3524327e-10
7.0605457e-09
1.2978757e-10
7.0220274e-09
1.2455593e-10
6.9850695e-09
1.1951243e-10
6.9495913e-09
1.1473127e-10
6.915526e-09
1.101641e-10
6.882839e-09
1.0570827e-10
6.8514689e-09
1.0145247e-10
6.8213467e-09
9.7417855e-11
6.7924104e-09
9.3584189e-11
6.764602e-09
8.9937043e-11
6.737861e-09
8.6485783e-11
6.712127e-09
8.3229205e-11
6.6873487e-09
8.0138247e-11
6.6634691e-09
7.7230997e-11
6.6404178e-09
7.4551369e-11
6.6181253e-09
7.20959e-11
6.5965233e-09
6.9860715e-11
6.57555e-09
6.7825366e-11
6.5551524e-09
6.5961252e-11
6.5352655e-09
6.4306754e-11
6.5158091e-09
6.2911276e-11
6.4967011e-09
6.1781395e-11
6.4778725e-09
6.0874685e-11
6.4592668e-09
6.0149954e-11
6.4408163e-09
5.9644394e-11
6.4224352e-09
5.9416145e-11
6.404041e-09
5.9454664e-11
6.3855703e-09
5.9697936e-11
6.3669452e-09
6.0193068e-11
6.3480722e-09
6.0990252e-11
6.3288832e-09
6.2007657e-11
6.3101196e-09
6.0629575e-11
6.2921155e-09
5.8172582e-11
6.2747418e-09
5.6133956e-11
6.2579453e-09
5.4268114e-11
6.2416877e-09
5.2526312e-11
6.2259068e-09
5.0985773e-11
6.2105367e-09
4.9657912e-11
6.1955366e-09
4.8462727e-11
6.1808834e-09
4.7342273e-11
6.1665451e-09
4.6324614e-11
6.1524761e-09
4.5454523e-11
6.138631e-09
4.473096e-11
6.1249847e-09
4.4088572e-11
6.1115117e-09
4.3529428e-11
6.098169e-09
4.3108114e-11
6.0848526e-09
4.3023517e-11
6.07154e-09
4.3011062e-11
6.0577823e-09
4.4450947e-11
6.0440313e-09
4.4429156e-11
6.0278902e-09
5.2158761e-11
6.0112218e-09
5.3864476e-11
5.9935047e-09
5.7221932e-11
3.4266646e-11
2.8986041e-06
1.4164997e-10
2.8985503e-06
3.2792295e-10
2.8984839e-06
4.0416568e-10
2.8984089e-06
4.5650957e-10
2.8983225e-06
5.2576445e-10
2.8982229e-06
6.0646653e-10
2.8981082e-06
6.9825782e-10
2.8979761e-06
8.0503339e-10
2.8978234e-06
9.3137657e-10
2.8976459e-06
1.0823499e-09
2.8974388e-06
1.2644304e-09
2.8971953e-06
1.4871021e-09
2.8969069e-06
1.7632312e-09
2.8965611e-06
2.1154992e-09
2.8961414e-06
2.5687656e-09
2.8956195e-06
3.1978551e-09
2.8949638e-06
4.0212785e-09
2.89408e-06
5.4264367e-09
2.892936e-06
7.0309621e-09
2.8910574e-06
1.1564298e-08
2.8886775e-06
1.4657416e-08
2.8827987e-06
3.6268045e-08
2.8811809e-06
9.7477617e-09
1.5191571e-06
8.9959436e-06
1.0777723e-07
9.1799864e-06
5.2732484e-08
1.9396636e-07
3.990219e-08
4.4790894e-08
3.3712196e-08
2.160407e-08
2.989422e-08
1.3322721e-08
2.7188781e-08
9.4403569e-09
2.5125002e-08
7.2013277e-09
2.3472051e-08
5.767887e-09
2.2108875e-08
4.7567249e-09
2.0958404e-08
4.0145049e-09
1.9969261e-08
3.451583e-09
1.9106768e-08
3.0096573e-09
1.834623e-08
2.6539073e-09
1.7669418e-08
2.361746e-09
1.7062247e-08
2.1187574e-09
1.6513932e-08
1.9133929e-09
1.6016027e-08
1.7374901e-09
1.55615e-08
1.5861291e-09
1.5144739e-08
1.4543535e-09
1.4761081e-08
1.3388485e-09
1.4406642e-08
1.2368913e-09
1.4078144e-08
1.1463783e-09
1.3772789e-08
1.0656253e-09
1.3488178e-08
9.9324087e-10
1.3222252e-08
9.280466e-10
1.2973228e-08
8.6906928e-10
1.2739545e-08
8.1554076e-10
1.251983e-08
7.66802e-10
1.2312861e-08
7.2232828e-10
1.2117602e-08
6.8146857e-10
1.19331e-08
6.439316e-10
1.1758489e-08
6.0942388e-10
1.1593038e-08
5.774632e-10
1.1436063e-08
5.4788499e-10
1.1286958e-08
5.2043012e-10
1.1145172e-08
4.9488681e-10
1.1010212e-08
4.710757e-10
1.0881625e-08
4.4883416e-10
1.0759011e-08
4.2799837e-10
1.0642002e-08
4.0843764e-10
1.0530261e-08
3.9006028e-10
1.0423476e-08
3.7276641e-10
1.0321366e-08
3.5645632e-10
1.0223672e-08
3.4104813e-10
1.0130157e-08
3.2647096e-10
1.0040598e-08
3.1266419e-10
9.9547956e-09
2.9955818e-10
9.8725692e-09
2.8708182e-10
9.7937489e-09
2.7519808e-10
9.718172e-09
2.6388142e-10
9.6456886e-09
2.5308845e-10
9.5761597e-09
2.4277953e-10
9.5094558e-09
2.3292311e-10
9.445454e-09
2.2349481e-10
9.384037e-09
2.1447574e-10
9.325101e-09
2.0581891e-10
9.2685518e-09
1.974901e-10
9.2142913e-09
1.895038e-10
9.1622221e-09
1.8185676e-10
9.1122541e-09
1.7452396e-10
9.0643114e-09
1.6745516e-10
9.0182892e-09
1.6075347e-10
8.9741006e-09
1.5435267e-10
8.9317006e-09
1.4810823e-10
8.8910096e-09
1.4214348e-10
8.8519379e-09
1.3648959e-10
8.8144047e-09
1.3111733e-10
8.7783351e-09
1.260067e-10
8.74365e-09
1.2117082e-10
8.7102713e-09
1.1660795e-10
8.6781322e-09
1.122774e-10
8.6471585e-09
1.082046e-10
8.6172589e-09
1.0445103e-10
8.588343e-09