/*--------------------------------*- C++ -*----------------------------------*\
| =========                 |                                                 |
| \\      /  F ield         | OpenFOAM: The Open Source CFD Toolbox           |
|  \\    /   O peration     | Version:  2206                                  |
|   \\  /    A nd           | Website:  www.openfoam.com                      |
|    \\/     M anipulation  |                                                 |
\*---------------------------------------------------------------------------*/
FoamFile
{
    version     2.0;
    format      ascii;
    arch        "LSB;label=32;scalar=64";
    class       volVectorField;
    location    "300";
    object      U;
}
// * * * * * * * * * * * * * * * * * * * * * * * * * * * * * * * * * * * * * //

dimensions      [0 1 -1 0 0 0 0];

internalField   nonuniform List<vector> 
13056
(
(1 1.7968233e-10 5.0231619e-25)
(0.99998644 4.7080669e-10 0)
(0.99996706 6.5737455e-10 0)
(0.99994558 8.422211e-10 0)
(0.99992096 1.1002068e-09 0)
(0.9998925 1.4390606e-09 0)
(0.99985972 1.8780143e-09 0)
(0.99982195 2.452621e-09 0)
(0.99977833 3.2113662e-09 0)
(0.99972775 4.2186582e-09 0)
(0.99966879 5.5627687e-09 0)
(0.9995997 7.3703811e-09 0)
(0.99951809 9.820822e-09 0)
(0.99942089 1.3200701e-08 0)
(0.99930341 1.7888372e-08 0)
(0.99915995 2.4732903e-08 0)
(0.99897841 3.4338303e-08 0)
(0.99875052 5.0794092e-08 0)
(0.99842633 7.1521443e-08 0)
(0.99803144 1.2658178e-07 0)
(0.99724961 1.70415e-07 0)
(0.99652113 4.4244893e-07 0)
(0.99355249 1.2079484e-07 -5.3678594e-21)
(0.99548226 0.00012399713 8.946675e-18)
(0.0031612653 0.00012442192 0)
(0.0012378263 7.5117974e-08 -1.2520786e-20)
(0.00088014187 4.8473942e-08 4.1434859e-18)
(0.00072256545 6.1439909e-09 0)
(0.00063163981 3.7578031e-09 0)
(0.00056934773 2.6394506e-09 0)
(0.00052305712 1.9958751e-09 0)
(0.00048650816 1.583697e-09 0)
(0.00045669933 1.2934753e-09 0)
(0.00043178068 1.0809488e-09 0)
(0.00041050901 9.1995018e-10 0)
(0.00039206526 7.9374712e-10 0)
(0.00037587714 6.9235643e-10 0)
(0.0003615259 6.0930953e-10 0)
(0.0003486992 5.4037307e-10 0)
(0.00033714318 4.8223766e-10 -7.7071521e-25)
(0.00032667913 4.3263268e-10 0)
(0.00031714719 3.9006602e-10 0)
(0.00030842459 3.5312403e-10 0)
(0.00030040884 3.208543e-10 0)
(0.00029301524 2.9247311e-10 0)
(0.00028617264 2.6737396e-10 0)
(0.00027982052 2.4506982e-10 0)
(0.0002739071 2.251594e-10 0)
(0.00026838788 2.073049e-10 0)
(0.00026322464 1.9122745e-10 0)
(0.00025838406 1.7670465e-10 0)
(0.00025383677 1.6354611e-10 0)
(0.00024955703 1.5159991e-10 0)
(0.00024552146 1.4068401e-10 -2.1921056e-25)
(0.00024171196 4.9340471e-10 4.2200206e-20)
(0.00023810832 1.2159989e-10 0)
(0.00023469586 1.1321206e-10 0)
(0.00023146001 1.0549916e-10 0)
(0.00022838791 9.8388079e-11 0)
(0.00022546799 9.1818984e-11 0)
(0.00022268982 8.5740634e-11 0)
(0.00022004389 8.0107145e-11 0)
(0.00021752164 7.487419e-11 0)
(0.00021511547 7.0005375e-11 0)
(0.0002128183 6.5472875e-11 0)
(0.00021062359 6.1248449e-11 0)
(0.00020852542 5.730514e-11 0)
(0.00020651839 5.3619845e-11 0)
(0.00020459751 5.0172767e-11 0)
(0.00020275821 4.6946881e-11 0)
(0.0002009962 4.3923533e-11 0)
(0.0001993077 4.1084906e-11 0)
(0.00019768926 3.8419749e-11 0)
(0.00019613751 3.5918586e-11 0)
(0.00019464929 3.3569664e-11 0)
(0.00019322173 3.136245e-11 0)
(0.00019185213 2.9287754e-11 0)
(0.000190538 2.7337761e-11 0)
(0.0001892769 2.5505858e-11 0)
(0.00018806655 2.3781883e-11 0)
(0.00018690509 2.2158048e-11 0)
(0.0001857906 2.0632838e-11 0)
(0.00018472106 1.9202064e-11 0)
(0.00018369459 1.7859578e-11 0)
(0.00018270946 1.6597639e-11 0)
(0.00018176439 1.5416864e-11 0)
(0.00018085637 1.4320272e-11 0)
(0.00017998502 1.3282867e-11 0)
(0.00017914893 1.2307523e-11 0)
(0.00017834626 1.1407072e-11 0)
(0.0001775753 1.0567908e-11 0)
(0.00017683452 9.7870316e-12 0)
(0.00017612244 9.0627394e-12 0)
(0.00017543738 8.3915169e-12 0)
(0.00017477789 7.7676176e-12 0)
(0.00017414277 7.1910756e-12 0)
(0.00017353024 6.6630515e-12 0)
(0.00017293841 6.1798643e-12 0)
(0.00017236556 5.7384189e-12 0)
(0.00017180986 5.3333221e-12 0)
(0.00017126992 4.959855e-12 0)
(0.00017074437 4.6194069e-12 0)
(0.00017023119 4.3125602e-12 0)
(0.00016972821 4.0366072e-12 0)
(0.00016923331 3.7853983e-12 0)
(0.00016874502 3.5542301e-12 0)
(0.00016826187 3.3442182e-12 0)
(0.00016778177 3.155959e-12 0)
(0.00016730232 2.9857059e-12 0)
(0.00016682162 2.8282852e-12 0)
(0.00016633827 2.6848989e-12 0)
(0.00016584955 2.5558568e-12 0)
(0.00016535332 2.434841e-12 0)
(0.00016485951 2.3251467e-12 0)
(0.00016438155 2.2350189e-12 0)
(0.00016392112 2.1598707e-12 0)
(0.0001634761 2.0896763e-12 0)
(0.00016304579 2.0233102e-12 0)
(0.00016262887 1.9648392e-12 0)
(0.00016222342 1.9144453e-12 0)
(0.00016182793 1.868435e-12 0)
(0.00016144175 1.8250634e-12 0)
(0.00016106433 1.7860406e-12 0)
(0.00016069457 1.7529137e-12 0)
(0.00016033118 1.725447e-12 0)
(0.0001599731 1.700703e-12 0)
(0.00015962006 1.6790665e-12 0)
(0.00015927098 1.6632305e-12 0)
(0.00015892474 1.660528e-12 0)
(0.00015857701 1.6607967e-12 0)
(0.00015823097 1.7166513e-12 0)
(0.00015785993 1.7169061e-12 0)
(0.00015751429 2.0143682e-12 0)
(0.00015701813 7.7907294e-12 0)
(0.00015664526 2.1649476e-12 4.0148755e-24)
(0.00015609425 5.0255084e-12 0)
(1 5.4479905e-10 0)
(0.99998629 1.4287524e-09 0)
(0.99996669 1.995269e-09 0)
(0.99994496 2.5563697e-09 0)
(0.99992006 3.3393959e-09 0)
(0.99989127 4.3677714e-09 0)
(0.9998581 5.6997905e-09 0)
(0.99981991 7.4432911e-09 0)
(0.9997758 9.7453251e-09 0)
(0.99972464 1.2801201e-08 0)
(0.99966504 1.6878561e-08 0)
(0.99959519 2.2361488e-08 0)
(0.99951271 2.9793616e-08 0)
(0.99941446 4.0043787e-08 0)
(0.99929575 5.42587e-08 0)
(0.99915082 7.5012087e-08 0)
(0.99896743 1.0413306e-07 0)
(0.99873727 1.5401774e-07 0)
(0.99840993 2.1683888e-07 0)
(0.9980113 3.8370446e-07 0)
(0.99722227 5.1654581e-07 0)
(0.99648713 1.3409072e-06 0)
(0.99349234 3.6312366e-07 1.9927771e-20)
(0.99543437 0.00037266922 -7.8410799e-21)
(0.0094947101 0.0003744414 0)
(0.0037317003 1.2273659e-06 0)
(0.0026535299 2.730588e-07 3.6401069e-22)
(0.0021784982 1.286173e-07 0)
(0.0019043495 7.8585673e-08 0)
(0.0017165332 5.517927e-08 0)
(0.0015769618 4.1701904e-08 0)
(0.0014667649 3.3084032e-08 0)
(0.0013768899 2.7016902e-08 0)
(0.0013017592 2.2572181e-08 0)
(0.0012376247 1.9207175e-08 0)
(0.0011820166 1.6570996e-08 0)
(0.0011332095 1.4453909e-08 0)
(0.0010899407 1.2719695e-08 0)
(0.0010512684 1.1281212e-08 -9.4836576e-25)
(0.0010164275 1.0069051e-08 -8.8694762e-25)
(0.00098487871 9.0340698e-09 0)
(0.00095614035 8.1462488e-09 0)
(0.00092984214 7.3759793e-09 0)
(0.00090567512 6.7032193e-09 0)
(0.0008833839 6.1116124e-09 0)
(0.00086275393 5.5884699e-09 0)
(0.00084360277 5.1236186e-09 0)
(0.0008257743 4.7086774e-09 0)
(0.00080913432 4.3365959e-09 0)
(0.00079356762 4.0015574e-09 0)
(0.00077897375 3.6989173e-09 0)
(0.00076526412 3.424705e-09 0)
(0.00075236116 3.1757085e-09 0)
(0.00074019441 2.948273e-09 0)
(0.00072870916 2.7805397e-09 0)
(0.00071784465 2.5504971e-09 0)
(0.00070755652 2.3756792e-09 0)
(0.00069780089 2.2148997e-09 0)
(0.00068853894 2.0666528e-09 0)
(0.00067973581 1.929691e-09 0)
(0.00067136003 1.8029464e-09 0)
(0.00066338298 1.68546e-09 0)
(0.00065577884 1.5763114e-09 0)
(0.00064852465 1.4747437e-09 0)
(0.00064159913 1.3801732e-09 0)
(0.0006349825 1.2920107e-09 0)
(0.00062865694 1.2096943e-09 0)
(0.00062260615 1.1327489e-09 0)
(0.00061681514 1.0607561e-09 0)
(0.00061127006 9.9334893e-10 0)
(0.00060595804 9.3014971e-10 0)
(0.00060086764 8.7079512e-10 0)
(0.00059598847 8.1504195e-10 0)
(0.00059131035 7.6268994e-10 0)
(0.00058682379 7.1349494e-10 0)
(0.00058252012 6.6723503e-10 0)
(0.00057839121 6.2372114e-10 0)
(0.00057442952 5.8279112e-10 0)
(0.00057062773 5.4430341e-10 0)
(0.00056697896 5.0805204e-10 0)
(0.00056347756 4.7387467e-10 0)
(0.00056011781 4.4173184e-10 0)
(0.00055689354 4.1153991e-10 0)
(0.00055379916 3.8316783e-10 0)
(0.00055082938 3.5643671e-10 0)
(0.0005479804 3.3151118e-10 0)
(0.00054524311 3.0815692e-10 -5.5123348e-26)
(0.00054261639 2.8603878e-10 -5.4830969e-26)
(0.00054009595 2.6536037e-10 0)
(0.00053767628 2.4609554e-10 0)
(0.00053535218 2.2813731e-10 0)
(0.00053311908 2.1138813e-10 0)
(0.00053097249 1.9581206e-10 0)
(0.00052890739 1.8134838e-10 0)
(0.00052691934 1.6787821e-10 0)
(0.00052500475 1.5538751e-10 0)
(0.00052315827 1.439084e-10 0)
(0.00052137417 1.3337159e-10 0)
(0.00051964729 1.2370927e-10 0)
(0.00051797208 1.1482947e-10 0)
(0.0005163444 1.0663333e-10 0)
(0.00051476006 9.9134776e-11 0)
(0.00051321301 9.2354863e-11 0)
(0.00051169668 8.6242138e-11 0)
(0.00051020472 8.0680693e-11 0)
(0.00050873264 7.5569191e-11 0)
(0.00050727607 7.0911833e-11 0)
(0.00050582866 6.6729693e-11 0)
(0.00050438322 6.2958475e-11 0)
(0.00050293395 5.9486544e-11 0)
(0.00050147671 5.6321607e-11 0)
(0.00050000325 5.3465928e-11 0)
(0.00049850714 5.0805183e-11 0)
(0.00049701831 4.8410665e-11 0)
(0.00049557725 4.6442528e-11 0)
(0.00049418903 4.4810382e-11 0)
(0.00049284725 4.3318417e-11 0)
(0.00049154985 4.1926875e-11 0)
(0.00049029281 4.0695968e-11 0)
(0.00048907036 3.963516e-11 0)
(0.00048787792 3.868132e-11 0)
(0.00048671359 3.7787339e-11 0)
(0.00048557563 3.6974885e-11 0)
(0.00048446079 3.6279998e-11 0)
(0.00048336515 3.5702218e-11 0)
(0.0004822855 3.5189787e-11 0)
(0.00048122109 3.4743934e-11 0)
(0.00048016861 3.4407622e-11 0)
(0.00047912468 3.4340252e-11 0)
(0.00047807629 3.4330477e-11 0)
(0.00047703296 3.5482377e-11 0)
(0.00047591435 3.5466412e-11 0)
(0.00047487222 4.1644841e-11 0)
(0.00047337666 4.3658979e-11 0)
(0.00047225242 4.5539878e-11 -6.2140133e-24)
(0.00047059107 2.7937865e-11 1.3489256e-24)
(1 9.2232521e-10 0)
(0.99998613 2.4190817e-09 0)
(0.99996627 3.3788353e-09 0)
(0.99994427 4.3291038e-09 0)
(0.99991905 5.6550732e-09 0)
(0.99988989 7.3963647e-09 0)
(0.99985631 9.6515738e-09 0)
(0.99981763 1.2603198e-08 0)
(0.99977297 1.6500084e-08 0)
(0.99972119 2.1672683e-08 0)
(0.99966086 2.8573785e-08 0)
(0.99959017 3.7853135e-08 0)
(0.9995067 5.04303e-08 0)
(0.99940731 6.7774908e-08 0)
(0.99928723 9.182616e-08 0)
(0.99914065 1.2693718e-07 0)
(0.99895521 1.7619888e-07 0)
(0.99872254 2.6057732e-07 0)
(0.99839169 3.6681787e-07 0)
(0.99798891 6.4899252e-07 0)
(0.99719191 8.7363411e-07 0)
(0.99644937 2.267536e-06 0)
(0.99342567 6.1617726e-07 -1.0557803e-20)
(0.99538117 0.00062511836 6.8143402e-55)
(0.015932057 0.00062928038 -6.8115233e-55)
(0.0062809392 3.442158e-06 0)
(0.0044664374 7.8003238e-07 -1.9496744e-22)
(0.0036669183 3.7341468e-07 0)
(0.0032054418 2.281766e-07 0)
(0.0028892885 1.602198e-07 0)
(0.0026543446 1.2108757e-07 0)
(0.0024688505 9.6064245e-08 0)
(0.0023175645 7.8447907e-08 0)
(0.0021910975 6.5542272e-08 0)
(0.0020831407 5.5771433e-08 0)
(0.0019895368 4.8116768e-08 0)
(0.001907381 4.1969336e-08 0)
(0.0018345479 3.6933745e-08 0)
(0.0017694519 3.2756682e-08 0)
(0.0017108058 2.9236731e-08 0)
(0.001657701 2.6231439e-08 0)
(0.001609327 2.3653378e-08 0)
(0.0015650605 2.1416654e-08 0)
(0.0015243815 1.9463076e-08 0)
(0.0014868599 1.7745148e-08 0)
(0.0014521347 1.6226026e-08 0)
(0.0014198988 1.4876171e-08 0)
(0.0013898894 1.3671247e-08 0)
(0.0013618805 1.259078e-08 0)
(0.0013356782 1.1617882e-08 0)
(0.0013111135 1.0739064e-08 0)
(0.0012880372 9.9427972e-09 0)
(0.0012663188 9.219755e-09 0)
(0.0012458396 8.5593241e-09 -3.7442666e-25)
(0.0012265076 7.9436674e-09 0)
(0.0012082205 7.4042536e-09 0)
(0.0011909035 6.8966187e-09 0)
(0.001174483 6.4297488e-09 0)
(0.0011588934 5.9992727e-09 0)
(0.0011440761 5.6015677e-09 0)
(0.0011299782 5.2335325e-09 0)
(0.0011165515 4.8923831e-09 0)
(0.0011037525 4.5754463e-09 0)
(0.0010915426 4.2805245e-09 0)
(0.0010798859 4.0059223e-09 0)
(0.0010687491 3.7499291e-09 0)
(0.0010581024 3.5109132e-09 0)
(0.0010479181 3.2874946e-09 0)
(0.0010381711 3.0784591e-09 0)
(0.0010288381 2.8827417e-09 0)
(0.0010198975 2.6992453e-09 0)
(0.0010113298 2.5269139e-09 0)
(0.0010031178 2.365042e-09 0)
(0.00099524414 2.2130481e-09 0)
(0.00098769294 2.0702235e-09 0)
(0.00098044962 1.9359241e-09 0)
(0.00097350047 1.8096004e-09 0)
(0.00096683279 1.6907817e-09 0)
(0.00096043428 1.579057e-09 0)
(0.00095429334 1.473828e-09 0)
(0.00094840046 1.3746235e-09 0)
(0.00094274601 1.281329e-09 0)
(0.00093731961 1.1937015e-09 0)
(0.00093211185 1.1113609e-09 0)
(0.00092711382 1.0337902e-09 0)
(0.0009223191 9.6144875e-10 0)
(0.0009177124 8.9369055e-10 0)
(0.0009132918 8.2952286e-10 0)
(0.00090905008 7.6951925e-10 0)
(0.00090497796 7.1363663e-10 0)
(0.0009010667 6.6154473e-10 0)
(0.0008973086 6.129644e-10 0)
(0.0008936961 5.6779119e-10 0)
(0.00089022072 5.2584738e-10 0)
(0.00088687504 4.8678802e-10 0)
(0.00088365296 4.5057373e-10 0)
(0.0008805455 4.1729642e-10 0)
(0.000877543 3.8675447e-10 0)
(0.00087463679 3.5875113e-10 0)
(0.00087181751 3.3301721e-10 0)
(0.0008690782 3.0926599e-10 0)
(0.00086641179 2.8753899e-10 0)
(0.00086380813 2.6789649e-10 0)
(0.00086125611 2.5018841e-10 0)
(0.00085874509 2.3407705e-10 0)
(0.00085626748 2.1926868e-10 0)
(0.00085381594 2.0577728e-10 0)
(0.00085137977 1.9366309e-10 0)
(0.00084894687 1.8273791e-10 0)
(0.00084650751 1.726783e-10 0)
(0.00084405467 1.6350845e-10 0)
(0.00084157449 1.5523508e-10 0)
(0.00083905616 1.4752503e-10 0)
(0.00083655004 1.4058458e-10 0)
(0.00083412429 1.3487948e-10 0)
(0.00083178747 1.3014716e-10 0)
(0.00082952881 1.2581792e-10 0)
(0.00082734484 1.2177806e-10 0)
(0.00082522882 1.1820493e-10 0)
(0.00082317102 1.1512544e-10 0)
(0.00082116373 1.1235483e-10 0)
(0.00081920377 1.0975764e-10 0)
(0.00081728819 1.0739817e-10 0)
(0.00081541154 1.0538066e-10 0)
(0.0008135672 1.0370317e-10 0)
(0.00081174979 1.0221453e-10 0)
(0.00080995802 1.0091907e-10 0)
(0.00080818635 9.9942743e-11 0)
(0.00080642908 9.9747829e-11 0)
(0.0008046643 9.9719993e-11 0)
(0.00080290805 1.0306539e-10 0)
(0.00080102516 1.0301614e-10 0)
(0.0007992709 1.2096394e-10 0)
(0.00079675389 1.2476547e-10 0)
(0.00079486137 1.324585e-10 0)
(0.00079206469 7.9611542e-11 0)
(1 1.3187385e-09 1.0766645e-24)
(0.99998595 3.4596148e-09 0)
(0.99996581 4.8330985e-09 0)
(0.9999435 6.1925074e-09 0)
(0.99991792 8.0891368e-09 0)
(0.99988836 1.0579593e-08 0)
(0.9998543 1.3804713e-08 0)
(0.99981508 1.8025355e-08 0)
(0.99976981 2.3597187e-08 0)
(0.99971732 3.0992432e-08 0)
(0.99965618 4.0858057e-08 0)
(0.99958455 5.4122388e-08 0)
(0.99949999 7.2099124e-08 0)
(0.99939931 9.6887727e-08 0)
(0.9992777 1.3125782e-07 0)
(0.99912927 1.8142768e-07 0)
(0.99894155 2.5180808e-07 0)
(0.99870607 3.7234779e-07 0)
(0.99837131 5.2408742e-07 0)
(0.9979639 9.270747e-07 0)
(0.99715802 1.2478969e-06 0)
(0.99640724 3.2383291e-06 0)
(0.99335137 8.8279163e-07 0)
(0.99532177 0.00088505288 -3.5551282e-55)
(0.022566115 0.00089282542 3.5536629e-55)
(0.0089234973 7.1007825e-06 0)
(0.0063458636 1.608159e-06 0)
(0.0052099922 7.6915343e-07 0)
(0.0045542876 4.7001774e-07 0)
(0.0041050689 3.3003659e-07 0)
(0.0037712365 2.4942653e-07 0)
(0.0035076715 1.9787998e-07 0)
(0.0032927125 1.615925e-07 0)
(0.0031130182 1.3500824e-07 0)
(0.0029596251 1.1488125e-07 0)
(0.0028266262 9.9113463e-08 0)
(0.0027098939 8.6450466e-08 0)
(0.0026064082 7.607783e-08 0)
(0.0025139157 6.7473539e-08 0)
(0.0024305885 6.0222861e-08 -9.9359746e-25)
(0.0023551344 5.403244e-08 0)
(0.0022864024 4.8721971e-08 0)
(0.0022235067 4.4114634e-08 0)
(0.0021657083 4.0090543e-08 0)
(0.0021123964 3.6551866e-08 0)
(0.0020630578 3.3422704e-08 0)
(0.0020172562 3.0642209e-08 0)
(0.0019746181 2.816025e-08 0)
(0.0019348225 2.5934658e-08 0)
(0.001897594 2.3930644e-08 0)
(0.0018626923 2.2120421e-08 0)
(0.0018299054 2.0480239e-08 0)
(0.0017990479 1.8990884e-08 0)
(0.0017699513 1.7630515e-08 -4.0646572e-25)
(0.0017424844 1.6378853e-08 0)
(0.0017165024 1.5251252e-08 0)
(0.0016918989 1.4205615e-08 0)
(0.001668569 1.3243941e-08 0)
(0.0016464199 1.2357233e-08 0)
(0.0016253682 1.1538028e-08 0)
(0.0016053386 1.0779938e-08 0)
(0.0015862627 1.0077228e-08 0)
(0.0015680786 9.424393e-09 0)
(0.0015507316 8.8169055e-09 0)
(0.0015341707 8.2512727e-09 0)
(0.0015183486 7.7239712e-09 0)
(0.0015032227 7.2316406e-09 0)
(0.001488754 6.7714379e-09 0)
(0.0014749067 6.340862e-09 0)
(0.0014616475 5.9377195e-09 0)
(0.0014489458 5.5597503e-09 0)
(0.0014367742 5.20478e-09 0)
(0.0014251078 4.8713545e-09 0)
(0.0014139223 4.5582762e-09 0)
(0.0014031949 4.2640854e-09 0)
(0.001392905 3.9874552e-09 0)
(0.0013830331 3.727254e-09 0)
(0.0013735611 3.4825122e-09 0)
(0.0013644716 3.2523829e-09 0)
(0.0013557481 3.0356342e-09 0)
(0.001347377 2.8312956e-09 0)
(0.0013393447 2.6391306e-09 0)
(0.0013316364 2.4586388e-09 0)
(0.0013242388 2.2890376e-09 0)
(0.0013171391 2.129262e-09 0)
(0.0013103283 1.9802572e-09 0)
(0.0013037847 1.8406931e-09 3.1769605e-26)
(0.0012975054 1.7085267e-09 3.1603283e-26)
(0.0012914803 1.5849375e-09 0)
(0.0012856961 1.4698363e-09 0)
(0.0012801405 1.3625435e-09 0)
(0.0012748024 1.2624841e-09 0)
(0.0012696711 1.1694428e-09 0)
(0.0012647347 1.0830534e-09 0)
(0.0012599824 1.0026059e-09 0)
(0.0012554057 9.2801881e-10 0)
(0.0012509919 8.5948098e-10 0)
(0.001246727 7.9657737e-10 0)
(0.0012425989 7.389026e-10 0)
(0.0012385943 6.8590222e-10 0)
(0.0012347032 6.3698584e-10 0)
(0.0012309155 5.9223861e-10 0)
(0.001227217 5.517846e-10 0)
(0.0012235917 5.1531457e-10 0)
(0.0012200246 4.8213311e-10 0)
(0.0012165049 4.5163534e-10 0)
(0.0012130221 4.2384986e-10 0)
(0.0012095611 3.9890064e-10 0)
(0.0012061047 3.7640001e-10 0)
(0.0012026389 3.5568208e-10 0)
(0.001199154 3.3679659e-10 0)
(0.0011956301 3.1975725e-10 0)
(0.001192052 3.0387834e-10 0)
(0.0011884911 2.8958424e-10 0)
(0.0011850443 2.7783372e-10 0)
(0.0011817238 2.6808642e-10 0)
(0.0011785144 2.5916959e-10 0)
(0.0011754111 2.5084807e-10 0)
(0.0011724044 2.4348805e-10 0)
(0.0011694803 2.371447e-10 0)
(0.001166628 2.3143746e-10 0)
(0.001163843 2.2608751e-10 0)
(0.0011611211 2.2122723e-10 0)
(0.0011584544 2.1707134e-10 0)
(0.0011558337 2.1361569e-10 0)
(0.0011532512 2.1054899e-10 0)
(0.0011507052 2.0788021e-10 0)
(0.0011481878 2.0586867e-10 0)
(0.0011456908 2.0546643e-10 0)
(0.0011431831 2.0540809e-10 0)
(0.0011406876 2.1229657e-10 0)
(0.0011380123 2.1219237e-10 0)
(0.0011355195 2.4915608e-10 0)
(0.0011319437 2.5720549e-10 0)
(0.0011292544 2.7302525e-10 0)
(0.0011252804 1.6388446e-10 0)
(1 1.7408372e-09 0)
(0.99998574 4.5682673e-09 0)
(0.9999653 6.3832271e-09 0)
(0.99994263 8.1788505e-09 0)
(0.99991665 1.0683725e-08 0)
(0.99988662 1.3972524e-08 0)
(0.99985204 1.8230974e-08 0)
(0.99981222 2.3803326e-08 0)
(0.99976625 3.1158913e-08 0)
(0.99971297 4.0920751e-08 0)
(0.99965092 5.3942291e-08 0)
(0.99957823 7.1448055e-08 0)
(0.99949244 9.5170689e-08 0)
(0.99939031 1.2787911e-07 0)
(0.99926698 1.7322514e-07 0)
(0.9991165 2.3940921e-07 0)
(0.99892621 3.3224159e-07 0)
(0.99868758 4.91217e-07 0)
(0.99834843 6.9129531e-07 0)
(0.99793584 1.2226119e-06 0)
(0.99712001 1.6455962e-06 0)
(0.99636002 4.269473e-06 0)
(0.99326821 1.1676478e-06 0)
(0.99525514 0.001156151 0)
(0.029490774 0.0011688354 0)
(0.011698708 1.2355768e-05 0)
(0.0083197973 2.7902644e-06 0)
(0.0068307016 1.3339662e-06 0)
(0.0059709692 8.1521081e-07 0)
(0.0053819699 5.7242737e-07 0)
(0.0049442557 4.3261287e-07 0)
(0.0045986801 3.4320677e-07 0)
(0.0043168347 2.80269e-07 0)
(0.0040812267 2.3416039e-07 0)
(0.0038801047 1.9925125e-07 0)
(0.003705723 1.7190303e-07 0)
(0.0035526698 1.4993993e-07 0)
(0.0034169852 1.3194949e-07 0)
(0.0032957141 1.1702585e-07 0)
(0.0031864613 1.0445002e-07 0)
(0.0030875309 9.3713377e-08 0)
(0.0029974145 8.4502762e-08 0)
(0.0029149504 7.6511716e-08 0)
(0.0028391699 6.9532272e-08 0)
(0.0027692718 6.3394745e-08 0)
(0.0027045835 5.7967492e-08 0)
(0.0026445327 5.3144973e-08 0)
(0.0025886298 4.8840242e-08 0)
(0.0025364542 4.4980161e-08 0)
(0.0024876442 4.1504391e-08 0)
(0.0024418851 3.8364733e-08 0)
(0.002398899 3.5519997e-08 0)
(0.0023584425 3.2936847e-08 0)
(0.002320295 3.0577444e-08 0)
(0.0022842843 2.8421154e-08 3.6188185e-25)
(0.0022502206 2.6450835e-08 0)
(0.0022179643 2.4637294e-08 0)
(0.0021873779 2.2969371e-08 0)
(0.0021583397 2.1431469e-08 0)
(0.0021307404 2.0010644e-08 0)
(0.0021044814 1.8695818e-08 0)
(0.0020794728 1.7477044e-08 0)
(0.0020556336 1.6344773e-08 0)
(0.0020328919 1.5291154e-08 0)
(0.002011181 1.4310128e-08 0)
(0.0019904388 1.3395584e-08 0)
(0.0019706094 1.2541694e-08 0)
(0.0019516418 1.1743527e-08 0)
(0.0019334889 1.0996745e-08 0)
(0.0019161072 1.0297545e-08 0)
(0.0018994565 9.6420064e-09 0)
(0.0018835008 9.026358e-09 0)
(0.0018682076 8.4480777e-09 0)
(0.0018535449 7.9050877e-09 0)
(0.0018394829 7.3948571e-09 0)
(0.0018259946 6.9150848e-09 0)
(0.0018130543 6.4638077e-09 0)
(0.0018006384 6.0393442e-09 0)
(0.001788724 5.6402254e-09 0)
(0.0017772894 5.2643152e-09 0)
(0.001766317 4.9099303e-09 0)
(0.0017557887 4.5766601e-09 0)
(0.0017456853 4.2636363e-09 0)
(0.0017359892 3.9695024e-09 0)
(0.0017266838 3.6924126e-09 0)
(0.001717757 3.4339981e-09 0)
(0.0017091806 3.191963e-09 0)
(0.0017009506 2.962762e-09 0)
(0.0016930539 2.7484327e-09 0)
(0.0016854731 2.5488283e-09 0)
(0.0016781918 2.3627659e-09 0)
(0.0016711957 2.1892495e-09 0)
(0.0016644707 2.0279055e-09 0)
(0.001658001 1.8780984e-09 0)
(0.0016517727 1.738597e-09 0)
(0.0016457746 1.6092602e-09 0)
(0.0016399897 1.4904146e-09 0)
(0.0016344002 1.3813404e-09 0)
(0.0016289898 1.2813345e-09 0)
(0.0016237411 1.1894347e-09 0)
(0.0016186412 1.1046174e-09 0)
(0.0016136767 1.0270302e-09 0)
(0.001608829 9.5688768e-10 0)
(0.0016040771 8.9365333e-10 0)
(0.0015994013 8.3612098e-10 0)
(0.0015947876 7.8324186e-10 0)
(0.0015902221 7.3506585e-10 0)
(0.001585685 6.9180745e-10 0)
(0.0015811537 6.5279396e-10 0)
(0.0015766101 6.1687107e-10 0)
(0.0015720412 5.841255e-10 0)
(0.0015674211 5.5458089e-10 0)
(0.0015627297 5.2704826e-10 0)
(0.0015580607 5.0226277e-10 0)
(0.0015535413 4.818867e-10 0)
(0.0015491875 4.6498349e-10 0)
(0.0015449791 4.4951931e-10 0)
(0.0015409099 4.3508696e-10 0)
(0.0015369673 4.2232205e-10 0)
(0.0015331331 4.1132013e-10 0)
(0.001529393 4.0142085e-10 0)
(0.0015257411 3.9214124e-10 0)
(0.0015221719 3.8371127e-10 0)
(0.0015186752 3.7650309e-10 0)
(0.0015152388 3.705092e-10 0)
(0.0015118525 3.6518961e-10 0)
(0.001508514 3.6056011e-10 0)
(0.001505213 3.5707069e-10 0)
(0.0015019387 3.5637196e-10 0)
(0.0014986506 3.562697e-10 0)
(0.0014953783 3.6821234e-10 0)
(0.0014918704 3.6802984e-10 0)
(0.0014886017 4.3212356e-10 0)
(0.0014839138 4.462759e-10 0)
(0.0014803873 4.7373474e-10 -8.0050335e-24)
(0.0014751762 2.8413e-10 1.737732e-24)
(1 2.1962891e-09 0)
(0.99998551 5.765312e-09 0)
(0.99996471 8.0577543e-09 0)
(0.99994166 1.0324726e-08 0)
(0.99991522 1.3486618e-08 0)
(0.99988467 1.7637578e-08 0)
(0.99984949 2.3011666e-08 0)
(0.99980899 3.0043055e-08 0)
(0.99976224 3.9323628e-08 0)
(0.99970806 5.1638913e-08 0)
(0.99964498 6.8064822e-08 0)
(0.9995711 9.0144942e-08 0)
(0.99948392 1.200631e-07 0)
(0.99938017 1.6130912e-07 0)
(0.9992549 2.1848427e-07 0)
(0.99910209 3.0192308e-07 0)
(0.99890892 4.1893889e-07 0)
(0.99866673 6.1930367e-07 0)
(0.99832266 8.7140914e-07 0)
(0.99790423 1.5408178e-06 0)
(0.99707724 2.0737357e-06 0)
(0.99630688 5.3790127e-06 0)
(0.99317474 1.4762633e-06 0)
(0.99518013 0.0014421411 0)
(0.03680211 0.0014613197 0)
(0.014647865 1.9368114e-05 0)
(0.010417634 4.3931735e-06 0)
(0.0085531861 2.1003741e-06 0)
(0.0074765796 1.2836556e-06 0)
(0.0067389965 9.013674e-07 0)
(0.0061908549 6.8120884e-07 0)
(0.0057581032 5.4042318e-07 0)
(0.0054051588 4.4131959e-07 0)
(0.0051101153 3.6871527e-07 0)
(0.0048582581 3.1374559e-07 0)
(0.0046398876 2.7068184e-07 0)
(0.0044482263 2.3609782e-07 0)
(0.0042783155 2.0776959e-07 0)
(0.0041264537 1.8427003e-07 0)
(0.0039896435 1.6446747e-07 0)
(0.0038657591 1.4756143e-07 0)
(0.0037529123 1.3305801e-07 0)
(0.0036496485 1.2047503e-07 0)
(0.0035547544 1.0948497e-07 -7.4560047e-35)
(0.0034672268 9.9820626e-08 0)
(0.0033862234 9.127471e-08 0)
(0.0033110274 8.3681031e-08 0)
(0.0032410258 7.6902679e-08 0)
(0.0031756918 7.0824493e-08 0)
(0.0031145726 6.5351459e-08 0)
(0.0030572739 6.0407679e-08 0)
(0.0030034478 5.5928294e-08 0)
(0.0029527895 5.1860794e-08 0)
(0.0029050228 4.814566e-08 0)
(0.0028599318 4.4752327e-08 4.0763901e-25)
(0.0028172792 4.1647795e-08 0)
(0.00277689 3.8792179e-08 0)
(0.002738592 3.6165842e-08 0)
(0.0027022328 3.3744239e-08 0)
(0.0026676756 3.150699e-08 0)
(0.0026347967 2.943665e-08 0)
(0.0026034837 2.7517556e-08 0)
(0.0025736353 2.5734674e-08 0)
(0.0025451613 2.4075641e-08 0)
(0.0025179781 2.2530914e-08 0)
(0.0024920081 2.1090872e-08 0)
(0.0024671812 1.9746339e-08 0)
(0.0024434335 1.848955e-08 0)
(0.0024207061 1.7313674e-08 0)
(0.0023989446 1.6212723e-08 0)
(0.0023780985 1.5180525e-08 0)
(0.0023581227 1.421114e-08 0)
(0.0023389766 1.3300598e-08 0)
(0.0023206201 1.2445626e-08 0)
(0.002303016 1.164224e-08 0)
(0.0022861301 1.0886816e-08 0)
(0.0022699307 1.0176263e-08 0)
(0.0022543879 9.507934e-09 0)
(0.0022394731 8.8795149e-09 0)
(0.0022251592 8.2876433e-09 0)
(0.0022114241 7.7296685e-09 0)
(0.0021982452 7.2049432e-09 0)
(0.0021855983 6.7121001e-09 0)
(0.0021734614 6.2490041e-09 0)
(0.0021618137 5.8127515e-09 0)
(0.0021506401 5.4058925e-09 0)
(0.0021399053 5.0248405e-09 0)
(0.0021296042 4.6640032e-09 0)
(0.0021197204 4.32657e-09 0)
(0.002110232 4.0123338e-09 0)
(0.0021011186 3.7194191e-09 0)
(0.0020923623 3.4462603e-09 0)
(0.0020839453 3.192269e-09 0)
(0.0020758479 2.9564431e-09 0)
(0.0020680526 2.7368449e-09 0)
(0.0020605454 2.533253e-09 0)
(0.002053305 2.3461795e-09 0)
(0.0020463091 2.174491e-09 0)
(0.0020395373 2.0170805e-09 0)
(0.0020329678 1.8724312e-09 0)
(0.0020265842 1.7389318e-09 0)
(0.0020203702 1.6168152e-09 0)
(0.002014302 1.506418e-09 0)
(0.0020083537 1.4068949e-09 0)
(0.0020025004 1.316346e-09 0)
(0.0019967245 1.2331206e-09 0)
(0.0019910088 1.1572985e-09 0)
(0.0019853284 1.0892162e-09 0)
(0.0019796551 1.0278134e-09 0)
(0.0019739662 9.7127369e-10 0)
(0.0019682453 9.1973491e-10 0)
(0.0019624601 8.7323443e-10 0)
(0.0019565853 8.2989972e-10 0)
(0.0019507385 7.9088687e-10 0)
(0.0019450787 7.5881287e-10 0)
(0.0019396261 7.3220377e-10 0)
(0.0019343557 7.0785663e-10 0)
(0.0019292595 6.8513265e-10 0)
(0.0019243218 6.6503388e-10 0)
(0.0019195199 6.4771057e-10 0)
(0.0019148358 6.3212177e-10 0)
(0.0019102622 6.1750848e-10 0)
(0.0019057922 6.0423399e-10 0)
(0.001901413 5.9288371e-10 0)
(0.0018971091 5.8344523e-10 0)
(0.0018928681 5.7506764e-10 0)
(0.001888687 5.6777644e-10 0)
(0.0018845529 5.6228125e-10 0)
(0.0018804523 5.6117962e-10 0)
(0.0018763343 5.610177e-10 0)
(0.0018722361 5.798149e-10 0)
(0.001867843 5.7952744e-10 0)
(0.0018637492 6.8041958e-10 0)
(0.0018578794 7.0270379e-10 0)
(0.0018534626 7.4618358e-10 0)
(0.0018469359 4.4718495e-10 -9.9177411e-25)
(1 2.6937421e-09 0)
(0.99998525 7.0737124e-09 0)
(0.99996405 9.8890583e-09 0)
(0.99994055 1.2671668e-08 0)
(0.9999136 1.6552038e-08 0)
(0.99988246 2.1645576e-08 0)
(0.9998466 2.8239004e-08 0)
(0.99980533 3.6864638e-08 0)
(0.9997577 4.8248098e-08 0)
(0.99970251 6.3352166e-08 0)
(0.99963826 8.3495331e-08 0)
(0.99956303 1.1056902e-07 0)
(0.99947429 1.4724879e-07 0)
(0.99936869 1.978101e-07 0)
(0.99924124 2.6788826e-07 0)
(0.99908579 3.7014303e-07 0)
(0.99888936 5.1352088e-07 0)
(0.99864317 7.589909e-07 0)
(0.99829353 1.0677628e-06 0)
(0.99786852 1.8875399e-06 0)
(0.99702895 2.5401673e-06 0)
(0.99624691 6.5871269e-06 0)
(0.9930694 1.814903e-06 0)
(0.99509545 0.0017468546 0)
(0.044599437 0.001774445 0)
(0.017814838 2.860527e-05 0)
(0.012670612 6.5133487e-06 0)
(0.010403102 3.1143544e-06 0)
(0.0090935358 1.9034852e-06 0)
(0.0081963459 1.3366138e-06 0)
(0.0075295802 1.0101463e-06 0)
(0.0070031842 8.0137389e-07 0)
(0.0065738655 6.5441692e-07 0)
(0.0062149762 5.4675422e-07 0)
(0.0059086193 4.6524055e-07 0)
(0.0056429963 4.0138213e-07 0)
(0.0054098627 3.5009823e-07 0)
(0.0052031868 3.080914e-07 0)
(0.005018465 2.7324409e-07 0)
(0.0048520538 2.4387905e-07 0)
(0.0047013648 2.1880994e-07 0)
(0.0045641024 1.973031e-07 0)
(0.0044384969 1.7864414e-07 0)
(0.0043230724 1.6234727e-07 8.0428169e-35)
(0.0042166088 1.4801629e-07 0)
(0.0041180811 1.3534381e-07 0)
(0.0040266179 1.2408337e-07 0)
(0.0039414733 1.1403197e-07 0)
(0.0038620063 1.0501883e-07 0)
(0.0037876665 9.6903058e-08 0)
(0.0037179739 8.9572104e-08 0)
(0.0036525055 8.2929788e-08 0)
(0.0035908906 7.6898222e-08 0)
(0.003532793 7.1389244e-08 0)
(0.0034779502 6.6356513e-08 -2.3340421e-25)
(0.0034260737 6.1753782e-08 0)
(0.0033769503 5.7519338e-08 0)
(0.0033303709 5.362486e-08 0)
(0.0032861498 5.0033976e-08 0)
(0.0032441208 4.6716468e-08 0)
(0.0032041334 4.3646463e-08 0)
(0.0031660508 4.0800736e-08 0)
(0.0031297498 3.8156998e-08 0)
(0.0030951208 3.5696913e-08 0)
(0.0030620619 3.3406328e-08 0)
(0.0030304788 3.127098e-08 0)
(0.0030002864 2.9277261e-08 0)
(0.0029714067 2.7413654e-08 0)
(0.0029437682 2.5670034e-08 0)
(0.0029173046 2.4037522e-08 0)
(0.0028919546 2.2506964e-08 0)
(0.0028676635 2.1069553e-08 0)
(0.0028443815 1.97194e-08 0)
(0.0028220601 1.8451653e-08 0)
(0.0028006539 1.7260404e-08 0)
(0.0027801216 1.6140281e-08 0)
(0.0027604241 1.50867e-08 0)
(0.0027415255 1.4095734e-08 0)
(0.0027233908 1.3163953e-08 0)
(0.0027059871 1.2286371e-08 0)
(0.0026892874 1.1459058e-08 0)
(0.0026732642 1.0681053e-08 0)
(0.0026578881 9.9503287e-09 0)
(0.0026431324 9.26372e-09 0)
(0.0026289717 8.6169263e-09 0)
(0.0026153876 8.0136946e-09 0)
(0.0026023374 7.4487624e-09 0)
(0.0025898143 6.9138148e-09 -9.3577342e-26)
(0.0025777989 6.4135461e-09 0)
(0.0025662643 5.9476982e-09 0)
(0.0025551857 5.5134624e-09 0)
(0.0025445413 5.1085232e-09 0)
(0.0025343094 4.732008e-09 0)
(0.0025244661 4.3824281e-09 0)
(0.0025149901 4.0569115e-09 0)
(0.0025058642 3.7551315e-09 0)
(0.0024970626 3.4778442e-09 0)
(0.0024885581 3.2233683e-09 0)
(0.0024803259 2.9900628e-09 0)
(0.0024723394 2.775675e-09 0)
(0.0024645788 2.5778163e-09 0)
(0.0024570241 2.3968333e-09 0)
(0.0024496463 2.2332231e-09 0)
(0.0024424141 2.0857311e-09 0)
(0.0024352971 1.9515385e-09 0)
(0.0024282739 1.8281987e-09 0)
(0.0024213236 1.7158329e-09 0)
(0.0024144158 1.6149379e-09 0)
(0.0024075163 1.523939e-09 0)
(0.0024005975 1.4401447e-09 0)
(0.0023936395 1.3637623e-09 0)
(0.0023866029 1.2948476e-09 0)
(0.002379457 1.2306225e-09 0)
(0.0023723448 1.172799e-09 0)
(0.0023654599 1.1252575e-09 0)
(0.0023588269 1.0858133e-09 0)
(0.0023524153 1.0497162e-09 0)
(0.0023462156 1.0160216e-09 0)