/*--------------------------------*- C++ -*----------------------------------*\
| =========                 |                                                 |
| \\      /  F ield         | OpenFOAM: The Open Source CFD Toolbox           |
|  \\    /   O peration     | Version:  2206                                  |
|   \\  /    A nd           | Website:  www.openfoam.com                      |
|    \\/     M anipulation  |                                                 |
\*---------------------------------------------------------------------------*/
FoamFile
{
    version     2.0;
    format      ascii;
    arch        "LSB;label=32;scalar=64";
    class       volVectorField;
    location    "0";
    object      wallShearStress;
}
// * * * * * * * * * * * * * * * * * * * * * * * * * * * * * * * * * * * * * //

dimensions      [0 2 -2 0 0 0 0];

internalField   uniform (0 0 0);

boundaryField
{
    bottom
    {
        type            calculated;
        value           nonuniform List<vector> 
112
(
(-14.965176 -2.1583475e-12 0)
(-14.965176 -4.3166951e-12 0)
(-14.965176 1.726678e-11 0)
(-14.965176 8.6333901e-12 -0)
(-14.965176 0 0)
(-14.965176 1.726678e-11 0)
(-14.965176 -2.0147955e-27 0)
(-14.965176 -1.726678e-11 0)
(-14.965176 0 0)
(-14.965176 -3.4533561e-11 0)
(-14.965176 0 0)
(-14.965176 0 0)
(-14.965176 3.4533561e-11 0)
(-14.965176 0 0)
(-14.965176 0 0)
(-14.965176 1.3813424e-10 0)
(-14.965176 6.9067121e-11 0)
(-14.965176 0 0)
(-14.965176 -4.377165e-19 0)
(-14.965176 0 0)
(-14.965176 0 0)
(-14.965176 -6.9067121e-11 0)
(-14.965176 -1.3813424e-10 0)
(-14.965176 1.3813424e-10 0)
(-14.965176 0 0)
(-14.965176 2.0720136e-10 0)
(-14.965176 0 0)
(-14.965176 0 0)
(-14.965176 0 0)
(-14.965176 0 0)
(-14.965176 1.3813424e-10 0)
(-14.965176 -2.7626848e-10 0)
(-14.965176 -1.3813424e-10 0)
(-14.965176 0 0)
(-14.965176 0 0)
(-14.965176 0 0)
(-14.965176 0 0)
(-14.965176 -2.7626848e-10 0)
(-14.965176 -1.3813424e-10 0)
(-14.965176 0 0)
(-14.965176 -3.0513253e-19 0)
(-14.965176 1.3813424e-10 0)
(-14.965176 0 0)
(-14.965176 1.3813424e-10 0)
(-14.965176 2.7626848e-10 0)
(-14.965176 1.3813424e-10 0)
(-14.965176 0 0)
(-14.965176 2.7626848e-10 0)
(-14.965176 2.7626848e-10 0)
(-14.965176 2.7626848e-10 0)
(-14.965176 0 0)
(-14.965176 0 0)
(-14.965176 -2.7626848e-10 0)
(-14.965176 -2.7626848e-10 0)
(-14.965176 0 0)
(-14.965176 -2.7626848e-10 0)
(-14.965176 -2.7626848e-10 0)
(-14.965176 0 0)
(-14.965176 0 0)
(-14.965176 0 0)
(-14.965176 0 0)
(-14.965176 5.5253697e-10 0)
(-14.965176 -2.7626848e-10 0)
(-14.965176 5.5253697e-10 0)
(-14.965176 -2.7626848e-10 0)
(-14.965176 -3.2236728e-26 0)
(-14.965176 0 0)
(-14.965176 2.7626848e-10 0)
(-14.965176 5.5253697e-10 -0)
(-14.965176 0 0)
(-14.965176 -5.5253697e-10 0)
(-14.965176 -1.2358494e-19 0)
(-14.965176 0 0)
(-14.965176 -5.5253697e-10 0)
(-14.965176 5.5253697e-10 0)
(-14.965176 -5.5253697e-10 0)
(-14.965176 -5.5253697e-10 0)
(-14.965176 6.4473455e-26 0)
(-14.965176 0 0)
(-14.965176 0 0)
(-14.965176 5.5253697e-10 0)
(-14.965176 5.5253697e-10 0)
(-14.965176 5.5253697e-10 0)
(-14.965176 0 0)
(-14.965176 1.6576109e-09 0)
(-14.965176 -5.5253697e-10 0)
(-14.965176 0 0)
(-14.965176 0 0)
(-14.965176 -5.5253697e-10 0)
(-14.965176 -1.1050739e-09 0)
(-14.965176 0 0)
(-14.965176 -4.9179272e-20 0)
(-14.965176 1.1050739e-09 0)
(-14.965176 0 0)
(-14.965176 -2.2101479e-09 0)
(-14.965176 -1.1050739e-09 0)
(-14.965176 1.1050739e-09 0)
(-14.965176 -4.9179272e-20 0)
(-14.965176 -1.1050739e-09 0)
(-14.965176 2.2101479e-09 0)
(-14.965176 2.2101479e-09 0)
(-14.965176 0 0)
(-14.965176 0 0)
(-14.965176 0 0)
(-14.965176 0 0)
(-14.965176 1.1050739e-09 0)
(-14.965176 0 0)
(-14.965176 -1.1050739e-09 0)
(-14.965176 0 0)
(-14.965176 0 0)
(-14.965176 -2.2101479e-09 0)
(-14.965176 1.3552528e-25 0)
)
;
    }
    back
    {
        type            empty;
    }
    front
    {
        type            empty;
    }
    inlet
    {
        type            calculated;
        value           uniform (0 0 0);
    }
    outlet
    {
        type            calculated;
        value           uniform (0 0 0);
    }
    top
    {
        type            calculated;
        value           uniform (0 0 0);
    }
    slipsurface
    {
        type            calculated;
        value           uniform (0 0 0);
    }
}


// ************************************************************************* //
