0 	5.647935e-05 	1.8879242e-07 	299.16112 	0.015434263 	0.99815168 	0 	0
0.0021021021 	5.647982e-05 	1.8879601e-07 	299.15791 	0.015542409 	0.99809244 	0 	0
0.0042042042 	5.6480289e-05 	1.887996e-07 	299.15471 	0.015650556 	0.9980332 	0 	0
0.0063063063 	5.6480759e-05 	1.8880319e-07 	299.15151 	0.015758702 	0.99797397 	0 	0
0.0084084084 	5.6481229e-05 	1.8880678e-07 	299.1483 	0.015866849 	0.99791473 	0 	0
0.010510511 	5.6481867e-05 	1.8881036e-07 	299.14603 	0.01599144 	0.9978452 	0 	0
0.012612613 	5.6482611e-05 	1.8881391e-07 	299.14433 	0.016126246 	0.99776928 	0 	0
0.014714715 	5.6483355e-05 	1.8881747e-07 	299.14263 	0.016261051 	0.99769336 	0 	0
0.016816817 	5.6484099e-05 	1.8882103e-07 	299.14093 	0.016395856 	0.99761744 	0 	0
0.018918919 	5.6484843e-05 	1.8882459e-07 	299.13923 	0.016530662 	0.99754152 	0 	0
0.021021021 	5.6485635e-05 	1.8882817e-07 	299.13775 	0.016669757 	0.9974628 	0 	0
0.023123123 	5.6486746e-05 	1.8883191e-07 	299.13771 	0.016837696 	0.99736523 	0 	0
0.025225225 	5.6487857e-05 	1.8883565e-07 	299.13767 	0.017005635 	0.99726767 	0 	0
0.027327327 	5.6488968e-05 	1.8883939e-07 	299.13762 	0.017173574 	0.99717011 	0 	0
0.029429429 	5.6490078e-05 	1.8884313e-07 	299.13758 	0.017341513 	0.99707255 	0 	0
0.031531532 	5.6491315e-05 	1.8884698e-07 	299.13804 	0.017520056 	0.99696779 	0 	0
0.033633634 	5.6492921e-05 	1.8885113e-07 	299.13997 	0.01772957 	0.99684198 	0 	0
0.035735736 	5.6494526e-05 	1.8885528e-07 	299.1419 	0.017939083 	0.99671618 	0 	0
0.037837838 	5.6496132e-05 	1.8885943e-07 	299.14382 	0.018148597 	0.99659037 	0 	0
0.03993994 	5.6497737e-05 	1.8886358e-07 	299.14575 	0.018358111 	0.99646457 	0 	0
0.042042042 	5.6499958e-05 	1.8886837e-07 	299.14992 	0.01861581 	0.99630453 	0 	0
0.044144144 	5.6502236e-05 	1.8887322e-07 	299.15431 	0.018878025 	0.99614129 	0 	0
0.046246246 	5.6504514e-05 	1.8887806e-07 	299.15869 	0.019140241 	0.99597805 	0 	0
0.048348348 	5.6506827e-05 	1.8888295e-07 	299.16319 	0.019404951 	0.99581298 	0 	0
0.05045045 	5.6510036e-05 	1.8888885e-07 	299.17084 	0.019735169 	0.99560003 	0 	0
0.052552553 	5.6513246e-05 	1.8889475e-07 	299.17849 	0.020065386 	0.99538707 	0 	0
0.054654655 	5.6516455e-05 	1.8890065e-07 	299.18614 	0.020395603 	0.99517411 	0 	0
0.056756757 	5.6520397e-05 	1.8890749e-07 	299.19616 	0.020775426 	0.99492236 	0 	0
0.058858859 	5.6524917e-05 	1.8891509e-07 	299.20806 	0.021194358 	0.99464003 	0 	0
0.060960961 	5.6529437e-05 	1.8892269e-07 	299.21995 	0.02161329 	0.9943577 	0 	0
0.063063063 	5.653473e-05 	1.8893107e-07 	299.2347 	0.022083706 	0.9940361 	0 	0
0.065165165 	5.6541068e-05 	1.889405e-07 	299.2533 	0.022623727 	0.99366142 	0 	0
0.067267267 	5.6547407e-05 	1.8894993e-07 	299.27191 	0.023163748 	0.99328673 	0 	0
0.069369369 	5.6555622e-05 	1.8896301e-07 	299.29467 	0.023798748 	0.99282454 	0 	0
0.071471471 	5.6565175e-05 	1.8897869e-07 	299.32038 	0.024501467 	0.99229997 	0 	0
0.073573574 	5.6574728e-05 	1.8899437e-07 	299.3461 	0.025204185 	0.99177539 	0 	0
0.075675676 	5.6586028e-05 	1.8900318e-07 	299.39194 	0.02615988 	0.99107534 	0 	0
0.077777778 	5.6597348e-05 	1.8901191e-07 	299.43801 	0.027118447 	0.9903733 	0 	0
0.07987988 	5.6621042e-05 	1.8905592e-07 	299.49359 	0.028272538 	0.98941043 	0 	0
0.081981982 	5.6653056e-05 	1.8912366e-07 	299.55556 	0.029558083 	0.9882722 	0 	0
0.084084084 	5.6666654e-05 	1.8915255e-07 	299.58169 	0.03113064 	0.98700088 	0 	0
0.086186186 	5.6649233e-05 	1.8911599e-07 	299.54742 	0.033186668 	0.98550536 	0 	0
0.088288288 	5.6711339e-05 	1.8877196e-07 	300.44227 	0.035405682 	0.98340407 	0 	-3.4884453e-22
0.09039039 	5.6981852e-05 	1.8762217e-07 	303.77192 	0.038051809 	0.97971529 	0 	-1.6118549e-21
0.092492492 	5.4225349e-05 	1.7345005e-07 	1671.2286 	0.043016589 	0.9762292 	0 	6.2247037e-19
0.094594595 	4.3487027e-05 	1.2493986e-07 	6635.6964 	0.054095326 	0.97327754 	0 	2.8955e-18
0.096696697 	3.1291366e-05 	7.646173e-08 	1.0527861e+08 	0.062181301 	0.8857277 	0 	4.4046478e-18
0.098798799 	1.6219069e-05 	2.8046855e-08 	4.1833669e+08 	0.064359877 	0.63118986 	0 	4.4059725e-18
0.1009009 	5.9382877e-06 	2.9560826e-10 	7.3133466e+08 	0.056836922 	0.376663 	0 	3.4171637e-18
0.103003 	2.0461942e-06 	9.5864962e-11 	1.0442525e+09 	0.036378593 	0.1221508 	0 	1.108177e-18
0.10510511 	1.3985892e-07 	0 	1.1944345e+09 	0.019818982 	0 	0 	0
0.10720721 	6.6096668e-08 	0 	1.1944345e+09 	0.0068573338 	0 	0 	0
0.10930931 	3.1442637e-08 	0 	1.1944345e+09 	0.0015516195 	0 	0 	0
0.11141141 	2.3285049e-08 	0 	1.1944345e+09 	0.0014329226 	0 	0 	0
0.11351351 	1.8497573e-08 	0 	1.1944345e+09 	0.0016314942 	0 	0 	0
0.11561562 	1.5476207e-08 	0 	1.1944345e+09 	0.0019963307 	0 	0 	0
0.11771772 	1.3461026e-08 	0 	1.1944345e+09 	0.0022835659 	0 	0 	0
0.11981982 	1.1878064e-08 	0 	1.1944345e+09 	0.0025374665 	0 	0 	0
0.12192192 	1.0721372e-08 	0 	1.1944345e+09 	0.0027400591 	0 	0 	0
0.12402402 	9.7258942e-09 	0 	1.1944345e+09 	0.0029232471 	0 	0 	0
0.12612613 	8.9558065e-09 	0 	1.1944345e+09 	0.0030583654 	0 	0 	0
0.12822823 	8.2675268e-09 	0 	1.1944345e+09 	0.0031760361 	0 	0 	0
0.13033033 	7.7098186e-09 	0 	1.1944345e+09 	0.0032698465 	0 	0 	0
0.13243243 	7.202094e-09 	0 	1.1944345e+09 	0.0033545229 	0 	0 	0
0.13453453 	6.7761718e-09 	0 	1.1944345e+09 	0.0034238712 	0 	0 	0
0.13663664 	6.3864374e-09 	0 	1.1944345e+09 	0.0034864385 	0 	0 	0
0.13873874 	6.0491639e-09 	0 	1.1944345e+09 	0.0035374144 	0 	0 	0
0.14084084 	5.740971e-09 	0 	1.1944345e+09 	0.0035819649 	0 	0 	0
0.14294294 	5.4662266e-09 	0 	1.1944345e+09 	0.0036190469 	0 	0 	0
0.14504505 	5.2164466e-09 	0 	1.1944345e+09 	0.0036505547 	0 	0 	0
0.14714715 	4.987496e-09 	0 	1.1944345e+09 	0.0036777813 	0 	0 	0
0.14924925 	4.7810838e-09 	0 	1.1944345e+09 	0.0037003753 	0 	0 	0
0.15135135 	4.586809e-09 	0 	1.1944345e+09 	0.0037206321 	0 	0 	0
0.15345345 	4.4135957e-09 	0 	1.1944345e+09 	0.0037368332 	0 	0 	0
0.15555556 	4.2463015e-09 	0 	1.1944345e+09 	0.0037519302 	0 	0 	0
0.15765766 	4.0990838e-09 	0 	1.1944345e+09 	0.0037632828 	0 	0 	0
0.15975976 	3.9532285e-09 	0 	1.1944345e+09 	0.0037743912 	0 	0 	0
0.16186186 	3.8267319e-09 	0 	1.1944345e+09 	0.0037820303 	0 	0 	0
0.16396396 	3.7002353e-09 	0 	1.1944345e+09 	0.0037896694 	0 	0 	0
0.16606607 	3.5884877e-09 	0 	1.1944345e+09 	0.0037947967 	0 	0 	0
0.16816817 	3.4787731e-09 	0 	1.1944345e+09 	0.0037995778 	0 	0 	0
0.17027027 	3.378244e-09 	0 	1.1944345e+09 	0.003802857 	0 	0 	0
0.17237237 	3.2823185e-09 	0 	1.1944345e+09 	0.0038053834 	0 	0 	0
0.17447447 	3.1912702e-09 	0 	1.1944345e+09 	0.0038071394 	0 	0 	0
0.17657658 	3.1067766e-09 	0 	1.1944345e+09 	0.0038078598 	0 	0 	0
0.17867868 	3.0238162e-09 	0 	1.1944345e+09 	0.0038083502 	0 	0 	0
0.18078078 	2.9489443e-09 	0 	1.1944345e+09 	0.0038076279 	0 	0 	0
0.18288288 	2.8740723e-09 	0 	1.1944345e+09 	0.0038069056 	0 	0 	0
0.18498498 	2.8062566e-09 	0 	1.1944345e+09 	0.003805179 	0 	0 	0
0.18708709 	2.7395583e-09 	0 	1.1944345e+09 	0.0038032934 	0 	0 	0
0.18918919 	2.6766002e-09 	0 	1.1944345e+09 	0.0038008829 	0 	0 	0
0.19129129 	2.6168618e-09 	0 	1.1944345e+09 	0.0037980206 	0 	0 	0
0.19339339 	2.5582073e-09 	0 	1.1944345e+09 	0.0037950099 	0 	0 	0
0.1954955 	2.5044718e-09 	0 	1.1944345e+09 	0.0037913257 	0 	0 	0
0.1975976 	2.4507364e-09 	0 	1.1944345e+09 	0.0037876414 	0 	0 	0
0.1996997 	2.4011212e-09 	0 	1.1944345e+09 	0.0037834147 	0 	0 	0
0.2018018 	2.3525904e-09 	0 	1.1944345e+09 	0.0037790451 	0 	0 	0
0.2039039 	2.3057374e-09 	0 	1.1944345e+09 	0.0037744614 	0 	0 	0
0.20600601 	2.2617478e-09 	0 	1.1944345e+09 	0.0037695122 	0 	0 	0
0.20810811 	2.2177581e-09 	0 	1.1944345e+09 	0.0037645629 	0 	0 	0
0.21021021 	2.177406e-09 	0 	1.1944345e+09 	0.0037591591 	0 	0 	0
0.21231231 	2.1374014e-09 	0 	1.1944345e+09 	0.0037537119 	0 	0 	0
0.21441441 	2.0988743e-09 	0 	1.1944345e+09 	0.003748081 	0 	0 	0
0.21651652 	2.0623844e-09 	0 	1.1944345e+09 	0.0037421969 	0 	0 	0
0.21861862 	2.0258945e-09 	0 	1.1944345e+09 	0.0037363129 	0 	0 	0
0.22072072 	1.9921788e-09 	0 	1.1944345e+09 	0.0037300864 	0 	0 	0
0.22282282 	1.9588029e-09 	0 	1.1944345e+09 	0.0037238179 	0 	0 	0
0.22492492 	1.9263218e-09 	0 	1.1944345e+09 	0.0037174394 	0 	0 	0
0.22702703 	1.8957171e-09 	0 	1.1944345e+09 	0.00371083 	0 	0 	0
0.22912913 	1.8651125e-09 	0 	1.1944345e+09 	0.0037042206 	0 	0 	0
0.23123123 	1.8362781e-09 	0 	1.1944345e+09 	0.0036973941 	0 	0 	0
0.23333333 	1.8081497e-09 	0 	1.1944345e+09 	0.003690481 	0 	0 	0
0.23543544 	1.7801667e-09 	0 	1.1944345e+09 	0.0036835501 	0 	0 	0
0.23753754 	1.7542595e-09 	0 	1.1944345e+09 	0.0036763658 	0 	0 	0
0.23963964 	1.7283523e-09 	0 	1.1944345e+09 	0.0036691816 	0 	0 	0
0.24174174 	1.7031913e-09 	0 	1.1944345e+09 	0.0036619041 	0 	0 	0
0.24384384 	1.6792842e-09 	0 	1.1944345e+09 	0.0036544702 	0 	0 	0
0.24594595 	1.6553772e-09 	0 	1.1944345e+09 	0.0036470362 	0 	0 	0
0.24804805 	1.632619e-09 	0 	1.1944345e+09 	0.0036394523 	0 	0 	0
0.25015015 	1.6105185e-09 	0 	1.1944345e+09 	0.0036317825 	0 	0 	0
0.25225225 	1.588418e-09 	0 	1.1944345e+09 	0.0036241127 	0 	0 	0
0.25435435 	1.5677124e-09 	0 	1.1944345e+09 	0.003616254 	0 	0 	0
0.25645646 	1.5472483e-09 	0 	1.1944345e+09 	0.0036083626 	0 	0 	0
0.25855856 	1.5268149e-09 	0 	1.1944345e+09 	0.0036004669 	0 	0 	0
0.26066066 	1.5078374e-09 	0 	1.1944345e+09 	0.0035923662 	0 	0 	0
0.26276276 	1.48886e-09 	0 	1.1944345e+09 	0.0035842655 	0 	0 	0
0.26486486 	1.4700705e-09 	0 	1.1944345e+09 	0.0035761369 	0 	0 	0
0.26696697 	1.4524474e-09 	0 	1.1944345e+09 	0.0035678357 	0 	0 	0
0.26906907 	1.4348243e-09 	0 	1.1944345e+09 	0.0035595344 	0 	0 	0
0.27117117 	1.4174545e-09 	0 	1.1944345e+09 	0.0035511936 	0 	0 	0
0.27327327 	1.4010684e-09 	0 	1.1944345e+09 	0.0035426987 	0 	0 	0
0.27537538 	1.3846823e-09 	0 	1.1944345e+09 	0.0035342038 	0 	0 	0
0.27747748 	1.3685416e-09 	0 	1.1944345e+09 	0.0035256682 	0 	0 	0
0.27957958 	1.3532882e-09 	0 	1.1944345e+09 	0.0035169854 	0 	0 	0
0.28168168 	1.3380348e-09 	0 	1.1944345e+09 	0.0035083027 	0 	0 	0
0.28378378 	1.3229606e-09 	0 	1.1944345e+09 	0.0034995875 	0 	0 	0
0.28588589 	1.3087474e-09 	0 	1.1944345e+09 	0.0034907168 	0 	0 	0
0.28798799 	1.2945341e-09 	0 	1.1944345e+09 	0.003481846 	0 	0 	0
0.29009009 	1.2803871e-09 	0 	1.1944345e+09 	0.0034729619 	0 	0 	0
0.29219219 	1.267131e-09 	0 	1.1944345e+09 	0.0034638975 	0 	0 	0
0.29429429 	1.2538749e-09 	0 	1.1944345e+09 	0.0034548332 	0 	0 	0
0.2963964 	1.2406188e-09 	0 	1.1944345e+09 	0.0034457689 	0 	0 	0
0.2984985 	1.2281612e-09 	0 	1.1944345e+09 	0.0034365238 	0 	0 	0
0.3006006 	1.2157873e-09 	0 	1.1944345e+09 	0.0034272599 	0 	0 	0
0.3027027 	1.2034134e-09 	0 	1.1944345e+09 	0.0034179959 	0 	0 	0
0.3048048 	1.1915915e-09 	0 	1.1944345e+09 	0.0034085928 	0 	0 	0
0.30690691 	1.1800324e-09 	0 	1.1944345e+09 	0.0033991234 	0 	0 	0
0.30900901 	1.1684732e-09 	0 	1.1944345e+09 	0.003389654 	0 	0 	0
0.31111111 	1.1572035e-09 	0 	1.1944345e+09 	0.0033801037 	0 	0 	0
0.31321321 	1.1463985e-09 	0 	1.1944345e+09 	0.0033704233 	0 	0 	0
0.31531532 	1.1355934e-09 	0 	1.1944345e+09 	0.003360743 	0 	0 	0
0.31741742 	1.1248032e-09 	0 	1.1944345e+09 	0.0033510581 	0 	0 	0
0.31951952 	1.1146977e-09 	0 	1.1944345e+09 	0.003341161 	0 	0 	0
0.32162162 	1.1045923e-09 	0 	1.1944345e+09 	0.0033312638 	0 	0 	0
0.32372372 	1.0944868e-09 	0 	1.1944345e+09 	0.0033213667 	0 	0 	0
0.32582583 	1.0847627e-09 	0 	1.1944345e+09 	0.0033113387 	0 	0 	0
0.32792793 	1.0753074e-09 	0 	1.1944345e+09 	0.0033012186 	0 	0 	0
0.33003003 	1.0658521e-09 	0 	1.1944345e+09 	0.0032910984 	0 	0 	0
0.33213213 	1.0564435e-09 	0 	1.1944345e+09 	0.0032809607 	0 	0 	0
0.33423423 	1.0475938e-09 	0 	1.1944345e+09 	0.0032706128 	0 	0 	0
0.33633634 	1.038744e-09 	0 	1.1944345e+09 	0.0032602649 	0 	0 	0
0.33843844 	1.0298943e-09 	0 	1.1944345e+09 	0.0032499169 	0 	0 	0
0.34054054 	1.0213212e-09 	0 	1.1944345e+09 	0.0032394545 	0 	0 	0
0.34264264 	1.0130369e-09 	0 	1.1944345e+09 	0.0032288727 	0 	0 	0
0.34474474 	1.0047527e-09 	0 	1.1944345e+09 	0.0032182908 	0 	0 	0
0.34684685 	9.9646838e-10 	0 	1.1944345e+09 	0.0032077089 	0 	0 	0
0.34894895 	9.8861803e-10 	0 	1.1944345e+09 	0.0031969276 	0 	0 	0
0.35105105 	9.808631e-10 	0 	1.1944345e+09 	0.0031861024 	0 	0 	0
0.35315315 	9.7310817e-10 	0 	1.1944345e+09 	0.0031752772 	0 	0 	0
0.35525526 	9.6538548e-10 	0 	1.1944345e+09 	0.0031644355 	0 	0 	0
0.35735736 	9.581271e-10 	0 	1.1944345e+09 	0.0031533572 	0 	0 	0
0.35945946 	9.5086872e-10 	0 	1.1944345e+09 	0.0031422788 	0 	0 	0
0.36156156 	9.4361034e-10 	0 	1.1944345e+09 	0.0031312005 	0 	0 	0
0.36366366 	9.364551e-10 	0 	1.1944345e+09 	0.0031200647 	0 	0 	0
0.36576577 	9.2966359e-10 	0 	1.1944345e+09 	0.0031087264 	0 	0 	0
0.36786787 	9.2287209e-10 	0 	1.1944345e+09 	0.003097388 	0 	0 	0
0.36996997 	9.1608058e-10 	0 	1.1944345e+09 	0.0030860497 	0 	0 	0
0.37207207 	9.0941389e-10 	0 	1.1944345e+09 	0.0030746361 	0 	0 	0
0.37417417 	9.0306238e-10 	0 	1.1944345e+09 	0.0030630325 	0 	0 	0
0.37627628 	8.9671086e-10 	0 	1.1944345e+09 	0.003051429 	0 	0 	0
0.37837838 	8.9035935e-10 	0 	1.1944345e+09 	0.0030398254 	0 	0 	0
0.38048048 	8.8411129e-10 	0 	1.1944345e+09 	0.0030281559 	0 	0 	0
0.38258258 	8.7817542e-10 	0 	1.1944345e+09 	0.0030162874 	0 	0 	0
0.38468468 	8.7223955e-10 	0 	1.1944345e+09 	0.0030044189 	0 	0 	0
0.38678679 	8.6630368e-10 	0 	1.1944345e+09 	0.0029925504 	0 	0 	0
0.38888889 	8.604119e-10 	0 	1.1944345e+09 	0.0029806531 	0 	0 	0
0.39099099 	8.548698e-10 	0 	1.1944345e+09 	0.002968527 	0 	0 	0
0.39309309 	8.493277e-10 	0 	1.1944345e+09 	0.0029564009 	0 	0 	0
0.3951952 	8.437856e-10 	0 	1.1944345e+09 	0.0029442748 	0 	0 	0
0.3972973 	8.382435e-10 	0 	1.1944345e+09 	0.0029321487 	0 	0 	0
0.3993994 	8.3302655e-10 	0 	1.1944345e+09 	0.002919815 	0 	0 	0
0.4015015 	8.2785903e-10 	0 	1.1944345e+09 	0.0029074497 	0 	0 	0
0.4036036 	8.226915e-10 	0 	1.1944345e+09 	0.0028950844 	0 	0 	0
0.40570571 	8.1752397e-10 	0 	1.1944345e+09 	0.0028827192 	0 	0 	0
0.40780781 	8.125402e-10 	0 	1.1944345e+09 	0.0028702459 	0 	0 	0
0.40990991 	8.0773155e-10 	0 	1.1944345e+09 	0.0028576697 	0 	0 	0
0.41201201 	8.029229e-10 	0 	1.1944345e+09 	0.0028450935 	0 	0 	0
0.41411411 	7.9811425e-10 	0 	1.1944345e+09 	0.0028325173 	0 	0 	0
0.41621622 	7.9331888e-10 	0 	1.1944345e+09 	0.0028199338 	0 	0 	0
0.41831832 	7.8885618e-10 	0 	1.1944345e+09 	0.0028071688 	0 	0 	0
0.42042042 	7.8439348e-10 	0 	1.1944345e+09 	0.0027944037 	0 	0 	0
0.42252252 	7.7993078e-10 	0 	1.1944345e+09 	0.0027816387 	0 	0 	0
0.42462462 	7.7546808e-10 	0 	1.1944345e+09 	0.0027688737 	0 	0 	0
0.42672673 	7.7115304e-10 	0 	1.1944345e+09 	0.0027560418 	0 	0 	0
0.42882883 	7.6702493e-10 	0 	1.1944345e+09 	0.0027431251 	0 	0 	0
0.43093093 	7.6289683e-10 	0 	1.1944345e+09 	0.0027302084 	0 	0 	0
0.43303303 	7.5876873e-10 	0 	1.1944345e+09 	0.0027172917 	0 	0 	0
0.43513514 	7.5464062e-10 	0 	1.1944345e+09 	0.0027043751 	0 	0 	0
0.43723724 	7.5074479e-10 	0 	1.1944345e+09 	0.0026913907 	0 	0 	0
0.43933934 	7.4694173e-10 	0 	1.1944345e+09 	0.0026783793 	0 	0 	0
0.44144144 	7.4313868e-10 	0 	1.1944345e+09 	0.0026653679 	0 	0 	0
0.44354354 	7.3933563e-10 	0 	1.1944345e+09 	0.0026523565 	0 	0 	0
0.44564565 	7.3553257e-10 	0 	1.1944345e+09 	0.0026393451 	0 	0 	0
0.44774775 	7.3199961e-10 	0 	1.1944345e+09 	0.0026263072 	0 	0 	0
0.44984985 	7.2851373e-10 	0 	1.1944345e+09 	0.0026132646 	0 	0 	0
0.45195195 	7.2502786e-10 	0 	1.1944345e+09 	0.0026002221 	0 	0 	0
0.45405405 	7.2154198e-10 	0 	1.1944345e+09 	0.0025871796 	0 	0 	0
0.45615616 	7.180561e-10 	0 	1.1944345e+09 	0.002574137 	0 	0 	0
0.45825826 	7.1483317e-10 	0 	1.1944345e+09 	0.0025611618 	0 	0 	0
0.46036036 	7.116584e-10 	0 	1.1944345e+09 	0.0025481989 	0 	0 	0
0.46246246 	7.0848363e-10 	0 	1.1944345e+09 	0.002535236 	0 	0 	0
0.46456456 	7.0530885e-10 	0 	1.1944345e+09 	0.0025222731 	0 	0 	0
0.46666667 	7.0213408e-10 	0 	1.1944345e+09 	0.0025093102 	0 	0 	0
0.46876877 	6.9917133e-10 	0 	1.1944345e+09 	0.002496526 	0 	0 	0
0.47087087 	6.9630474e-10 	0 	1.1944345e+09 	0.0024838229 	0 	0 	0
0.47297297 	6.9343816e-10 	0 	1.1944345e+09 	0.0024711197 	0 	0 	0
0.47507508 	6.9057157e-10 	0 	1.1944345e+09 	0.0024584166 	0 	0 	0
0.47717718 	6.8770499e-10 	0 	1.1944345e+09 	0.0024457134 	0 	0 	0
0.47927928 	6.8495352e-10 	0 	1.1944345e+09 	0.0024331999 	0 	0 	0
0.48138138 	6.8239664e-10 	0 	1.1944345e+09 	0.0024210069 	0 	0 	0
0.48348348 	6.7983975e-10 	0 	1.1944345e+09 	0.0024088139 	0 	0 	0
0.48558559 	6.7728287e-10 	0 	1.1944345e+09 	0.002396621 	0 	0 	0
0.48768769 	6.7472599e-10 	0 	1.1944345e+09 	0.002384428 	0 	0 	0
0.48978979 	6.7216911e-10 	0 	1.1944345e+09 	0.002372235 	0 	0 	0
0.49189189 	6.6989157e-10 	0 	1.1944345e+09 	0.0023607903 	0 	0 	0
0.49399399 	6.6764933e-10 	0 	1.1944345e+09 	0.0023494402 	0 	0 	0
0.4960961 	6.6540709e-10 	0 	1.1944345e+09 	0.00233809 	0 	0 	0
0.4981982 	6.6316485e-10 	0 	1.1944345e+09 	0.0023267398 	0 	0 	0
0.5003003 	6.6092261e-10 	0 	1.1944345e+09 	0.0023153897 	0 	0 	0
0.5024024 	6.5875396e-10 	0 	1.1944345e+09 	0.00230434 	0 	0 	0
0.5045045 	6.5683595e-10 	0 	1.1944345e+09 	0.0022943136 	0 	0 	0
0.50660661 	6.5491794e-10 	0 	1.1944345e+09 	0.0022842873 	0 	0 	0
0.50870871 	6.5299993e-10 	0 	1.1944345e+09 	0.0022742609 	0 	0 	0
0.51081081 	6.5108192e-10 	0 	1.1944345e+09 	0.0022642345 	0 	0 	0
0.51291291 	6.491639e-10 	0 	1.1944345e+09 	0.0022542082 	0 	0 	0
0.51501502 	6.4738154e-10 	0 	1.1944345e+09 	0.0022449299 	0 	0 	0
0.51711712 	6.4582126e-10 	0 	1.1944345e+09 	0.0022368762 	0 	0 	0
0.51921922 	6.4426098e-10 	0 	1.1944345e+09 	0.0022288225 	0 	0 	0
0.52132132 	6.427007e-10 	0 	1.1944345e+09 	0.0022207689 	0 	0 	0
0.52342342 	6.4114042e-10 	0 	1.1944345e+09 	0.0022127152 	0 	0 	0
0.52552553 	6.3958014e-10 	0 	1.1944345e+09 	0.0022046616 	0 	0 	0
0.52762763 	6.381313e-10 	0 	1.1944345e+09 	0.0021973103 	0 	0 	0
0.52972973 	6.3690495e-10 	0 	1.1944345e+09 	0.0021913611 	0 	0 	0
0.53183183 	6.356786e-10 	0 	1.1944345e+09 	0.002185412 	0 	0 	0
0.53393393 	6.3445225e-10 	0 	1.1944345e+09 	0.0021794629 	0 	0 	0
0.53603604 	6.3322589e-10 	0 	1.1944345e+09 	0.0021735138 	0 	0 	0
0.53813814 	6.3199954e-10 	0 	1.1944345e+09 	0.0021675646 	0 	0 	0
0.54024024 	6.3080968e-10 	0 	1.1944345e+09 	0.0021618688 	0 	0 	0
0.54234234 	6.3004477e-10 	0 	1.1944345e+09 	0.0021591234 	0 	0 	0
0.54444444 	6.2927986e-10 	0 	1.1944345e+09 	0.0021563779 	0 	0 	0
0.54654655 	6.2851495e-10 	0 	1.1944345e+09 	0.0021536324 	0 	0 	0
0.54864865 	6.2775004e-10 	0 	1.1944345e+09 	0.0021508869 	0 	0 	0
0.55075075 	6.2698513e-10 	0 	1.1944345e+09 	0.0021481415 	0 	0 	0
0.55285285 	6.2622022e-10 	0 	1.1944345e+09 	0.002145396 	0 	0 	0
0.55495495 	6.2573278e-10 	0 	1.1944345e+09 	0.0021454772 	0 	0 	0
0.55705706 	6.2542824e-10 	0 	1.1944345e+09 	0.0021474217 	0 	0 	0
0.55915916 	6.251237e-10 	0 	1.1944345e+09 	0.0021493661 	0 	0 	0
0.56126126 	6.2481917e-10 	0 	1.1944345e+09 	0.0021513106 	0 	0 	0
0.56336336 	6.2451463e-10 	0 	1.1944345e+09 	0.002153255 	0 	0 	0
0.56546547 	6.2421009e-10 	0 	1.1944345e+09 	0.0021551995 	0 	0 	0
0.56756757 	6.2390555e-10 	0 	1.1944345e+09 	0.0021571439 	0 	0 	0
0.56966967 	6.2398657e-10 	0 	1.1944345e+09 	0.0021630498 	0 	0 	0
0.57177177 	6.2411466e-10 	0 	1.1944345e+09 	0.0021694394 	0 	0 	0
0.57387387 	6.2424274e-10 	0 	1.1944345e+09 	0.002175829 	0 	0 	0
0.57597598 	6.2437083e-10 	0 	1.1944345e+09 	0.0021822185 	0 	0 	0
0.57807808 	6.2449892e-10 	0 	1.1944345e+09 	0.0021886081 	0 	0 	0
0.58018018 	6.2462701e-10 	0 	1.1944345e+09 	0.0021949977 	0 	0 	0
0.58228228 	6.2475509e-10 	0 	1.1944345e+09 	0.0022013873 	0 	0 	0
0.58438438 	6.2540056e-10 	0 	1.1944345e+09 	0.0022124233 	0 	0 	0
0.58648649 	6.2608501e-10 	0 	1.1944345e+09 	0.0022238095 	0 	0 	0
0.58858859 	6.2676946e-10 	0 	1.1944345e+09 	0.0022351956 	0 	0 	0
0.59069069 	6.2745391e-10 	0 	1.1944345e+09 	0.0022465817 	0 	0 	0
0.59279279 	6.2813837e-10 	0 	1.1944345e+09 	0.0022579679 	0 	0 	0
0.59489489 	6.2882282e-10 	0 	1.1944345e+09 	0.002269354 	0 	0 	0
0.596997 	6.2950727e-10 	0 	1.1944345e+09 	0.0022807402 	0 	0 	0
0.5990991 	6.3060308e-10 	0 	1.1944345e+09 	0.0022963774 	0 	0 	0
0.6012012 	6.3187256e-10 	0 	1.1944345e+09 	0.0023138093 	0 	0 	0
0.6033033 	6.3314204e-10 	0 	1.1944345e+09 	0.0023312412 	0 	0 	0
0.60540541 	6.3441152e-10 	0 	1.1944345e+09 	0.002348673 	0 	0 	0
0.60750751 	6.35681e-10 	0 	1.1944345e+09 	0.0023661049 	0 	0 	0
0.60960961 	6.3695048e-10 	0 	1.1944345e+09 	0.0023835368 	0 	0 	0
0.61171171 	6.3821996e-10 	0 	1.1944345e+09 	0.0024009686 	0 	0 	0
0.61381381 	6.3961464e-10 	0 	1.1944345e+09 	0.0024195772 	0 	0 	0
0.61591592 	6.4153038e-10 	0 	1.1944345e+09 	0.0024430832 	0 	0 	0
0.61801802 	6.4344612e-10 	0 	1.1944345e+09 	0.0024665892 	0 	0 	0
0.62012012 	6.4536187e-10 	0 	1.1944345e+09 	0.0024900951 	0 	0 	0
0.62222222 	6.4727761e-10 	0 	1.1944345e+09 	0.0025136011 	0 	0 	0
0.62432432 	6.4919335e-10 	0 	1.1944345e+09 	0.0025371071 	0 	0 	0
0.62642643 	6.511091e-10 	0 	1.1944345e+09 	0.002560613 	0 	0 	0
0.62852853 	6.5302484e-10 	0 	1.1944345e+09 	0.002584119 	0 	0 	0
0.63063063 	6.5520215e-10 	0 	1.1944345e+09 	0.0026097655 	0 	0 	0
0.63273273 	6.578008e-10 	0 	1.1944345e+09 	0.00263886 	0 	0 	0
0.63483483 	6.6039945e-10 	0 	1.1944345e+09 	0.0026679546 	0 	0 	0
0.63693694 	6.629981e-10 	0 	1.1944345e+09 	0.0026970491 	0 	0 	0
0.63903904 	6.6559675e-10 	0 	1.1944345e+09 	0.0027261437 	0 	0 	0
0.64114114 	6.681954e-10 	0 	1.1944345e+09 	0.0027552382 	0 	0 	0
0.64324324 	6.7079405e-10 	0 	1.1944345e+09 	0.0027843327 	0 	0 	0
0.64534535 	6.733927e-10 	0 	1.1944345e+09 	0.0028134273 	0 	0 	0
0.64744745 	6.761576e-10 	0 	1.1944345e+09 	0.0028436072 	0 	0 	0
0.64954955 	6.7941922e-10 	0 	1.1944345e+09 	0.00287703 	0 	0 	0
0.65165165 	6.8268083e-10 	0 	1.1944345e+09 	0.0029104529 	0 	0 	0
0.65375375 	6.8594245e-10 	0 	1.1944345e+09 	0.0029438758 	0 	0 	0
0.65585586 	6.8920407e-10 	0 	1.1944345e+09 	0.0029772987 	0 	0 	0
0.65795796 	6.9246569e-10 	0 	1.1944345e+09 	0.0030107216 	0 	0 	0
0.66006006 	6.9572731e-10 	0 	1.1944345e+09 	0.0030441444 	0 	0 	0
0.66216216 	6.9898893e-10 	0 	1.1944345e+09 	0.0030775673 	0 	0 	0
0.66426426 	7.0225054e-10 	0 	1.1944345e+09 	0.0031109902 	0 	0 	0
0.66636637 	7.0598942e-10 	0 	1.1944345e+09 	0.0031469353 	0 	0 	0
0.66846847 	7.0986703e-10 	0 	1.1944345e+09 	0.0031836136 	0 	0 	0
0.67057057 	7.1374463e-10 	0 	1.1944345e+09 	0.0032202918 	0 	0 	0
0.67267267 	7.1762223e-10 	0 	1.1944345e+09 	0.00325697 	0 	0 	0
0.67477477 	7.2149983e-10 	0 	1.1944345e+09 	0.0032936483 	0 	0 	0
0.67687688 	7.2537743e-10 	0 	1.1944345e+09 	0.0033303265 	0 	0 	0
0.67897898 	7.2925503e-10 	0 	1.1944345e+09 	0.0033670047 	0 	0 	0
0.68108108 	7.3313264e-10 	0 	1.1944345e+09 	0.003403683 	0 	0 	0
0.68318318 	7.3701024e-10 	0 	1.1944345e+09 	0.0034403612 	0 	0 	0
0.68528529 	7.4141309e-10 	0 	1.1944345e+09 	0.0034778554 	0 	0 	0
0.68738739 	7.4585491e-10 	0 	1.1944345e+09 	0.0035154101 	0 	0 	0
0.68948949 	7.5029673e-10 	0 	1.1944345e+09 	0.0035529648 	0 	0 	0
0.69159159 	7.5473854e-10 	0 	1.1944345e+09 	0.0035905195 	0 	0 	0
0.69369369 	7.5918036e-10 	0 	1.1944345e+09 	0.0036280742 	0 	0 	0
0.6957958 	7.6362218e-10 	0 	1.1944345e+09 	0.0036656289 	0 	0 	0
0.6978979 	7.68064e-10 	0 	1.1944345e+09 	0.0037031836 	0 	0 	0
0.7 	7.7250581e-10 	0 	1.1944345e+09 	0.0037407383 	0 	0 	0
0.7021021 	7.7694763e-10 	0 	1.1944345e+09 	0.003778293 	0 	0 	0
0.7042042 	7.8165051e-10 	0 	1.1944345e+09 	0.0038130442 	0 	0 	0
0.70630631 	7.8646922e-10 	0 	1.1944345e+09 	0.0038465514 	0 	0 	0
0.70840841 	7.9128793e-10 	0 	1.1944345e+09 	0.0038800587 	0 	0 	0
0.71051051 	7.9610664e-10 	0 	1.1944345e+09 	0.003913566 	0 	0 	0
0.71261261 	8.0092535e-10 	0 	1.1944345e+09 	0.0039470732 	0 	0 	0
0.71471471 	8.0574405e-10 	0 	1.1944345e+09 	0.0039805805 	0 	0 	0
0.71681682 	8.1056276e-10 	0 	1.1944345e+09 	0.0040140878 	0 	0 	0
0.71891892 	8.1538147e-10 	0 	1.1944345e+09 	0.0040475951 	0 	0 	0
0.72102102 	8.2020018e-10 	0 	1.1944345e+09 	0.0040811023 	0 	0 	0
0.72312312 	8.2501761e-10 	0 	1.1944345e+09 	0.0041143268 	0 	0 	0
0.72522523 	8.2979482e-10 	0 	1.1944345e+09 	0.0041386777 	0 	0 	0
0.72732733 	8.3457204e-10 	0 	1.1944345e+09 	0.0041630286 	0 	0 	0
0.72942943 	8.3934925e-10 	0 	1.1944345e+09 	0.0041873795 	0 	0 	0
0.73153153 	8.4412646e-10 	0 	1.1944345e+09 	0.0042117304 	0 	0 	0
0.73363363 	8.4890368e-10 	0 	1.1944345e+09 	0.0042360812 	0 	0 	0
0.73573574 	8.5368089e-10 	0 	1.1944345e+09 	0.0042604321 	0 	0 	0
0.73783784 	8.5845811e-10 	0 	1.1944345e+09 	0.004284783 	0 	0 	0
0.73993994 	8.6323532e-10 	0 	1.1944345e+09 	0.0043091339 	0 	0 	0
0.74204204 	8.6801253e-10 	0 	1.1944345e+09 	0.0043334848 	0 	0 	0
0.74414414 	8.7278975e-10 	0 	1.1944345e+09 	0.0043578357 	0 	0 	0
0.74624625 	8.7721376e-10 	0 	1.1944345e+09 	0.0043731753 	0 	0 	0
0.74834835 	8.8160434e-10 	0 	1.1944345e+09 	0.0043876622 	0 	0 	0
0.75045045 	8.8599492e-10 	0 	1.1944345e+09 	0.0044021491 	0 	0 	0
0.75255255 	8.903855e-10 	0 	1.1944345e+09 	0.004416636 	0 	0 	0
0.75465465 	8.9477609e-10 	0 	1.1944345e+09 	0.0044311228 	0 	0 	0
0.75675676 	8.9916667e-10 	0 	1.1944345e+09 	0.0044456097 	0 	0 	0
0.75885886 	9.0355725e-10 	0 	1.1944345e+09 	0.0044600966 	0 	0 	0
0.76096096 	9.0794784e-10 	0 	1.1944345e+09 	0.0044745835 	0 	0 	0
0.76306306 	9.1233842e-10 	0 	1.1944345e+09 	0.0044890704 	0 	0 	0
0.76516517 	9.16729e-10 	0 	1.1944345e+09 	0.0045035572 	0 	0 	0
0.76726727 	9.2085441e-10 	0 	1.1944345e+09 	0.004515162 	0 	0 	0
0.76936937 	9.243765e-10 	0 	1.1944345e+09 	0.0045202092 	0 	0 	0
0.77147147 	9.2789859e-10 	0 	1.1944345e+09 	0.0045252564 	0 	0 	0
0.77357357 	9.3142067e-10 	0 	1.1944345e+09 	0.0045303036 	0 	0 	0
0.77567568 	9.3494276e-10 	0 	1.1944345e+09 	0.0045353508 	0 	0 	0
0.77777778 	9.3846485e-10 	0 	1.1944345e+09 	0.0045403979 	0 	0 	0
0.77987988 	9.4198694e-10 	0 	1.1944345e+09 	0.0045454451 	0 	0 	0
0.78198198 	9.4550902e-10 	0 	1.1944345e+09 	0.0045504923 	0 	0 	0
0.78408408 	9.4903111e-10 	0 	1.1944345e+09 	0.0045555395 	0 	0 	0
0.78618619 	9.525532e-10 	0 	1.1944345e+09 	0.0045605867 	0 	0 	0
0.78828829 	9.5607529e-10 	0 	1.1944345e+09 	0.0045656339 	0 	0 	0
0.79039039 	9.5945152e-10 	0 	1.1944345e+09 	0.0045691159 	0 	0 	0
0.79249249 	9.6210101e-10 	0 	1.1944345e+09 	0.004564799 	0 	0 	0
0.79459459 	9.647505e-10 	0 	1.1944345e+09 	0.0045604821 	0 	0 	0
0.7966967 	9.6739999e-10 	0 	1.1944345e+09 	0.0045561651 	0 	0 	0
0.7987988 	9.7004948e-10 	0 	1.1944345e+09 	0.0045518482 	0 	0 	0
0.8009009 	9.7269898e-10 	0 	1.1944345e+09 	0.0045475312 	0 	0 	0
0.803003 	9.7534847e-10 	0 	1.1944345e+09 	0.0045432143 	0 	0 	0
0.80510511 	9.7799796e-10 	0 	1.1944345e+09 	0.0045388974 	0 	0 	0
0.80720721 	9.8064745e-10 	0 	1.1944345e+09 	0.0045345804 	0 	0 	0
0.80930931 	9.8329694e-10 	0 	1.1944345e+09 	0.0045302635 	0 	0 	0
0.81141141 	9.8594643e-10 	0 	1.1944345e+09 	0.0045259466 	0 	0 	0
0.81351351 	9.8859592e-10 	0 	1.1944345e+09 	0.0045216296 	0 	0 	0
0.81561562 	9.9095097e-10 	0 	1.1944345e+09 	0.0045152501 	0 	0 	0
0.81771772 	9.9295433e-10 	0 	1.1944345e+09 	0.004506407 	0 	0 	0
0.81981982 	9.9495769e-10 	0 	1.1944345e+09 	0.0044975639 	0 	0 	0
0.82192192 	9.9696105e-10 	0 	1.1944345e+09 	0.0044887208 	0 	0 	0
0.82402402 	9.9896441e-10 	0 	1.1944345e+09 	0.0044798777 	0 	0 	0
0.82612613 	1.0009678e-09 	0 	1.1944345e+09 	0.0044710346 	0 	0 	0
0.82822823 	1.0029711e-09 	0 	1.1944345e+09 	0.0044621915 	0 	0 	0
0.83033033 	1.0049745e-09 	0 	1.1944345e+09 	0.0044533484 	0 	0 	0
0.83243243 	1.0069779e-09 	0 	1.1944345e+09 	0.0044445053 	0 	0 	0
0.83453453 	1.0089812e-09 	0 	1.1944345e+09 	0.0044356622 	0 	0 	0
0.83663664 	1.0109846e-09 	0 	1.1944345e+09 	0.0044268191 	0 	0 	0
0.83873874 	1.0129879e-09 	0 	1.1944345e+09 	0.004417976 	0 	0 	0
0.84084084 	1.0149147e-09 	0 	1.1944345e+09 	0.0044090053 	0 	0 	0
0.84294294 	1.0162942e-09 	0 	1.1944345e+09 	0.004399124 	0 	0 	0
0.84504505 	1.0176737e-09 	0 	1.1944345e+09 	0.0043892427 	0 	0 	0
0.84714715 	1.0190532e-09 	0 	1.1944345e+09 	0.0043793613 	0 	0 	0
0.84924925 	1.0204327e-09 	0 	1.1944345e+09 	0.00436948 	0 	0 	0
0.85135135 	1.0218123e-09 	0 	1.1944345e+09 	0.0043595986 	0 	0 	0
0.85345345 	1.0231918e-09 	0 	1.1944345e+09 	0.0043497173 	0 	0 	0
0.85555556 	1.0245713e-09 	0 	1.1944345e+09 	0.0043398359 	0 	0 	0
0.85765766 	1.0259508e-09 	0 	1.1944345e+09 	0.0043299546 	0 	0 	0
0.85975976 	1.0273304e-09 	0 	1.1944345e+09 	0.0043200732 	0 	0 	0
0.86186186 	1.0287099e-09 	0 	1.1944345e+09 	0.0043101919 	0 	0 	0
0.86396396 	1.0300894e-09 	0 	1.1944345e+09 	0.0043003106 	0 	0 	0
0.86606607 	1.0314689e-09 	0 	1.1944345e+09 	0.0042904292 	0 	0 	0
0.86816817 	1.0328005e-09 	0 	1.1944345e+09 	0.0042804701 	0 	0 	0
0.87027027 	1.0337631e-09 	0 	1.1944345e+09 	0.0042699125 	0 	0 	0
0.87237237 	1.0347258e-09 	0 	1.1944345e+09 	0.0042593548 	0 	0 	0
0.87447447 	1.0356884e-09 	0 	1.1944345e+09 	0.0042487971 	0 	0 	0
0.87657658 	1.036651e-09 	0 	1.1944345e+09 	0.0042382395 	0 	0 	0
0.87867868 	1.0376136e-09 	0 	1.1944345e+09 	0.0042276818 	0 	0 	0
0.88078078 	1.0385762e-09 	0 	1.1944345e+09 	0.0042171241 	0 	0 	0
0.88288288 	1.0395389e-09 	0 	1.1944345e+09 	0.0042065665 	0 	0 	0
0.88498498 	1.0405015e-09 	0 	1.1944345e+09 	0.0041960088 	0 	0 	0
0.88708709 	1.0414641e-09 	0 	1.1944345e+09 	0.0041854511 	0 	0 	0
0.88918919 	1.0424267e-09 	0 	1.1944345e+09 	0.0041748935 	0 	0 	0
0.89129129 	1.0433893e-09 	0 	1.1944345e+09 	0.0041643358 	0 	0 	0
0.89339339 	1.044352e-09 	0 	1.1944345e+09 	0.0041537781 	0 	0 	0
0.8954955 	1.0453146e-09 	0 	1.1944345e+09 	0.0041432204 	0 	0 	0
0.8975976 	1.0461634e-09 	0 	1.1944345e+09 	0.0041326979 	0 	0 	0
0.8996997 	1.0468202e-09 	0 	1.1944345e+09 	0.0041222348 	0 	0 	0
0.9018018 	1.0474769e-09 	0 	1.1944345e+09 	0.0041117716 	0 	0 	0
0.9039039 	1.0481336e-09 	0 	1.1944345e+09 	0.0041013085 	0 	0 	0
0.90600601 	1.0487903e-09 	0 	1.1944345e+09 	0.0040908453 	0 	0 	0
0.90810811 	1.049447e-09 	0 	1.1944345e+09 	0.0040803822 	0 	0 	0
0.91021021 	1.0501037e-09 	0 	1.1944345e+09 	0.004069919 	0 	0 	0
0.91231231 	1.0507604e-09 	0 	1.1944345e+09 	0.0040594559 	0 	0 	0
0.91441441 	1.0514171e-09 	0 	1.1944345e+09 	0.0040489928 	0 	0 	0