/*--------------------------------*- C++ -*----------------------------------*\
| =========                 |                                                 |
| \\      /  F ield         | OpenFOAM: The Open Source CFD Toolbox           |
|  \\    /   O peration     | Version:  2206                                  |
|   \\  /    A nd           | Website:  www.openfoam.com                      |
|    \\/     M anipulation  |                                                 |
\*---------------------------------------------------------------------------*/
FoamFile
{
    version     2.0;
    format      ascii;
    arch        "LSB;label=32;scalar=64";
    class       volScalarField;
    location    "1200";
    object      epsilon;
}
// * * * * * * * * * * * * * * * * * * * * * * * * * * * * * * * * * * * * * //

dimensions      [0 2 -3 0 0 0 0];

internalField   nonuniform List<scalar> 
13056
(
0.008155918
0.0080581069
0.0080036549
0.0079755967
0.0079584469
0.0079464878
0.0079375994
0.0079307823
0.0079254561
0.0079212475
0.0079179064
0.0079152631
0.0079132052
0.0079116658
0.0079106213
0.0079100913
0.0079101835
0.0079110535
0.0079133398
0.0079173221
0.0079272963
0.0079464212
0.0079663871
0.01023825
0.030157192
0.0017807218
0.0049958499
0.00035661075
0.0018530637
0.00017481339
0.0010530994
0.00010885477
0.00070105951
0.00053449242
0.00050638813
0.00042366106
0.00038416551
0.00033804365
0.00030483322
0.00027460854
0.00024946662
0.00022753546
0.00020850496
0.00019181407
0.00017708806
0.00016401791
0.00015235483
0.00014189598
0.0001324746
0.00012395273
0.00011621482
0.00010916353
0.00010271663
9.680399e-05
9.1365763e-05
8.6350566e-05
8.1713746e-05
7.7416475e-05
7.3424982e-05
6.9709671e-05
6.6244481e-05
6.3006521e-05
5.9975592e-05
5.7133614e-05
5.446447e-05
5.1953809e-05
4.9588783e-05
4.7357839e-05
4.5250559e-05
4.3257621e-05
4.1370612e-05
3.9581802e-05
3.7884177e-05
3.6271394e-05
3.4737651e-05
3.3277659e-05
3.1886557e-05
3.0559902e-05
2.9293701e-05
2.8084202e-05
2.6927903e-05
2.5821634e-05
2.4762458e-05
2.3747653e-05
2.2774703e-05
2.1841266e-05
2.09452e-05
2.0084528e-05
1.9257361e-05
1.8461941e-05
1.7696655e-05
1.6959983e-05
1.6250515e-05
1.5566922e-05
1.4907968e-05
1.4272532e-05
1.3659526e-05
1.3067913e-05
1.2496748e-05
1.1945135e-05
1.1412233e-05
1.0897248e-05
1.039944e-05
9.9181302e-06
9.4526531e-06
9.0023819e-06
8.5667363e-06
8.145165e-06
7.7371413e-06
7.3421814e-06
6.959831e-06
6.5895371e-06
6.231245e-06
5.8933588e-06
5.5846637e-06
5.3038148e-06
5.0472352e-06
4.8122406e-06
4.596311e-06
4.3972977e-06
4.2133406e-06
4.0428197e-06
3.8843225e-06
3.7366171e-06
3.5986124e-06
3.4693285e-06
3.3478852e-06
3.2334615e-06
3.1253125e-06
3.0226104e-06
2.9247397e-06
2.8302779e-06
2.7398078e-06
2.6468759e-06
2.5669865e-06
2.4530185e-06
0.0081545309
0.0080566203
0.0080021079
0.0079740163
0.007956845
0.0079448705
0.0079359702
0.0079291435
0.0079238092
0.0079195936
0.0079162459
0.0079135961
0.0079115314
0.0079099842
0.0079089304
0.0079083885
0.0079084643
0.0079093117
0.0079115609
0.0079154922
0.0079253418
0.0079443297
0.0079634677
0.010235358
0.029582301
0.0017646774
0.0049055663
0.00035382452
0.0018256981
0.00017507443
0.0010402326
0.0001130197
0.00069409834
0.00053087979
0.00050235809
0.00042119952
0.0003819833
0.00033661051
0.00030377524
0.00027395948
0.00024911896
0.00022745306
0.00020864266
0.00019213898
0.00017757303
0.00016464018
0.00015309549
0.00014273912
0.00013340673
0.00012496237
0.00011729212
0.00011030002
0.00010390497
9.8037807e-05
9.2639478e-05
8.7659287e-05
8.305317e-05
7.8782801e-05
7.4814841e-05
7.1120066e-05
6.7672749e-05
6.4450276e-05
6.1432692e-05
5.8602135e-05
5.5942674e-05
5.3440116e-05
5.108177e-05
4.8856215e-05
4.6753151e-05
4.4763359e-05
4.2878516e-05
4.1090977e-05
3.9393803e-05
3.7780716e-05
3.6245974e-05
3.4784341e-05
3.3391006e-05
3.2061567e-05
3.0792072e-05
2.9578804e-05
2.8418295e-05
2.7307402e-05
2.6243215e-05
2.5223037e-05
2.4244372e-05
2.3304899e-05
2.2402492e-05
2.1535191e-05
2.0701123e-05
1.9898542e-05
1.9125846e-05
1.8381528e-05
1.7664186e-05
1.69725e-05
1.6305241e-05
1.5661297e-05
1.5039585e-05
1.4439074e-05
1.3858822e-05
1.3297936e-05
1.2755581e-05
1.2230962e-05
1.1723343e-05
1.1232044e-05
1.0756398e-05
1.0295781e-05
9.8496117e-06
9.417339e-06
8.9984346e-06
8.5924132e-06
8.1988184e-06
7.8171019e-06
7.4471948e-06
7.0977578e-06
6.7779653e-06
6.4866346e-06
6.2201584e-06
5.9757982e-06
5.7509863e-06
5.5435301e-06
5.3515318e-06
5.1733381e-06
5.0075063e-06
4.8527772e-06
4.7080355e-06
4.5722782e-06
4.4446031e-06
4.3241695e-06
4.2102121e-06
4.101879e-06
3.9985427e-06
3.8987623e-06
3.8031425e-06
3.704807e-06
3.6203505e-06
3.4996886e-06
0.0081501273
0.0080519082
0.0079972096
0.0079690153
0.0079517786
0.0079397573
0.0079308214
0.0079239665
0.0079186092
0.0079143744
0.00791101
0.007908345
0.0079062659
0.0079047042
0.0079036346
0.0079030744
0.0079031269
0.0079039438
0.0079061449
0.0079100117
0.0079197035
0.0079385313
0.0079565543
0.010226508
0.029011688
0.0017486126
0.0048147435
0.00035098247
0.0017979847
0.000175306
0.0010271151
0.00011718139
0.00068694266
0.00052705129
0.00049817935
0.00041858014
0.00037967293
0.00033504979
0.0003026028
0.00027320122
0.00024866935
0.00022727417
0.00020868909
0.00019237729
0.00017797561
0.00016518393
0.00015376116
0.00014351051
0.00013427012
0.00012590606
0.00011830608
0.00011137559
0.00010503466
9.9215094e-05
9.3858663e-05
8.8915366e-05
8.4341735e-05
8.0099956e-05
7.615713e-05
7.2484415e-05
6.905642e-05
6.5850816e-05
6.2847897e-05
6.0030024e-05
5.7381456e-05
5.4888161e-05
5.253761e-05
5.0318516e-05
4.82207e-05
4.6235048e-05
4.4353331e-05
4.2567991e-05
4.0872163e-05
3.925964e-05
3.7724738e-05
3.6262279e-05
3.4867501e-05
3.3536047e-05
3.2264004e-05
3.1047693e-05
2.9883679e-05
2.876885e-05
2.7700323e-05
2.6675425e-05
2.5691685e-05
2.4746799e-05
2.3838661e-05
2.2965328e-05
2.2124941e-05
2.131577e-05
2.0536224e-05
1.9784807e-05
1.9060128e-05
1.8360876e-05
1.7685829e-05
1.7033885e-05
1.6403966e-05
1.5795046e-05
1.5206189e-05
1.4636506e-05
1.4085162e-05
1.3551369e-05
1.303439e-05
1.2533547e-05
1.204817e-05
1.1577638e-05
1.1121372e-05
1.0678817e-05
1.0249446e-05
9.8327713e-06
9.4283349e-06
9.0355931e-06
8.6544631e-06
8.2938537e-06
7.9633175e-06
7.6618317e-06
7.3857613e-06
7.1323163e-06
6.8988835e-06
6.6832286e-06
6.4834176e-06
6.2977658e-06
6.1248018e-06
5.9632403e-06
5.811943e-06
5.6698852e-06
5.5361443e-06
5.4098617e-06
5.2902542e-06
5.1764502e-06
5.0678149e-06
4.9628599e-06
4.8622138e-06
4.7586022e-06
4.6696862e-06
4.5423775e-06
0.0081425687
0.0080438222
0.0079888055
0.0079604358
0.0079430876
0.0079309865
0.0079219901
0.0079150876
0.007909692
0.0079054254
0.007902034
0.0078993453
0.0078972445
0.0078956621
0.0078945714
0.0078939882
0.0078940132
0.0078947955
0.0078969444
0.0079007425
0.0079102668
0.0079289389
0.007945702
0.010211656
0.028437703
0.0017323139
0.004722114
0.00034802655
0.0017694952
0.00017547457
0.0010135172
0.00012130712
0.00067944621
0.00052290345
0.00049374929
0.00041572053
0.00037715869
0.00033329646
0.00030125731
0.00027228163
0.0002480707
0.00022695614
0.0002086054
0.00019249345
0.00017826314
0.00016561901
0.00015432394
0.00014418426
0.00013504066
0.00012676128
0.00011923558
0.00011237042
0.00010608705
0.00010031828
9.5006717e-05
9.010309e-05
8.5564543e-05
8.1353793e-05
7.7438394e-05
7.3789897e-05
7.0383264e-05
6.7196458e-05
6.4210033e-05
6.1406579e-05
5.8770553e-05
5.6288092e-05
5.3946832e-05
5.173563e-05
4.964443e-05
4.7664226e-05
4.578689e-05
4.4004954e-05
4.231163e-05
4.0700782e-05
3.9166792e-05
3.7704541e-05
3.6309316e-05
3.4976808e-05
3.3703147e-05
3.2484692e-05
3.1318045e-05
3.0200124e-05
2.9128075e-05
2.8099252e-05
2.7111206e-05
2.6161658e-05
2.5248517e-05
2.436986e-05
2.3523846e-05
2.2708757e-05
2.1923017e-05
2.1165141e-05
2.0433749e-05
1.9727541e-05
1.9045302e-05
1.8385939e-05
1.7748382e-05
1.7131612e-05
1.6534695e-05
1.5956748e-05
1.539694e-05
1.4854485e-05
1.432865e-05
1.3818756e-05
1.3324132e-05
1.284416e-05
1.2378262e-05
1.1925884e-05
1.1486495e-05
1.1059609e-05
1.0644765e-05
1.0241424e-05
9.8494898e-06
9.4781106e-06
9.1372053e-06
8.8259089e-06
8.5405624e-06
8.2783267e-06
8.036546e-06
7.8129464e-06
7.6055602e-06
7.4126728e-06
7.2327854e-06
7.0645888e-06
6.9069227e-06
6.7587424e-06
6.619106e-06
6.4871391e-06
6.362043e-06
6.2429272e-06
6.1291474e-06
6.0191515e-06
5.9136024e-06
5.8048414e-06
5.7115727e-06
5.5776861e-06
0.0081316384
0.0080321296
0.0079766532
0.0079480301
0.0079305207
0.0079183045
0.0079092209
0.0079022501
0.0078967995
0.0078924876
0.0078890581
0.0078863365
0.0078842063
0.0078825965
0.0078814789
0.0078808676
0.0078808604
0.0078816039
0.0078836956
0.0078874206
0.0078967662
0.0079152866
0.0079306307
0.010190409
0.02785341
0.0017155827
0.0046264627
0.00034489834
0.0017398097
0.00017554444
0.00099921011
0.00012535868
0.00067146131
0.00051832924
0.00048896325
0.00041253529
0.00037436227
0.00033128251
0.00029967729
0.00027114561
0.00024727296
0.00022645339
0.00020834981
0.00019244898
0.00017840005
0.00016591242
0.00015475308
0.00014473162
0.00013569139
0.00012750269
0.00012005677
0.00011326197
0.0001070408
0.00010132711
9.60644e-05
9.1204139e-05
8.670412e-05
8.2527614e-05
7.8642653e-05
7.5021202e-05
7.1638587e-05
6.8473082e-05
6.5505513e-05
6.2718711e-05
6.0097343e-05
5.7627721e-05
5.5297659e-05
5.3096162e-05
5.1013305e-05
4.9040198e-05
4.7168817e-05
4.5391789e-05
4.370241e-05
4.2094619e-05
4.0562868e-05
3.9102095e-05
3.7707648e-05
3.6375265e-05
3.5101121e-05
3.3881617e-05
3.2713392e-05
3.1593399e-05
3.0518815e-05
2.948702e-05
2.8495592e-05
2.7542276e-05
2.6625e-05
2.5741861e-05
2.4891036e-05
2.4070824e-05
2.3279661e-05
2.2516077e-05
2.1778703e-05
2.1066249e-05
2.0377511e-05
1.9711405e-05
1.9066869e-05
1.844289e-05
1.7838541e-05
1.7252942e-05
1.6685268e-05
1.6134737e-05
1.5600617e-05
1.5082231e-05
1.4578907e-05
1.4090032e-05
1.3615027e-05
1.3153338e-05
1.2704436e-05
1.226783e-05
1.1843061e-05
1.1429594e-05
1.102732e-05
1.0645615e-05
1.0294752e-05
9.9740232e-06
9.6797482e-06
9.4090428e-06
9.1592112e-06
8.9279432e-06
8.713239e-06
8.5133565e-06
8.3267717e-06
8.1521525e-06
7.9883186e-06
7.8342065e-06
7.688857e-06
7.551381e-06
7.4209656e-06
7.296701e-06
7.1779294e-06
7.0630297e-06
6.9527072e-06
6.8389302e-06
6.7414205e-06
6.601053e-06
0.0081170434
0.008016516
0.0079604248
0.007931463
0.0079137381
0.0079013683
0.0078921682
0.0078851062
0.0078795825
0.0078752107
0.007871731
0.0078689663
0.0078667982
0.0078651537
0.0078640028
0.0078633578
0.0078633133
0.007864013
0.0078660423
0.007869689
0.0078788436
0.0078972166
0.0079109668
0.010162241
0.027252528
0.0016982336
0.0045266181
0.00034153824
0.0017085128
0.00017547685
0.00098396349
0.0001292904
0.0006628371
0.00051321665
0.00048371298
0.00040893464
0.00037120145
0.00032893583
0.0002977973
0.00026973408
0.00024622215
0.00022571643
0.00020787667
0.0001922016
0.00017834699
0.0001660274
0.00015501414
0.00014512022
0.00013619179
0.00012810143
0.00012074228
0.00011402426
0.00010787118
0.000102218
9.7009156e-05
9.2196916e-05
8.7739754e-05
8.3601528e-05
7.9750774e-05
7.6159898e-05
7.2804612e-05
6.9663522e-05
6.671774e-05
6.3950356e-05
6.134626e-05
5.8891953e-05
5.6575435e-05
5.4385871e-05
5.2313475e-05
5.0349481e-05
4.8485978e-05
4.6715693e-05
4.5032013e-05
4.3428957e-05
4.1901051e-05
4.0443299e-05
3.9051108e-05
3.7720271e-05
3.6447009e-05
3.5227771e-05
3.4059236e-05
3.2938392e-05
3.186245e-05
3.0828822e-05
2.9835113e-05
2.8879092e-05
2.7958711e-05
2.7072087e-05
2.6217419e-05
2.539302e-05
2.4597344e-05
2.3828935e-05
2.3086437e-05
2.2368573e-05
2.1674148e-05
2.1002089e-05
2.0351344e-05
1.9720906e-05
1.9109855e-05
1.8517317e-05
1.7942472e-05
1.7384543e-05
1.6842799e-05
1.631657e-05
1.5805177e-05
1.5308016e-05
1.4824508e-05
1.4354099e-05
1.389626e-05
1.34505e-05
1.3016359e-05
1.2593308e-05
1.2181222e-05
1.1789698e-05
1.1429346e-05
1.1099614e-05
1.0796805e-05
1.0517993e-05
1.0260447e-05
1.0021823e-05
9.8000914e-06
9.5934851e-06
9.4004571e-06
9.2196544e-06
9.0498782e-06
8.8900481e-06
8.7391888e-06
8.5963977e-06
8.4608485e-06
8.3316105e-06
8.2080097e-06
8.0883576e-06
7.9734058e-06
7.8547609e-06
7.7531342e-06
7.6064183e-06
0.0080984165
0.007996587
0.0079397094
0.0079103142
0.0078923138
0.0078797473
0.0078703984
0.0078632199
0.0078576029
0.0078531548
0.0078496115
0.0078467926
0.0078445771
0.0078428898
0.0078416987
0.0078410137
0.0078409261
0.0078415768
0.0078435378
0.0078471006
0.0078560506
0.0078742809
0.0078862446
0.010126499
0.026629401
0.0016800952
0.0044214495
0.000337885
0.0016751919
0.00017522934
0.00096754424
0.00013304776
0.00065341841
0.00050744788
0.00047788574
0.00040482373
0.00036758938
0.00032617948
0.00029554719
0.00026798324
0.00024485966
0.0002246912
0.00020713583
0.00019170457
0.00017806024
0.00016592291
0.00015506844
0.00014531352
0.00013650723
0.0001285246
0.00012126079
0.00011462737
0.00010854957
0.00010296352
9.7814662e-05
9.3056109e-05
8.8647065e-05
8.4552017e-05
8.0740043e-05
7.7184017e-05
7.3860068e-05
7.0747156e-05
6.7826703e-05
6.5082075e-05
6.2498402e-05
6.006239e-05
5.776224e-05
5.5587286e-05
5.3527895e-05
5.1575435e-05
4.9722114e-05
4.796077e-05
4.6284887e-05
4.4688572e-05
4.316643e-05
4.1713538e-05
4.0325366e-05
3.8997768e-05
3.7727015e-05
3.6509607e-05
3.5342266e-05
3.4222022e-05
3.3146121e-05
3.2112009e-05
3.1117322e-05
3.0159856e-05
2.9237589e-05
2.8348659e-05
2.7491289e-05
2.666381e-05
2.5864695e-05
2.5092503e-05
2.4345893e-05
2.36236e-05
2.2924444e-05
2.2247362e-05
2.1591311e-05
2.0955294e-05
2.0338399e-05
1.9739758e-05
1.9158558e-05
1.8594025e-05
1.8045435e-05
1.7512118e-05
1.6993398e-05
1.6488673e-05
1.5997367e-05
1.551893e-05
1.5052829e-05
1.4598577e-05
1.415571e-05
1.3723705e-05
1.3302427e-05
1.2901674e-05
1.2532381e-05
1.2194147e-05
1.1883264e-05
1.1596771e-05
1.1331903e-05
1.1086285e-05
1.0857865e-05
1.0644851e-05
1.0445676e-05
1.0258968e-05
1.0083511e-05
9.9182107e-06
9.7620763e-06
9.6141928e-06
9.4737206e-06
9.3397076e-06
9.2114627e-06
9.0872339e-06
8.9678207e-06
8.8444805e-06
8.7388811e-06
8.5859939e-06
0.0080753186
0.0079718711
0.0079140151
0.0078840806
0.0078657372
0.0078529261
0.0078433921
0.0078360689
0.0078303361
0.0078257934
0.0078221714
0.0078192857
0.0078170122
0.0078152731
0.0078140338
0.0078133019
0.0078131649
0.0078137605
0.0078156468
0.0078191195
0.0078278501
0.0078459436
0.0078559077
0.010082407
0.025979015
0.0016610105
0.00430987
0.00033387553
0.0016394373
0.00017475538
0.00094971617
0.00013656663
0.00064304549
0.00050089912
0.00047136398
0.00040010229
0.00036343419
0.00032293136
0.00029285183
0.00026582436
0.00024312204
0.00022331885
0.00020607242
0.00019090654
0.00017749154
0.00016555341
0.0001548729
0.00014527059
0.00013659878
0.00012873506
0.00012157676
0.00011503726
0.00010904328
0.00010353223
9.8450619e-05
9.3752478e-05
8.9397795e-05
8.5351736e-05
8.1583962e-05
7.8067855e-05
7.4779992e-05
7.1699715e-05
6.8808784e-05
6.6090862e-05
6.353134e-05
6.1117149e-05
5.8836704e-05
5.6679526e-05
5.4636146e-05
5.2698078e-05
5.0857661e-05
4.9107852e-05
4.7442243e-05
4.5855035e-05
4.4340921e-05
4.2895057e-05
4.1512984e-05
4.0190619e-05
3.8924292e-05
3.7710555e-05
3.6546183e-05
3.5428247e-05
3.4354034e-05
3.3321027e-05
3.2326895e-05
3.1369467e-05
3.0446747e-05
2.9556899e-05
2.8698171e-05
2.7868916e-05
2.7067624e-05
2.6292875e-05
2.5543342e-05
2.4817778e-05
2.4115014e-05
2.3434001e-05
2.2773709e-05
2.2133151e-05
2.1511421e-05
2.0907662e-05
2.0321065e-05
1.9750865e-05
1.9196342e-05
1.8656831e-05
1.8131655e-05
1.7620219e-05
1.712195e-05
1.6636299e-05
1.6162735e-05
1.5700769e-05
1.5249941e-05
1.4809731e-05
1.4379993e-05
1.3970712e-05
1.3593126e-05
1.3246984e-05
1.2928574e-05
1.2634903e-05
1.2363178e-05
1.2111e-05
1.1876293e-05
1.1657247e-05
1.1452276e-05
1.1259993e-05
1.1079167e-05
1.0908689e-05
1.0747557e-05
1.0594844e-05
1.0449696e-05
1.0311141e-05
1.0178472e-05
1.0049877e-05
9.9262031e-06
9.7983748e-06
9.6889757e-06
9.5301496e-06
0.0080472411
0.0079418212
0.0078827709
0.007852178
0.0078334159
0.0078203062
0.0078105463
0.0078030465
0.0077971724
0.0077925146
0.007788797
0.0077858304
0.007783487
0.0077816859
0.0077803896
0.0077796029
0.0077794093
0.0077799432
0.0077817476
0.0077851234
0.0077936184
0.0078115822
0.0078193106
0.010029078
0.025297043
0.0016408396
0.0041908452
0.00032944495
0.001600844
0.00017400436
0.00093024087
0.00013977307
0.00063155447
0.00049344109
0.00046402562
0.00039466496
0.00035863924
0.00031910448
0.00028963126
0.00026318391
0.00024094107
0.00022153583
0.00020462694
0.00018975156
0.00017658807
0.00016486889
0.00015438001
0.00014494621
0.00013642321
0.00012869143
0.00012165051
0.00011521578
0.00010931557
0.00010388868
9.8882785e-05
9.4252889e-05
8.9959841e-05
8.5969541e-05
8.2252282e-05
7.8781997e-05
7.5535752e-05
7.2493304e-05
6.9636779e-05
6.6950164e-05
6.4419138e-05
6.2030874e-05
5.9774023e-05
5.7638309e-05
5.5614443e-05
5.3694098e-05
5.1869756e-05
5.0134507e-05
4.8482058e-05
4.6906718e-05
4.5403272e-05
4.3966964e-05
4.2593414e-05
4.127861e-05
4.0018945e-05
3.8811031e-05
3.7651697e-05
3.6538063e-05
3.546746e-05
3.4437414e-05
3.3445631e-05
3.2489973e-05
3.1568476e-05
3.0679334e-05
2.9820819e-05
2.8991311e-05
2.8189321e-05
2.7413449e-05
2.6662389e-05
2.5934908e-05
2.5229855e-05
2.4546195e-05
2.3882911e-05
2.3239027e-05
2.2613649e-05
2.2005928e-05
2.1415064e-05
2.08403e-05
2.0280922e-05
1.9736268e-05
1.9205665e-05
1.8688526e-05
1.8184279e-05
1.7692377e-05
1.7212294e-05
1.6743541e-05
1.6285658e-05
1.5838132e-05
1.5400805e-05
1.4983831e-05
1.4598725e-05
1.4245384e-05
1.3920099e-05
1.3619851e-05
1.3341827e-05
1.3083606e-05
1.2843094e-05
1.2618466e-05
1.2408122e-05
1.2210659e-05
1.2024837e-05
1.1849534e-05
1.1683736e-05
1.1526507e-05
1.137698e-05
1.1234162e-05
1.1097333e-05
1.0964627e-05
1.0836938e-05
1.0704874e-05
1.0591886e-05
1.042742e-05
0.0080136071
0.0079058168
0.0078453287
0.007813943
0.0077946767
0.0077812074
0.0077711754
0.0077634631
0.0077574191
0.0077526229
0.0077487906
0.0077457272
0.0077433004
0.0077414257
0.0077400625
0.0077392123
0.0077389541
0.0077394188
0.0077411334
0.0077444048
0.0077526465
0.007770489
0.0077757198
0.0099655201
0.024579913
0.0016194631
0.0040634092
0.00032452701
0.0015590166
0.00017292193
0.00090887997
0.00014258388
0.00061877873
0.00048494021
0.00045574497
0.00038840215
0.00035310384
0.00031460757
0.00028580131
0.00025998409
0.00023824431
0.00021927439
0.00020273573
0.00018817955
0.00017529296
0.00016381531
0.00015353826
0.00014429115
0.00013593341
0.00012834848
0.00012143852
0.00011512099
0.00010932596
0.00010399374
9.9073252e-05
9.4520586e-05
9.0297516e-05
8.637074e-05
8.2711244e-05
7.929356e-05
7.6095283e-05
7.3096628e-05
7.028012e-05
6.7630102e-05
6.5132564e-05
6.2774951e-05
6.0546167e-05
5.8436161e-05
5.643584e-05
5.4537052e-05
5.2732439e-05
5.1015234e-05
4.9379273e-05
4.781898e-05
4.6329247e-05
4.4905413e-05
4.3543184e-05
4.2238628e-05
4.0988208e-05
3.9788602e-05
3.8636699e-05
3.7529673e-05
3.6464907e-05
3.543997e-05
3.4452611e-05
3.3500732e-05
3.2582402e-05
3.1695847e-05
3.083937e-05
3.0011379e-05
2.921041e-05
2.8435085e-05
2.7684119e-05
2.69563e-05
2.6250494e-05
2.5565682e-05
2.4900863e-05
2.4255075e-05
2.3627436e-05
2.3017106e-05
2.2423297e-05
2.184526e-05
2.1282289e-05
2.0733729e-05
2.0198909e-05
1.967725e-05
1.9168185e-05
1.8671171e-05
1.8185683e-05
1.7711237e-05
1.7247372e-05
1.6793584e-05
1.6349703e-05
1.5926027e-05
1.5534321e-05
1.5174627e-05
1.4843245e-05
1.4537139e-05
1.4253482e-05
1.3989837e-05
1.3744099e-05
1.3514429e-05
1.3299217e-05
1.309705e-05
1.290668e-05
1.2726973e-05
1.2556908e-05
1.2395539e-05
1.2241989e-05
1.2095246e-05
1.1954579e-05
1.1818074e-05
1.1686667e-05
1.1550675e-05
1.1434356e-05
1.1264626e-05
0.0079737742
0.0078631659
0.0078009652
0.0077686346
0.0077487675
0.0077348697
0.0077245135
0.007716548
0.0077103017
0.0077053408
0.0077013721
0.0076981939
0.0076956685
0.0076937074
0.0076922659
0.0076913422
0.0076910105
0.0076913976
0.0076930135
0.0076961724
0.0077041414
0.007721873
0.007724315
0.0098906451
0.023824912
0.0015967871
0.0039266877
0.00031905486
0.0015135756
0.00017145063
0.00088539869
0.00014490776
0.00060455124
0.00047526057
0.00044639442
0.00038120154
0.00034672456
0.00030934634
0.0002812747
0.00025614389
0.00023495605
0.00021646346
0.00020033177
0.00018612709
0.00017354595
0.00016233527
0.00015229283
0.0001432529
0.00013507893
0.00012765767
0.00012089403
0.00011470772
0.00010903076
0.00010380508
9.8980968e-05
9.4515694e-05
9.0372041e-05
8.6517582e-05
8.2924055e-05
7.956665e-05
7.6423542e-05
7.3475442e-05
7.0705316e-05
6.8097896e-05
6.5639516e-05
6.3317916e-05
6.1122284e-05
5.9042809e-05
5.7070618e-05
5.5197752e-05
5.3417027e-05
5.1721834e-05
5.0106152e-05
4.8564533e-05
4.7091986e-05
4.5683955e-05
4.4336244e-05
4.3045007e-05
4.1806784e-05
4.0618328e-05
3.9476594e-05
3.8378819e-05
3.7322438e-05
3.6305073e-05
3.5324521e-05
3.4378725e-05
3.3465795e-05
3.2583991e-05
3.1731652e-05
3.0907216e-05
3.0109246e-05
2.9336392e-05
2.8587393e-05
2.7861058e-05
2.7156272e-05
2.6472039e-05
2.5807373e-05
2.5161328e-05
2.4533034e-05
2.3921667e-05
2.3326449e-05
2.2746642e-05
2.2181549e-05
2.1630522e-05
2.1092897e-05
2.0568101e-05
2.0055575e-05
1.955478e-05
1.9065197e-05
1.8586341e-05
1.8117757e-05
1.7658947e-05
1.7209732e-05
1.6780526e-05
1.6383309e-05
1.6018264e-05
1.5681708e-05
1.5370598e-05
1.5082099e-05
1.4813768e-05
1.456349e-05
1.4329422e-05
1.4109946e-05
1.3903644e-05
1.3709259e-05
1.3525655e-05
1.33518e-05
1.3186741e-05
1.3029595e-05
1.2879335e-05
1.2735219e-05
1.2595291e-05
1.2460528e-05
1.2320983e-05
1.2201647e-05
1.202712e-05
0.0079270359
0.0078131067
0.0077488831
0.007715436
0.0076948588
0.0076804546
0.0076697154
0.0076614506
0.0076549654
0.0076498101
0.0076456806
0.0076423672
0.0076397261
0.0076376637
0.0076361313
0.007635123
0.0076347075
0.0076350077
0.0076365151
0.0076395524
0.0076472276
0.0076648605
0.0076641905
0.009803281
0.023030294
0.0015727488
0.0037799292
0.00031296212
0.0014641679
0.00016953091
0.00085957112
0.0001466471
0.00058870795
0.0004642667
0.00043584687
0.00037295026
0.00033939715
0.00030322523
0.00027596263
0.00025158056
0.00023099867
0.00021302995
0.00019734593
0.00018352855
0.00017128455
0.00016036909
0.00015058655
0.00014177658
0.000133807
0.00012656813
0.00011996787
0.00011392842
0.0001083839
0.00010327799
9.8562499e-05
9.4195964e-05
9.0142274e-05
8.6369958e-05
8.2851579e-05
7.9563045e-05
7.6483164e-05
7.3593195e-05
7.0876584e-05
6.8318491e-05
6.5905628e-05
6.3626064e-05
6.1469291e-05
5.9425769e-05
5.7486864e-05
5.5644828e-05
5.3892672e-05
5.222396e-05
5.0632829e-05
4.9113973e-05
4.7662531e-05
4.6274063e-05
4.4944479e-05
4.367003e-05
4.2447344e-05
4.1273254e-05
4.0144793e-05
3.905926e-05
3.8014156e-05
3.7007159e-05
3.6036118e-05
3.5099025e-05
3.4194033e-05
3.3319443e-05
3.2473632e-05
3.1655073e-05
3.0862361e-05
3.0094175e-05
2.934928e-05
2.8626512e-05
2.792478e-05
2.7243107e-05
2.6580528e-05
2.5936115e-05
2.5309014e-05
2.4698416e-05
2.4103557e-05
2.3523711e-05
2.2958192e-05
2.2406362e-05
2.1867562e-05
2.1341231e-05
2.0826817e-05
2.0323788e-05
1.9831627e-05
1.9349858e-05
1.8878025e-05
1.8415642e-05
1.7962519e-05
1.7529154e-05
1.7127702e-05
1.675848e-05
1.6417835e-05
1.6102726e-05
1.5810319e-05
1.553817e-05
1.5284166e-05
1.5046461e-05
1.4823435e-05
1.461367e-05
1.4415905e-05
1.4229001e-05
1.4051922e-05
1.3883711e-05
1.372348e-05
1.3570188e-05
1.3423089e-05
1.3280191e-05
1.3142506e-05
1.2999858e-05
1.2877882e-05
1.2699126e-05
0.0078726247
0.0077548104
0.0076882144
0.0076534569
0.0076320462
0.0076170476
0.0076058588
0.0075972429
0.0075904773
0.0075850941
0.0075807762
0.0075773045
0.0075745282
0.0075723481
0.0075707104
0.0075696048
0.0075690942
0.0075692971
0.0075706849
0.0075735908
0.0075809489
0.0075984977
0.0075943573
0.0097021832
0.022195405
0.0015473249
0.0036225448
0.00030618445
0.0014104792
0.00016710248
0.00083118718
0.00014770046
0.00057109242
0.00045182732
0.00042397904
0.0003635378
0.00033101919
0.00029614978
0.000269777
0.00024621164
0.00022629457
0.00020890051
0.00019370861
0.00018031769
0.00016844551
0.00015785618
0.00014836127
0.00013980625
0.00013206367
0.00012502776
0.00011860965
0.00011273427
0.00010733799
0.00010236644
9.7773051e-05
9.3517764e-05
8.9565674e-05
8.588635e-05
8.2453257e-05
7.9243091e-05
7.623535e-05
7.3411895e-05
7.0756697e-05
6.8255387e-05
6.5895092e-05
6.3664242e-05
6.1552666e-05
5.9551117e-05
5.7651226e-05
5.584548e-05
5.4127101e-05
5.2489846e-05
5.0928026e-05
4.9436493e-05
4.8010526e-05
4.6645815e-05
4.533839e-05
4.4084609e-05
4.2881195e-05
4.1725072e-05
4.0613355e-05
3.954342e-05
3.8512835e-05
3.7519344e-05
3.6560852e-05
3.5635406e-05
3.4741208e-05
3.3876604e-05
3.3040015e-05
3.2229951e-05
3.1445044e-05
3.0684007e-05
2.9945635e-05
2.9228792e-05
2.8532413e-05
2.7855546e-05
2.7197249e-05
2.6556613e-05
2.5932805e-05
2.5325032e-05
2.4732545e-05
2.4154633e-05
2.3590624e-05
2.3039891e-05
2.2501784e-05
2.1975753e-05
2.1461254e-05
2.0957764e-05
2.0464774e-05
1.998181e-05
1.9508425e-05
1.9044139e-05
1.8588758e-05
1.8152822e-05
1.7748615e-05
1.737658e-05
1.7033108e-05
1.6715168e-05
1.641994e-05
1.6144989e-05
1.5888206e-05
1.5647754e-05
1.5422015e-05
1.5209574e-05
1.5009173e-05
1.4819671e-05
1.4640034e-05
1.4469304e-05
1.4306588e-05
1.4150841e-05
1.400131e-05
1.3855979e-05
1.3715888e-05
1.3570672e-05
1.3446507e-05
1.3264203e-05
0.0078097153
0.007687385
0.0076180231
0.0075817367
0.0075593534
0.0075436612
0.0075319478
0.0075229222
0.0075158295
0.0075101804
0.007505643
0.0075019871
0.0074990537
0.0074967372
0.007494978
0.007493761
0.0074931424
0.0074932362
0.0074944923
0.0074972559
0.0075042715
0.0075217532
0.0075137465
0.0095860503
0.021320798
0.0015205398
0.0034541571
0.00029866144
0.0013522508
0.00016410615
0.00080006169
0.0001479657
0.00055156167
0.00043782008
0.00041067576
0.00035285976
0.00032149342
0.00028802971
0.00026263316
0.00023995754
0.0002207685
0.00020400378
0.00018935188
0.00017642962
0.00016496668
0.00015473688
0.00014555958
0.00013728654
0.00012979547
0.00012298481
0.00011676922
0.00011107656
0.00010584571
0.00010102436
9.6567753e-05
9.2437335e-05
8.8599519e-05
8.5025014e-05
8.1688269e-05
7.8566837e-05
7.5640973e-05
7.2893194e-05
7.0308049e-05
6.7871683e-05
6.5571677e-05
6.3396861e-05
6.1337429e-05
5.9384461e-05
5.7529874e-05
5.5766416e-05
5.4087541e-05
5.2487218e-05
5.0959949e-05
4.9500759e-05
4.8105086e-05
4.6768762e-05
4.5487947e-05
4.4259118e-05
4.3079105e-05
4.1944931e-05
4.0853804e-05
3.9803183e-05
3.8790713e-05
3.7814207e-05
3.6871638e-05
3.5961111e-05
3.5080883e-05
3.4229351e-05
3.3404983e-05
3.2606333e-05
3.1832075e-05
3.1080956e-05
3.0351808e-05
2.9643526e-05
2.8955076e-05
2.8285532e-05
2.7633978e-05
2.6999529e-05
2.6381372e-05
2.5778735e-05
2.5190887e-05
2.4617134e-05
2.405682e-05
2.3509331e-05
2.2974026e-05
2.2450371e-05
2.1937833e-05
2.1435896e-05
2.094406e-05
2.046186e-05
1.9988854e-05
1.9524573e-05
1.9068817e-05
1.8632127e-05
1.822686e-05
1.7853579e-05
1.7508728e-05
1.7189302e-05
1.6892505e-05
1.661592e-05
1.6357455e-05
1.6115282e-05
1.5887798e-05
1.5673594e-05
1.5471417e-05
1.5280134e-05
1.5098714e-05
1.49262e-05
1.4761701e-05
1.460417e-05
1.4452854e-05
1.4305718e-05
1.4163825e-05
1.4016671e-05
1.3890845e-05
1.3705797e-05
0.0077374304
0.0076098807
0.0075373109
0.0074992498
0.0074757375
0.0074592399
0.0074469175
0.0074374163
0.0074299439
0.0074239863
0.0074191941
0.0074153247
0.0074122097
0.0074097356
0.0074078368
0.0074064924
0.0074057515
0.007405723
0.0074068339
0.0074094431
0.0074160887
0.0074335232
0.0074212148
0.009453543
0.020408332
0.0014924773
0.0032746567
0.00029033905
0.0012892996
0.00016048595
0.0007660455
0.00014734377
0.00052999368
0.00042213741
0.00039583534
0.00034082252
0.00031073199
0.00027878272
0.00025445343
0.00023274475
0.00021435061
0.00019827314
0.00018421204
0.00017180327
0.00016078937
0.00015095468
0.00014212694
0.00013416472
0.0001269513
0.00012038972
0.00011439843
0.00010890849
0.00010386147
9.9207326e-05
9.4903241e-05
9.0912321e-05
8.7202407e-05
8.3745444e-05
8.0516953e-05
7.7495424e-05
7.4661933e-05
7.1999715e-05
6.949395e-05
6.7131343e-05
6.4899974e-05
6.2789111e-05
6.0789348e-05
5.8892117e-05
5.7089655e-05
5.5374992e-05
5.3741837e-05
5.2184393e-05
5.0697373e-05
4.9275991e-05
4.7915858e-05
4.6612963e-05
4.5363611e-05
4.4164408e-05
4.3012304e-05
4.1904431e-05
4.0838099e-05
3.9810858e-05
3.8820439e-05
3.7864734e-05
3.6941787e-05
3.604977e-05
3.5187001e-05
3.4351932e-05
3.3543085e-05
3.2759065e-05
3.1998587e-05
3.1260442e-05
3.05435e-05
2.9846694e-05
2.916902e-05
2.8509585e-05
2.78675e-05
2.7241909e-05
2.6632023e-05
2.603709e-05
2.5456403e-05
2.4889287e-05
2.4335102e-05
2.3793251e-05
2.3263106e-05
2.274415e-05
2.223586e-05
2.1737734e-05
2.1249281e-05
2.0770044e-05
2.0299591e-05
1.9837463e-05
1.9383459e-05
1.8948068e-05
1.8543658e-05
1.8170904e-05
1.7826317e-05
1.7506934e-05
1.7209992e-05
1.6933104e-05
1.6674204e-05
1.6431485e-05
1.620336e-05
1.5988434e-05
1.5785469e-05
1.5593341e-05
1.5411024e-05
1.5237573e-05
1.50721e-05
1.491356e-05
1.4761205e-05
1.4612989e-05
1.4469996e-05
1.4321632e-05
1.4194759e-05
1.4007902e-05
0.0076548474
0.0075212973
0.0074450251
0.0074049131
0.007380096
0.0073626678
0.0073496414
0.0073395904
0.0073316793
0.0073253652
0.0073202789
0.0073161632
0.0073128387
0.0073101835
0.0073081246
0.0073066348
0.0073057555
0.0073055902
0.0073065408
0.0073089826
0.007315228
0.0073326383
0.007315553
0.0093033077
0.019461238
0.0014632918
0.0030842664
0.0002811725
0.0012215422
0.00015619175
0.00072903896
0.00014574313
0.00050629628
0.00040469369
0.00037937605
0.00032734893
0.00029866157
0.00026833912
0.00024517133
0.00022450974
0.00020698001
0.00019165015
0.00017823283
0.00016638439
0.00015586117
0.00014645884
0.00013801417
0.00013039307
0.00012348481
0.00011719738
0.00011145333
0.0001061872
0.00010134342
9.6874448e-05
9.2739542e-05
8.8903606e-05
8.5336027e-05
8.2010094e-05
7.8902492e-05
7.5992726e-05
7.3262765e-05
7.0696622e-05
6.8280164e-05
6.6000708e-05
6.3846876e-05
6.1808414e-05
5.9876351e-05
5.8042505e-05
5.6299461e-05
5.4640557e-05
5.305978e-05
5.1551589e-05
5.0110927e-05
4.8733216e-05
4.7414257e-05
4.6150211e-05
4.4937541e-05
4.3772998e-05
4.2653659e-05
4.1576778e-05
4.0539778e-05
3.9540308e-05
3.8576195e-05
3.7645416e-05
3.6746094e-05
3.5876477e-05
3.5034949e-05
3.4220024e-05