/*--------------------------------*- C++ -*----------------------------------*\
| =========                 |                                                 |
| \\      /  F ield         | OpenFOAM: The Open Source CFD Toolbox           |
|  \\    /   O peration     | Version:  2206                                  |
|   \\  /    A nd           | Website:  www.openfoam.com                      |
|    \\/     M anipulation  |                                                 |
\*---------------------------------------------------------------------------*/
FoamFile
{
    version     2.0;
    format      ascii;
    arch        "LSB;label=32;scalar=64";
    class       volScalarField;
    location    "1200";
    object      k;
}
// * * * * * * * * * * * * * * * * * * * * * * * * * * * * * * * * * * * * * //

dimensions      [0 2 -2 0 0 0 0];

internalField   nonuniform List<scalar> 
13056
(
0.0001321938
0.00012434895
0.00012155079
0.00012015154
0.00011927281
0.00011865721
0.00011820148
0.00011785266
0.00011757935
0.00011736133
0.00011718492
0.00011704048
0.00011692107
0.00011682154
0.00011673797
0.00011666743
0.00011660744
0.0001165568
0.00011651212
0.00011648083
0.00011642637
0.00011653386
0.00011579221
0.00011945719
1.7850902e-05
2.7068578e-06
5.3844493e-06
9.2653313e-07
2.7796472e-06
5.7602761e-07
1.9070817e-06
4.2003669e-07
1.4539633e-06
1.213358e-06
1.170495e-06
1.0392315e-06
9.7361103e-07
8.9401983e-07
8.3446256e-07
7.7834197e-07
7.300743e-07
6.8662828e-07
6.4778425e-07
6.1273148e-07
5.8095143e-07
5.5199892e-07
5.2550712e-07
5.0116984e-07
4.7872966e-07
4.5796932e-07
4.3870277e-07
4.2077e-07
4.0403338e-07
3.8837322e-07
3.7368565e-07
3.5988014e-07
3.4687644e-07
3.346036e-07
3.2299901e-07
3.1200692e-07
3.0157748e-07
2.9166635e-07
2.8223392e-07
2.7324412e-07
2.646643e-07
2.5646507e-07
2.4861979e-07
2.4110416e-07
2.33896e-07
2.269753e-07
2.2032381e-07
2.1392447e-07
2.0776157e-07
2.0182084e-07
1.9608904e-07
1.9055396e-07
1.8520426e-07
1.8002944e-07
1.7502015e-07
1.7016734e-07
1.6546243e-07
1.6089764e-07
1.5646569e-07
1.5215975e-07
1.4797345e-07
1.4390076e-07
1.399362e-07
1.3607466e-07
1.3231113e-07
1.2864089e-07
1.2505962e-07
1.2156317e-07
1.1814767e-07
1.1480941e-07
1.1154491e-07
1.0835106e-07
1.0522472e-07
1.0216284e-07
9.9162651e-08
9.6221468e-08
9.3336754e-08
9.0506064e-08
8.7727099e-08
8.4997761e-08
8.2315897e-08
7.9679439e-08
7.7086457e-08
7.4535072e-08
7.2023425e-08
6.9549797e-08
6.7112535e-08
6.4709218e-08
6.2340569e-08
6.0064891e-08
5.794752e-08
5.5987011e-08
5.4165455e-08
5.2469877e-08
5.088737e-08
4.9406756e-08
4.8018171e-08
4.6712854e-08
4.5483028e-08
4.4321798e-08
4.3222935e-08
4.2180705e-08
4.1189834e-08
4.0245227e-08
3.9342143e-08
3.8474882e-08
3.7639314e-08
3.6824068e-08
3.6034491e-08
3.5214316e-08
3.4501547e-08
3.3471164e-08
0.00013218197
0.00012432917
0.00012152798
0.00012012715
0.0001192474
0.00011863107
0.0001181748
0.00011782557
0.00011755193
0.00011733364
0.00011715701
0.00011701239
0.00011689283
0.00011679317
0.00011670949
0.00011663886
0.00011657879
0.00011652808
0.00011648333
0.00011645199
0.00011639746
0.00011650504
0.00011576267
0.00011943172
1.7835114e-05
2.6781964e-06
5.2670547e-06
9.1234869e-07
2.7230805e-06
5.6769672e-07
1.8710765e-06
4.1892617e-07
1.4284517e-06
1.1943816e-06
1.1511276e-06
1.0232613e-06
9.5855605e-07
8.8081828e-07
8.2236137e-07
7.6740862e-07
7.2007788e-07
6.7748509e-07
6.393886e-07
6.0500291e-07
5.73821e-07
5.4540705e-07
5.1940253e-07
4.9550798e-07
4.7347159e-07
4.5308083e-07
4.3415364e-07
4.1653345e-07
4.0008553e-07
3.8469271e-07
3.7025333e-07
3.566787e-07
3.4389027e-07
3.3181852e-07
3.2040214e-07
3.0958651e-07
2.993228e-07
2.8956754e-07
2.8028193e-07
2.7143061e-07
2.6298157e-07
2.5490599e-07
2.4717775e-07
2.3977305e-07
2.3267011e-07
2.2584934e-07
2.1929282e-07
2.1298381e-07
2.0690692e-07
2.0104813e-07
1.9539445e-07
1.8993391e-07
1.8465537e-07
1.7954854e-07
1.7460422e-07
1.6981355e-07
1.6516808e-07
1.6066018e-07
1.5628272e-07
1.5202897e-07
1.4789266e-07
1.4386791e-07
1.3994929e-07
1.361318e-07
1.3241052e-07
1.287808e-07
1.252384e-07
1.2177924e-07
1.1839951e-07
1.1509555e-07
1.1186395e-07
1.0870164e-07
1.0560555e-07
1.0257265e-07
9.9600224e-08
9.6685628e-08
9.382636e-08
9.1020008e-08
8.8264303e-08
8.5557172e-08
8.2896485e-08
8.0280205e-08
7.7706424e-08
7.5173285e-08
7.2678948e-08
7.0221712e-08
6.7799943e-08
6.5411266e-08
6.3056349e-08
6.0792848e-08
5.8685813e-08
5.6734384e-08
5.4920931e-08
5.3232561e-08
5.1656475e-08
5.0181577e-08
4.8798077e-08
4.7497279e-08
4.6271463e-08
4.5113783e-08
4.4018053e-08
4.297858e-08
4.1990124e-08
4.1047626e-08
4.0146369e-08
3.9280712e-08
3.8446569e-08
3.7632944e-08
3.68452e-08
3.6026869e-08
3.5316049e-08
3.4290863e-08
0.00013214399
0.00012426683
0.00012145646
0.0001200508
0.00011916795
0.00011854942
0.0001180915
0.000117741
0.00011746635
0.00011724726
0.00011706996
0.00011692479
0.00011680477
0.00011670472
0.00011662071
0.00011654979
0.00011648947
0.00011643854
0.0001163936
0.00011636211
0.00011630736
0.0001164152
0.0001156707
0.00011935123
1.7822583e-05
2.649518e-06
5.1496378e-06
8.9804443e-07
2.6662181e-06
5.5924752e-07
1.8347449e-06
4.1770423e-07
1.4026198e-06
1.1750015e-06
1.1314703e-06
1.0069606e-06
9.4321679e-07
8.6731999e-07
8.0998018e-07
7.5619688e-07
7.0981056e-07
6.6807573e-07
6.3073203e-07
5.9701828e-07
5.6643909e-07
5.3856806e-07
5.1305499e-07
4.8960714e-07
4.6797835e-07
4.4796082e-07
4.293765e-07
4.1207225e-07
3.9591627e-07
3.8079394e-07
3.6660576e-07
3.5326496e-07
3.4069463e-07
3.2882674e-07
3.1760125e-07
3.0696469e-07
2.9686924e-07
2.8727234e-07
2.7813598e-07
2.694255e-07
2.6110957e-07
2.531599e-07
2.4555094e-07
2.3825935e-07
2.312638e-07
2.2454506e-07
2.1808559e-07
2.1186897e-07
2.0588011e-07
2.0010526e-07
1.9453167e-07
1.8914763e-07
1.8394218e-07
1.7890524e-07
1.7402778e-07
1.6930111e-07
1.6471694e-07
1.6026779e-07
1.5594664e-07
1.5174689e-07
1.476624e-07
1.4368738e-07
1.398165e-07
1.3604485e-07
1.323676e-07
1.2878019e-07
1.2527843e-07
1.2185832e-07
1.1851612e-07
1.1524824e-07
1.1205131e-07
1.0892232e-07
1.0585824e-07
1.0285611e-07
9.9913233e-08
9.7027015e-08
9.4194988e-08
9.1414778e-08
8.8684144e-08
8.6001044e-08
8.3363367e-08
8.076911e-08
7.8216389e-08
7.5703369e-08
7.3228232e-08
7.0789297e-08
6.8384945e-08
6.6012853e-08
6.3673633e-08
6.1424255e-08
5.9329417e-08
5.7388823e-08
5.5585135e-08
5.3905547e-08
5.2337379e-08
5.0869622e-08
4.9492566e-08
4.8197589e-08
4.6977031e-08
4.58241e-08
4.4732664e-08
4.3697073e-08
4.271213e-08
4.1772823e-08
4.087448e-08
4.0011544e-08
3.9180022e-08
3.8369153e-08
3.7584151e-08
3.6768612e-08
3.6060565e-08
3.5040843e-08
0.0001320787
0.00012415999
0.00012133395
0.00011992009
0.00011903195
0.00011840967
0.00011794894
0.00011759627
0.00011731991
0.00011709943
0.00011692101
0.00011677491
0.0001166541
0.00011655339
0.00011646881
0.00011639741
0.00011633666
0.00011628536
0.00011624009
0.00011620834
0.00011615321
0.0001162615
0.00011551338
0.0001192132
1.7813567e-05
2.6205037e-06
5.030683e-06
8.8345323e-07
2.6083018e-06
5.505588e-07
1.7975869e-06
4.1627126e-07
1.3761012e-06
1.154931e-06
1.1112375e-06
9.900847e-07
9.2736267e-07
8.5331781e-07
7.9712671e-07
7.445298e-07
6.991078e-07
6.5824702e-07
6.2167132e-07
5.8864329e-07
5.5867939e-07
5.313629e-07
5.06352e-07
4.833608e-07
4.621489e-07
4.4251326e-07
4.2427994e-07
4.0729928e-07
3.9144246e-07
3.7659743e-07
3.6266692e-07
3.4956607e-07
3.3721968e-07
3.2556122e-07
3.1453195e-07
3.0407955e-07
2.9415726e-07
2.8472341e-07
2.7574081e-07
2.6717554e-07
2.5899692e-07
2.5117723e-07
2.4369147e-07
2.3651681e-07
2.2963234e-07
2.2301922e-07
2.166603e-07
2.1053946e-07
2.0464194e-07
1.9895426e-07
1.9346394e-07
1.8815947e-07
1.8303015e-07
1.7806607e-07
1.7325838e-07
1.6859856e-07
1.640785e-07
1.5969085e-07
1.5542872e-07
1.5128566e-07
1.4725562e-07
1.4333292e-07
1.3951235e-07
1.3578908e-07
1.3215837e-07
1.2861574e-07
1.2515708e-07
1.2177847e-07
1.1847622e-07
1.1524682e-07
1.1208694e-07
1.0899364e-07
1.0596393e-07
1.029949e-07
1.0008391e-07
9.7228394e-08
9.4425929e-08
9.1674174e-08
8.8970924e-08
8.6314164e-08
8.3701806e-08
8.1131883e-08
7.8602536e-08
7.6111954e-08
7.3658341e-08
7.1240037e-08
6.8855446e-08
6.650229e-08
6.4181133e-08
6.1948206e-08
5.9867779e-08
5.7940105e-08
5.6148145e-08
5.4479195e-08
5.2920703e-08
5.1461757e-08
5.0092735e-08
4.8805095e-08
4.7591249e-08
4.6444465e-08
4.5358668e-08
4.4328263e-08
4.3348103e-08
4.2413236e-08
4.1519051e-08
4.0660086e-08
3.9832437e-08
3.9025459e-08
3.8244224e-08
3.7432551e-08
3.6728203e-08
3.5714542e-08
0.0001319843
0.00012400559
0.00012115694
0.00011973123
0.00011883547
0.00011820777
0.00011774299
0.00011738719
0.00011710836
0.00011688589
0.00011670584
0.00011655839
0.00011643645
0.00011633478
0.00011624939
0.00011617728
0.00011611592
0.00011606409
0.00011601833
0.00011598621
0.00011593054
0.00011603946
0.00011528615
0.00011901367
1.7808261e-05
2.5908625e-06
4.9087771e-06
8.6841545e-07
2.5486115e-06
5.4151178e-07
1.7591215e-06
4.1452201e-07
1.348541e-06
1.1338878e-06
1.0901508e-06
9.7239264e-07
9.1076714e-07
8.3860708e-07
7.8361067e-07
7.3223163e-07
6.8780583e-07
6.4784602e-07
6.1206309e-07
5.7974311e-07
5.5041482e-07
5.2367143e-07
4.9917975e-07
4.7666094e-07
4.5588048e-07
4.3664027e-07
4.1877056e-07
4.0212528e-07
3.8657867e-07
3.7202134e-07
3.5835828e-07
3.4550664e-07
3.3339296e-07
3.2195223e-07
3.1112707e-07
3.0086636e-07
2.911244e-07
2.8186047e-07
2.730382e-07
2.6462445e-07
2.5658918e-07
2.4890529e-07
2.4154835e-07
2.3449601e-07
2.2772784e-07
2.2122541e-07
2.1497191e-07
2.089516e-07
2.0315002e-07
1.9755398e-07
1.9215126e-07
1.869306e-07
1.8188152e-07
1.7699432e-07
1.7226033e-07
1.6767121e-07
1.63219e-07
1.5889653e-07
1.5469703e-07
1.5061417e-07
1.4664206e-07
1.427751e-07
1.3900818e-07
1.3533659e-07
1.3175566e-07
1.2826102e-07
1.2484862e-07
1.2151462e-07
1.182554e-07
1.1506751e-07
1.119477e-07
1.0889306e-07
1.0590068e-07
1.0296768e-07
1.0009148e-07
9.7269549e-08
9.449951e-08
9.1779059e-08
8.9106026e-08
8.6478425e-08
8.3894198e-08
8.135141e-08
7.8848232e-08
7.6382877e-08
7.3953577e-08
7.1558693e-08
6.919665e-08
6.6865224e-08
6.4564926e-08
6.2351191e-08
6.0287777e-08
5.8375464e-08
5.6597529e-08
5.4941383e-08
5.3394614e-08
5.194642e-08
5.0587277e-08
4.9308734e-08
4.8103279e-08
4.6964254e-08
4.5885646e-08
4.4861926e-08
4.3888006e-08
4.2959003e-08
4.2070377e-08
4.1216759e-08
4.0394311e-08
3.9592446e-08
3.881614e-08
3.8009546e-08
3.7309941e-08
3.6303275e-08
0.00013185836
0.00012379951
0.00012092067
0.00011947914
0.00011857319
0.00011793826
0.00011746808
0.0001171081
0.00011682596
0.00011660084
0.00011641862
0.00011626937
0.00011614592
0.00011604298
0.00011595649
0.00011588344
0.00011582126
0.00011576872
0.00011572232
0.0001156897
0.0001156333
0.00011574306
0.00011498286
0.00011874731
1.7807098e-05
2.5603322e-06
4.7826025e-06
8.5277878e-07
2.4864612e-06
5.3198956e-07
1.7188853e-06
4.1234346e-07
1.3195933e-06
1.1115933e-06
1.067937e-06
9.5364613e-07
8.9320639e-07
8.2298446e-07
7.6924273e-07
7.191269e-07
6.7574069e-07
6.3671921e-07
6.01763e-07
5.7018169e-07
5.4151672e-07
5.1537173e-07
4.9142247e-07
4.6939737e-07
4.4906805e-07
4.3024151e-07
4.1275238e-07
3.964583e-07
3.812367e-07
3.6698094e-07
3.5359839e-07
3.4100825e-07
3.2913889e-07
3.1792689e-07
3.0731627e-07
2.9725716e-07
2.8770496e-07
2.7861994e-07
2.6996659e-07
2.6171256e-07
2.5382852e-07
2.4628799e-07
2.3906712e-07
2.321441e-07
2.2549897e-07
2.1911371e-07
2.1297191e-07
2.070582e-07
2.0135844e-07
1.9585973e-07
1.9055014e-07
1.8541865e-07
1.8045503e-07
1.7564978e-07
1.7099443e-07
1.6648083e-07
1.621012e-07
1.5784849e-07
1.5371612e-07
1.4969788e-07
1.4578799e-07
1.4198099e-07
1.3827188e-07
1.3465603e-07
1.3112889e-07
1.2768616e-07
1.2432389e-07
1.2103831e-07
1.1782588e-07
1.1468322e-07
1.1160712e-07
1.0859477e-07
1.0564328e-07
1.0274985e-07
9.991193e-08
9.712705e-08
9.4392869e-08
9.1707127e-08
8.9067692e-08
8.647261e-08
8.3919849e-08
8.1407516e-08
7.8933812e-08
7.6496977e-08
7.4095272e-08
7.172708e-08
6.9390853e-08
6.708442e-08
6.4808245e-08
6.2616892e-08
6.0573511e-08
5.867939e-08
5.6918141e-08
5.5277303e-08
5.3744622e-08
5.2309416e-08
5.0962276e-08
4.9694851e-08
4.8499718e-08
4.7370298e-08
4.6300654e-08
4.528533e-08
4.4319305e-08
4.3397776e-08
4.2516274e-08
4.1669516e-08
4.0853707e-08
4.0058313e-08
3.9288249e-08
3.8488106e-08
3.7794426e-08
3.6796025e-08
0.00013169788
0.00012353659
0.00012061918
0.00011915743
0.00011823848
0.00011759431
0.00011711723
0.00011675191
0.00011646556
0.00011623705
0.00011605205
0.0001159005
0.00011577513
0.00011567055
0.00011558268
0.00011550842
0.0001154452
0.00011539174
0.00011534452
0.00011531127
0.00011525395
0.00011536476
0.00011459579
0.00011840747
1.7810769e-05
2.528682e-06
4.6509371e-06
8.3639854e-07
2.421199e-06
5.2187702e-07
1.676431e-06
4.0961346e-07
1.288921e-06
1.0877721e-06
1.0443283e-06
9.3360928e-07
8.7445908e-07
8.0624783e-07
7.5383434e-07
7.0504026e-07
6.6274808e-07
6.2471232e-07
5.9062565e-07
5.5982156e-07
5.3185483e-07
5.0634007e-07
4.8296232e-07
4.6145769e-07
4.4160417e-07
4.2321415e-07
4.0612679e-07
3.9020367e-07
3.7532553e-07
3.6138861e-07
3.483028e-07
3.3598944e-07
3.2437881e-07
3.1340916e-07
3.0302598e-07
2.9318071e-07
2.8382992e-07
2.749349e-07
2.6646106e-07
2.5837686e-07
2.5065373e-07
2.4326582e-07
2.3618993e-07
2.2940478e-07
2.2289091e-07
2.1663076e-07
2.1060831e-07
2.0480859e-07
1.9921778e-07
1.9382332e-07
1.8861356e-07
1.8357775e-07
1.787059e-07
1.7398874e-07
1.6941801e-07
1.6498574e-07
1.6068434e-07
1.5650694e-07
1.5244708e-07
1.4849873e-07
1.4465623e-07
1.4091426e-07
1.372679e-07
1.3371265e-07
1.3024406e-07
1.2685792e-07
1.2355038e-07
1.2031775e-07
1.1715656e-07
1.140635e-07
1.1103545e-07
1.0806964e-07
1.0516325e-07
1.0231354e-07
9.9518018e-08
9.6774252e-08
9.4079953e-08
9.1432907e-08
8.883102e-08
8.6272374e-08
8.3754972e-08
8.1276958e-08
7.8836568e-08
7.6432074e-08
7.4061765e-08
7.1724055e-08
6.941742e-08
6.7139746e-08
6.4891452e-08
6.2726152e-08
6.0706278e-08
5.88336e-08
5.7092087e-08
5.5469427e-08
5.3953538e-08
5.2533881e-08
5.1201171e-08
4.9947169e-08
4.8764557e-08
4.7646844e-08
4.658818e-08
4.5583188e-08
4.4626928e-08
4.3714675e-08
4.2842037e-08
4.2003808e-08
4.1196223e-08
4.0408826e-08
3.9646484e-08
3.8854337e-08
3.8167915e-08
3.7179385e-08
0.00013149929
0.0001232107
0.00012024535
0.0001187585
0.00011782339
0.00011716776
0.0001166821
0.00011631016
0.00011601858
0.00011578585
0.0001155974
0.000115443
0.00011531524
0.00011520864
0.00011511904
0.00011504329
0.00011497877
0.00011492419
0.00011487594
0.00011484191
0.00011478344
0.00011489556
0.00011411575
0.00011798621
1.7820251e-05
2.4957165e-06
4.5126616e-06
8.1913856e-07
2.35221e-06
5.1106126e-07
1.6313303e-06
4.062003e-07
1.2561976e-06
1.0621533e-06
1.0190629e-06
9.1204959e-07
8.5430719e-07
7.8819705e-07
7.3719843e-07
6.8979715e-07
6.4866409e-07
6.1167099e-07
5.7850517e-07
5.4852452e-07
5.2129788e-07
4.9645143e-07
4.7368002e-07
4.5272784e-07
4.333796e-07
4.1545337e-07
3.987931e-07
3.8326449e-07
3.6875181e-07
3.5515433e-07
3.4238458e-07
3.3036618e-07
3.190314e-07
3.0832029e-07
2.9817988e-07
2.8856299e-07
2.7942742e-07
2.7073555e-07
2.6245374e-07
2.5455134e-07
2.4700056e-07
2.3977625e-07
2.3285584e-07
2.2621866e-07
2.1984577e-07
2.1372007e-07
2.0782599e-07
2.0214895e-07
1.9667551e-07
1.9139343e-07
1.8629136e-07
1.8135886e-07
1.7658619e-07
1.7196432e-07
1.6748519e-07
1.6314105e-07
1.5892452e-07
1.5482888e-07
1.5084786e-07
1.4697556e-07
1.4320647e-07
1.3953539e-07
1.3595755e-07
1.3246855e-07
1.2906405e-07
1.2573994e-07
1.2249246e-07
1.1931801e-07
1.1621322e-07
1.1317484e-07
1.1019984e-07
1.072855e-07
1.0442908e-07
1.0162789e-07
9.8879498e-08
9.618153e-08
9.3531746e-08
9.0927979e-08
8.8368181e-08
8.5850474e-08
8.3372892e-08
8.0933628e-08
7.8530951e-08
7.616317e-08
7.3828606e-08
7.1525704e-08
6.9252971e-08
6.7008352e-08
6.4792222e-08
6.2657153e-08
6.0664735e-08
5.8817198e-08
5.7098887e-08
5.5497662e-08
5.4001637e-08
5.2600428e-08
5.1284894e-08
5.0046927e-08
4.887932e-08
4.7775686e-08
4.6730271e-08
4.5737789e-08
4.4793383e-08
4.3892415e-08
4.303057e-08
4.2202712e-08
4.1405112e-08
4.0627422e-08
3.9874464e-08
3.9092047e-08
3.8414376e-08
3.7437662e-08
0.0001312585
0.00012281474
0.00011979096
0.00011827352
0.00011731874
0.00011664914
0.00011615304
0.00011577304
0.00011547509
0.00011523723
0.00011504459
0.00011488671
0.00011475604
0.00011464698
0.00011455527
0.00011447771
0.0001144116
0.00011435565
0.00011430616
0.00011427117
0.00011421131
0.00011432501
0.00011353206
0.00011747432
1.783684e-05
2.461283e-06
4.3667741e-06
8.0087249e-07
2.2789232e-06
4.9943256e-07
1.5831776e-06
4.0196325e-07
1.2211095e-06
1.0344739e-06
9.9188762e-07
8.8874031e-07
8.3253804e-07
7.6863593e-07
7.1915125e-07
6.7322557e-07
6.3332674e-07
5.9744232e-07
5.6525674e-07
5.3615302e-07
5.0971485e-07
4.8558079e-07
4.6345603e-07
4.4309328e-07
4.2428443e-07
4.0685351e-07
3.9064959e-07
3.7554272e-07
3.614209e-07
3.4818665e-07
3.3575527e-07
3.240528e-07
3.1301367e-07
3.0257977e-07
2.926998e-07
2.8332804e-07
2.7442361e-07
2.6595002e-07
2.5787468e-07
2.5016787e-07
2.4280261e-07
2.357545e-07
2.2900167e-07
2.2252407e-07
2.1630331e-07
2.103228e-07
2.0456745e-07
1.9902307e-07
1.9367663e-07
1.8851626e-07
1.8353092e-07
1.7871048e-07
1.7404546e-07
1.6952711e-07
1.6514759e-07
1.6089938e-07
1.5677529e-07
1.527688e-07
1.4887382e-07
1.4508459e-07
1.4139578e-07
1.3780233e-07
1.3429958e-07
1.3088327e-07
1.2754916e-07
1.2429327e-07
1.2111194e-07
1.1800165e-07
1.1495912e-07
1.119812e-07
1.0906492e-07
1.0620765e-07
1.0340672e-07
1.006595e-07
9.7963612e-08
9.5316754e-08
9.2716736e-08
9.0161443e-08
8.7648877e-08
8.5177201e-08
8.274449e-08
8.0348985e-08
7.7988995e-08
7.5662865e-08
7.3368957e-08
7.1105747e-08
6.8871776e-08
6.6665054e-08
6.4485913e-08
6.2385782e-08
6.042527e-08
5.8607035e-08
5.6915825e-08
5.5339699e-08
5.3866986e-08
5.2487482e-08
5.1192208e-08
4.99732e-08
4.8823381e-08
4.7736479e-08
4.6706847e-08
4.5729298e-08
4.4799069e-08
4.3911612e-08
4.3062687e-08
4.2247238e-08
4.1461577e-08
4.0695501e-08
3.9953779e-08
3.9183026e-08
3.851577e-08
3.7553144e-08
0.00013097095
0.00012234069
0.0001192467
0.00011769252
0.00011671412
0.00011602775
0.00011551911
0.00011512944
0.00011482384
0.00011457983
0.00011438215
0.00011422011
0.00011408595
0.00011397393
0.00011387969
0.00011379995
0.00011373195
0.00011367435
0.00011362337
0.00011358724
0.0001135257
0.0001136413
0.00011283265
0.00011686146
1.7862201e-05
2.4252798e-06
4.2124123e-06
7.8148572e-07
2.200822e-06
4.8688597e-07
1.5315969e-06
3.9675423e-07
1.1833617e-06
1.0044829e-06
9.6256172e-07
8.6346399e-07
8.0894752e-07
7.4737528e-07
6.9951513e-07
6.5515868e-07
6.1657854e-07
5.8187724e-07
5.5073878e-07
5.2257227e-07
4.9697715e-07
4.7360516e-07
4.5217246e-07
4.3244087e-07
4.1420985e-07
3.9730979e-07
3.815952e-07
3.6694077e-07
3.5323848e-07
3.4039427e-07
3.283264e-07
3.1696352e-07
3.0624231e-07
2.9610667e-07
2.8650707e-07
2.7739932e-07
2.6874396e-07
2.6050572e-07
2.5265311e-07
2.4515739e-07
2.3799248e-07
2.3113478e-07
2.2456314e-07
2.1825817e-07
2.122021e-07
2.0637888e-07
2.0077388e-07
1.953734e-07
1.9016481e-07
1.8513662e-07
1.8027816e-07
1.755796e-07
1.7103177e-07
1.666262e-07
1.6235528e-07
1.5821174e-07
1.541886e-07
1.5027956e-07
1.4647869e-07
1.4278044e-07
1.3917961e-07
1.3567132e-07
1.3225104e-07
1.2891463e-07
1.25658e-07
1.2247726e-07
1.1936888e-07
1.1632943e-07
1.1335574e-07
1.1044474e-07
1.0759356e-07
1.0479962e-07
1.0206035e-07
9.9373189e-08
9.6735824e-08
9.4146014e-08
9.1601631e-08
8.9100618e-08
8.664103e-08
8.4221076e-08
8.1838875e-08
7.9492722e-08
7.7180968e-08
7.4902003e-08
7.2654226e-08
7.0436156e-08
6.8246368e-08
6.608294e-08
6.3946166e-08
6.1886217e-08
5.9962567e-08
5.8178269e-08
5.6518502e-08
5.4971551e-08
5.3525987e-08
5.2171809e-08
5.090022e-08
4.9703418e-08
4.8574473e-08
4.7507241e-08
4.6496194e-08
4.5536256e-08
4.4622762e-08
4.3751262e-08
4.2917598e-08
4.2116799e-08
4.1345236e-08
4.0592882e-08
3.9864448e-08
3.9107497e-08
3.8452494e-08
3.7506551e-08
0.00013063167
0.00012177969
0.00011860225
0.00011700442
0.00011599796
0.00011529169
0.00011476817
0.00011436702
0.00011405234
0.00011380102
0.00011359738
0.00011343039
0.00011329208
0.00011317655
0.00011307932
0.000112997
0.00011292674
0.00011286719
0.00011281444
0.00011277695
0.00011271344
0.00011283127
0.0001120041
0.0001161361
1.7898409e-05
2.3876689e-06
4.0488839e-06
7.6087797e-07
2.1174589e-06
4.7332349e-07
1.4762522e-06
3.9042071e-07
1.1426849e-06
9.7194729e-07
9.3086246e-07
8.3601763e-07
7.8334474e-07
7.2423723e-07
6.7812259e-07
6.3543863e-07
5.9827001e-07
5.6483385e-07
5.3481622e-07
5.0765336e-07
4.8296145e-07
4.6040633e-07
4.3971584e-07
4.2066143e-07
4.0305067e-07
3.8672073e-07
3.7153191e-07
3.5736382e-07
3.441127e-07
3.3168814e-07
3.200116e-07
3.0901444e-07
2.9863577e-07
2.8882166e-07
2.7952442e-07
2.7070156e-07
2.6231509e-07
2.5433106e-07
2.4671913e-07
2.3945165e-07
2.325035e-07
2.2585188e-07
2.1947647e-07
2.1335859e-07
2.0748108e-07
2.0182849e-07
1.9638671e-07
1.9114254e-07
1.8608379e-07
1.8119937e-07
1.7647899e-07
1.7191317e-07
1.6749306e-07
1.6321048e-07
1.590581e-07
1.5502888e-07
1.5111609e-07
1.4731365e-07
1.4361583e-07
1.4001726e-07
1.3651294e-07
1.3309813e-07
1.2976845e-07
1.2651992e-07
1.2334857e-07
1.2025065e-07
1.1722272e-07
1.1426151e-07
1.113639e-07
1.0852696e-07
1.0574789e-07
1.030242e-07
1.003534e-07
9.7733024e-08
9.5160814e-08
9.2634603e-08
9.015233e-08
8.7712001e-08
8.5311726e-08
8.294977e-08
8.0624298e-08
7.8333663e-08
7.6076265e-08
7.385054e-08
7.1654934e-08
6.9488006e-08
6.7348374e-08
6.5234188e-08
6.3145705e-08
6.1131717e-08
5.9250392e-08
5.7505138e-08
5.5881597e-08
5.4368309e-08
5.2954115e-08
5.1629246e-08
5.0385106e-08
4.9214078e-08
4.8109394e-08
4.7065053e-08
4.6075661e-08
4.513626e-08
4.4242297e-08
4.3389424e-08
4.2573573e-08
4.1789876e-08
4.1034776e-08
4.0298459e-08
3.9585559e-08
3.8844753e-08
3.8204019e-08
3.7277658e-08
0.00013023531
0.00012112204
0.00011784628
0.00011619706
0.00011515759
0.00011442789
0.00011388688
0.00011347222
0.00011314687
0.00011288696
0.00011267629
0.00011250349
0.00011236032
0.00011224066
0.0001121399
0.00011205454
0.00011198164
0.00011191979
0.00011186497
0.00011182588
0.00011176004
0.0001118805
0.00011103168
0.00011528568
1.7948005e-05
2.3484912e-06
3.8757047e-06
7.3896655e-07
2.0284751e-06
4.58657e-07
1.4168595e-06
3.8280988e-07
1.0988445e-06
9.366605e-07
8.9659243e-07
8.0621934e-07
7.5555815e-07
6.9906091e-07
6.5482152e-07
6.1392148e-07
5.7826439e-07
5.4618188e-07
5.1736463e-07
4.9127719e-07
4.6755353e-07
4.4587456e-07
4.259805e-07
4.0765312e-07
3.9070858e-07
3.7499129e-07
3.6036771e-07
3.4672273e-07
3.3395709e-07
3.2198432e-07
3.1072924e-07
3.0012615e-07
2.9011677e-07
2.8064943e-07
2.7167845e-07
2.6316313e-07
2.5506707e-07
2.4735773e-07
2.4000602e-07
2.3298541e-07
2.262718e-07
2.1984333e-07
2.136805e-07
2.0776538e-07
2.0208153e-07
1.9661408e-07
1.9134951e-07
1.8627513e-07
1.8137924e-07
1.7665118e-07
1.7208107e-07
1.676598e-07
1.6337886e-07
1.5923039e-07
1.5520734e-07
1.5130294e-07
1.4751074e-07
1.4382486e-07
1.402398e-07
1.367504e-07
1.3335183e-07
1.3003955e-07
1.2680934e-07
1.2365735e-07
1.2057977e-07
1.17573e-07
1.1463372e-07
1.1175876e-07
1.0894514e-07
1.0619001e-07
1.0349069e-07
1.0084478e-07
9.8249877e-08
9.5703591e-08
9.3203756e-08
9.0748276e-08
8.833516e-08
8.5962483e-08
8.3628422e-08
8.1331294e-08
7.9069322e-08
7.6840919e-08
7.464454e-08
7.247867e-08
7.0341809e-08
6.823256e-08
6.6149589e-08
6.4091121e-08
6.2057381e-08
6.0095647e-08
5.8262598e-08
5.6561951e-08
5.4979842e-08
5.3505101e-08
5.2126872e-08
5.0835641e-08
4.9623043e-08
4.8481664e-08
4.7404916e-08
4.6386961e-08
4.5422548e-08
4.4506854e-08
4.3635444e-08
4.2804086e-08
4.2008813e-08
4.1244875e-08
4.0508804e-08
3.9791035e-08
3.9096108e-08
3.8373991e-08
3.7749707e-08
3.6846117e-08
0.00012977624
0.0001203573
0.00011696656
0.00011525729
0.00011417927
0.00011342223
0.00011286079
0.00011243037
0.00011209257
0.00011182264
0.00011160378
0.0001114242
0.00011127534
0.00011115088
0.00011104601
0.00011095711
0.00011088112
0.00011081659
0.00011075935
0.0001107184
0.00011064986
0.00011077335
0.00010989944
0.00011429665
1.8014038e-05
2.3078868e-06
3.692644e-06
7.1569038e-07
1.9336238e-06
4.4281188e-07
1.3532034e-06
3.7377421e-07
1.051653e-06
8.9845227e-07
8.5958888e-07
7.7391674e-07
7.2544326e-07
6.7170963e-07
6.2948193e-07
5.9048346e-07
5.5644344e-07
5.2580819e-07
4.982755e-07
4.733395e-07
4.5065306e-07
4.2991312e-07
4.1087308e-07
3.9332566e-07
3.7709619e-07
3.6203678e-07
3.4802044e-07
3.349377e-07
3.2269409e-07
3.1120734e-07
3.0040584e-07
2.9022707e-07
2.8061547e-07
2.7152183e-07
2.6290262e-07
2.5471903e-07
2.4693636e-07
2.3952357e-07
2.3245291e-07
2.2569907e-07
2.1923905e-07
2.1305194e-07
2.0711916e-07
2.0142359e-07
1.9594951e-07
1.9068273e-07
1.8561032e-07
1.8072017e-07
1.7600107e-07
1.7144285e-07
1.6703606e-07
1.6277197e-07
1.5864247e-07
1.5464001e-07
1.5075785e-07
1.4698953e-07
1.4332885e-07
1.397702e-07
1.3630831e-07
1.3293823e-07
1.2965535e-07
1.2645529e-07
1.2333404e-07
1.2028789e-07
1.1731321e-07
1.1440651e-07
1.1156464e-07
1.0878455e-07
1.0606338e-07
1.033984e-07
1.0078703e-07
9.8226977e-08
9.5715924e-08
9.3251586e-08
9.0831877e-08
8.8454784e-08
8.6118394e-08
8.3820856e-08
8.1560416e-08
7.9335456e-08
7.7144258e-08
7.4985302e-08
7.2857102e-08
7.0758199e-08
6.8687148e-08
6.6642606e-08
6.4623288e-08
6.2627501e-08
6.0655442e-08
5.8752731e-08
5.6974358e-08
5.5324301e-08
5.3789224e-08
5.2358281e-08
5.1020953e-08
4.9768014e-08
4.8591351e-08
4.7483779e-08
4.6438911e-08
4.5451086e-08
4.4515214e-08
4.3626619e-08
4.2780997e-08
4.1974245e-08
4.1202511e-08
4.0461182e-08
3.9746895e-08
3.9050368e-08
3.837603e-08
3.7675327e-08
3.7069832e-08
3.6192465e-08
0.00012924863
0.00011947439
0.00011595006
0.00011417107
0.00011304833
0.00011225958
0.00011167447
0.00011122579
0.00011087356
0.00011059202
0.00011036368
0.00011017624
0.0001100208
0.00010989077
0.00010978113
0.00010968813
0.00010960857
0.00010954094
0.0001094809
0.00010943779
0.00010936614
0.00010949313
0.00010859034
0.00011315454
1.8100111e-05
2.2661207e-06
3.4997767e-06
6.9101476e-07
1.8327983e-06
4.2573143e-07
1.2851561e-06
3.6317853e-07
1.0009843e-06
8.5720077e-07
8.19735e-07
7.389972e-07
6.9289203e-07
6.4207955e-07
6.0200399e-07
5.6502854e-07
5.3271465e-07
5.0362353e-07
4.7746264e-07
4.5375696e-07
4.3217934e-07
4.1244382e-07
3.9431773e-07
3.7760543e-07
3.6214196e-07
3.477876e-07
3.3442235e-07
3.2194271e-07
3.1025935e-07
2.992944e-07
2.8898011e-07
2.7925728e-07
2.7007333e-07
2.6138161e-07
2.5314089e-07
2.4531438e-07
2.378692e-07
2.3077591e-07
2.2400818e-07
2.1754201e-07
2.1135556e-07
2.0542896e-07
1.9974458e-07
1.9428618e-07
1.8903883e-07
1.8398905e-07
1.7912454e-07
1.7443379e-07
1.6990616e-07
1.6553197e-07
1.6130222e-07
1.5720863e-07
1.5324347e-07
1.4939956e-07
1.4567049e-07
1.4205009e-07
1.3853249e-07
1.3511232e-07
1.3178457e-07
1.2854453e-07
1.253878e-07
1.2231021e-07
1.1930794e-07
1.1637745e-07
1.1351527e-07
1.1071809e-07
1.0798289e-07
1.0530677e-07
1.02687e-07
1.0012097e-07
9.7606218e-08
9.514056e-08
9.2721779e-08
9.0347696e-08
8.8016314e-08
8.5725711e-08
8.3474057e-08
8.1259583e-08
7.9080611e-08
7.693559e-08
7.4822871e-08
7.2741006e-08
7.0688571e-08
6.8664172e-08
6.6666422e-08
6.4694038e-08
6.2745788e-08
6.0820067e-08
5.8917046e-08
5.708054e-08
5.5363638e-08
5.377052e-08
5.2288414e-08
5.0906839e-08
4.9615647e-08
4.8405929e-08
4.7269857e-08
4.6200496e-08
4.5191681e-08
4.4237948e-08
4.3334383e-08
4.2476473e-08
4.1660061e-08
4.0881184e-08
4.0136123e-08
3.9420421e-08
3.8730834e-08
3.8058404e-08
3.7407424e-08
3.6731024e-08
3.614679e-08
3.5299321e-08
0.00012864655
0.00011846168
0.00011478302
0.00011292358
0.00011174927
0.000110924
0.00011031161
0.0001098419
0.00010947306
0.00010917815
0.00010893889
0.00010874241
0.00010857939
0.00010844295
0.00010832784
0.00010823012
0.00010814645
0.00010807524
0.00010801198
0.0001079664
0.00010789117
0.00010802216
0.00010708636
0.00011184409
1.8210396e-05
2.2236147e-06
3.2975397e-06
6.6493699e-07
1.7260638e-06
4.0738192e-07
1.2126999e-06
3.509084e-07
9.467902e-07
8.1284681e-07
7.7697315e-07
7.0139975e-07
6.5784393e-07
6.1010995e-07
5.7232761e-07
5.3749738e-07
5.0701958e-07
4.7957048e-07
4.5486968e-07
4.3247428e-07
4.1207822e-07
3.9341358e-07
3.7626245e-07
3.6044146e-07
3.4579594e-07
3.3219482e-07
3.1952549e-07
3.0769076e-07
2.9660674e-07
2.8620026e-07
2.7640765e-07
2.6717324e-07
2.5844756e-07
2.5018675e-07
2.4235199e-07
2.3490864e-07
2.2782574e-07
2.2107556e-07
2.1463329e-07
2.0847631e-07
2.0258401e-07
1.9693766e-07
1.9152063e-07
1.863176e-07
1.8131448e-07
1.7649854e-07
1.7185818e-07
1.6738253e-07
1.6306152e-07
1.5888602e-07
1.5484753e-07
1.5093821e-07
1.4715074e-07
1.4347836e-07
1.3991499e-07
1.3645481e-07
1.3309224e-07
1.2982221e-07
1.2663998e-07
1.2354109e-07
1.2052137e-07
1.1757688e-07
1.1470398e-07
1.1189933e-07
1.0915965e-07
1.0648179e-07
1.038629e-07
1.013002e-07
9.879113e-08
9.6333205e-08
9.3924088e-08
9.1561708e-08
8.9243962e-08
8.6968779e-08
8.4734263e-08
8.2538588e-08
8.0380015e-08
7.8256863e-08
7.6167536e-08
7.4110557e-08
7.2084353e-08
7.0087551e-08
6.8118798e-08
6.6176766e-08
6.4260137e-08
6.2367688e-08
6.049825e-08
5.8650307e-08
5.6824012e-08
5.5061216e-08
5.3412887e-08
5.1883345e-08
5.0460417e-08
4.9134029e-08
4.7894439e-08
4.6733091e-08
4.5642469e-08
4.4615912e-08
4.3647503e-08
4.2731992e-08
4.1864662e-08
4.1041175e-08
4.0257537e-08
3.9509946e-08
3.8794828e-08
3.8107904e-08
3.7446062e-08
3.6800708e-08
3.6175976e-08
3.5526892e-08
3.4966498e-08
3.4152776e-08
0.00012796419
0.00011730717
0.00011345116
0.00011149941
0.00011026597
0.00010939884
0.00010875523
0.00010826143
0.00010787357
0.00010756337
0.00010731161
0.00010710479
0.00010693311
0.00010678934
0.00010666796
0.00010656484
0.00010647646
0.00010640118
0.00010633424
0.00010628582
0.00010620652
0.00010634206
0.00010536879
0.00011034942
1.8349628e-05
2.180988e-06
3.0867885e-06
6.3749258e-07
1.6136919e-06
3.8775836e-07
1.1359513e-06
3.3687991e-07
8.8911996e-07
7.6540988e-07
7.3131993e-07
6.6112874e-07
6.2029859e-07
5.7579493e-07
5.4044335e-07
5.078776e-07
4.7934354e-07
4.5363255e-07
4.3047871e-07
4.0947246e-07
3.9032981e-07
3.7280188e-07
3.566862e-07
3.4181234e-07
3.2803645e-07
3.1523656e-07
3.0330783e-07
2.9215976e-07
2.8171416e-07
2.7190284e-07
2.6266641e-07
2.5395295e-07