/*--------------------------------*- C++ -*----------------------------------*\
| =========                 |                                                 |
| \\      /  F ield         | OpenFOAM: The Open Source CFD Toolbox           |
|  \\    /   O peration     | Version:  2206                                  |
|   \\  /    A nd           | Website:  www.openfoam.com                      |
|    \\/     M anipulation  |                                                 |
\*---------------------------------------------------------------------------*/
FoamFile
{
    version     2.0;
    format      ascii;
    arch        "LSB;label=32;scalar=64";
    class       volScalarField;
    location    "1200";
    object      nut;
}
// * * * * * * * * * * * * * * * * * * * * * * * * * * * * * * * * * * * * * //

dimensions      [0 2 -1 0 0 0 0];

internalField   nonuniform List<scalar> 
13056
(
6.561323e-09
5.864344e-09
5.6378104e-09
5.5263499e-09
5.4564397e-09
5.4076213e-09
5.37161e-09
5.3441165e-09
5.3226005e-09
5.3054331e-09
5.2915128e-09
5.2800639e-09
5.2705194e-09
5.2624501e-09
5.2555119e-09
5.2494215e-09
5.2438789e-09
5.2386697e-09
5.2330563e-09
5.2275311e-09
5.2158962e-09
5.2129098e-09
5.1326722e-09
4.2394846e-09
3.1740394e-11
1.2359255e-11
1.7431603e-11
7.2306648e-12
1.2524105e-11
5.7011262e-12
1.0373471e-11
4.8682697e-12
9.0574333e-12
8.2734846e-12
8.1265753e-12
7.6569772e-12
7.4114568e-12
7.1018599e-12
6.8612254e-12
6.6263873e-12
6.417581e-12
6.2236293e-12
6.044962e-12
5.8790737e-12
5.7245208e-12
5.5799945e-12
5.4443921e-12
5.3167715e-12
5.1963229e-12
5.0823503e-12
4.9742432e-12
4.8714655e-12
4.7735478e-12
4.6800737e-12
4.5906761e-12
4.5050306e-12
4.4228434e-12
4.3438497e-12
4.2678131e-12
4.1945193e-12
4.1237735e-12
4.0554004e-12
3.9892421e-12
3.925151e-12
3.8629917e-12
3.8026408e-12
3.7439851e-12
3.6869194e-12
3.6313463e-12
3.5771776e-12
3.524332e-12
3.4727312e-12
3.4223021e-12
3.3729778e-12
3.3246949e-12
3.2773947e-12
3.2310211e-12
3.1855217e-12
3.1408503e-12
3.0969605e-12
3.0538065e-12
3.0113473e-12
2.9695433e-12
2.9283569e-12
2.8877522e-12
2.8476944e-12
2.8081518e-12
2.7690945e-12
2.7304915e-12
2.6923128e-12
2.6545309e-12
2.6171182e-12
2.5800486e-12
2.5432956e-12
2.5068342e-12
2.4706419e-12
2.4346942e-12
2.3989661e-12
2.3634347e-12
2.3280763e-12
2.2928679e-12
2.2577859e-12
2.222807e-12
2.1879092e-12
2.1530683e-12
2.1182594e-12
2.0834581e-12
2.0486389e-12
2.0137749e-12
1.9788391e-12
1.9438037e-12
1.9086275e-12
1.8733134e-12
1.8387479e-12
1.8059941e-12
1.7751285e-12
1.7459621e-12
1.7183684e-12
1.6922094e-12
1.6673634e-12
1.6437209e-12
1.6211822e-12
1.5996568e-12
1.5790631e-12
1.5593254e-12
1.5403717e-12
1.5221337e-12
1.504542e-12
1.4875302e-12
1.47101e-12
1.4549208e-12
1.4390557e-12
1.4235077e-12
1.4071748e-12
1.3928253e-12
1.3717782e-12
6.5612642e-09
5.8635464e-09
5.6367676e-09
5.5251827e-09
5.4551934e-09
5.4063194e-09
5.370267e-09
5.3427422e-09
5.3212018e-09
5.3040153e-09
5.2900799e-09
5.2786192e-09
5.2690658e-09
5.2609903e-09
5.2540487e-09
5.2479579e-09
5.242419e-09
5.2372187e-09
5.2316246e-09
5.2261293e-09
5.2145717e-09
5.2116848e-09
5.131923e-09
4.2388667e-09
3.2300069e-11
1.2208907e-11
1.698674e-11
7.0661738e-12
1.2199703e-11
5.5291526e-12
1.0108975e-11
4.6641041e-12
8.830046e-12
8.07127e-12
7.922918e-12
7.466831e-12
7.2250589e-12
6.9230156e-12
6.6868728e-12
6.4567912e-12
6.2517502e-12
6.0611762e-12
5.8853954e-12
5.7220046e-12
5.5696056e-12
5.4269277e-12
5.292903e-12
5.1666179e-12
5.0472871e-12
4.9342354e-12
4.8268705e-12
4.7246717e-12
4.6271833e-12
4.5340004e-12
4.4447664e-12
4.359166e-12
4.2769132e-12
4.1977504e-12
4.1214471e-12
4.0477948e-12
3.9766031e-12
3.9077013e-12
3.840935e-12
3.7761603e-12
3.7132445e-12
3.652067e-12
3.5925167e-12
3.5344904e-12
3.4778925e-12
3.4226361e-12
3.3686412e-12
3.3158305e-12
3.2641316e-12
3.2134783e-12
3.1638077e-12
3.1150613e-12
3.067183e-12
3.0201205e-12
2.9738273e-12
2.9282568e-12
2.8833626e-12
2.8391029e-12
2.7954377e-12
2.752328e-12
2.7097371e-12
2.6676288e-12
2.6259701e-12
2.5847295e-12
2.5438744e-12
2.503373e-12
2.4631955e-12
2.4233121e-12
2.3836942e-12
2.344313e-12
2.3051402e-12
2.2661504e-12
2.2273158e-12
2.1886079e-12
2.1499997e-12
2.1114638e-12
2.0729723e-12
2.034497e-12
1.9960095e-12
1.9574824e-12
1.9188859e-12
1.8801885e-12
1.8413588e-12
1.8023639e-12
1.7631687e-12
1.7237378e-12
1.6840341e-12
1.6440036e-12
1.6036452e-12
1.5639654e-12
1.5261956e-12
1.4904468e-12
1.4565236e-12
1.4243015e-12
1.393639e-12
1.3644112e-12
1.3365042e-12
1.3098139e-12
1.2842451e-12
1.2597114e-12
1.2361319e-12
1.2134289e-12
1.1915277e-12
1.1703511e-12
1.149824e-12
1.1298443e-12
1.1103405e-12
1.0910693e-12
1.0721657e-12
1.0522771e-12
1.0347519e-12
1.0091832e-12
6.5610329e-09
5.861054e-09
5.63353e-09
5.5215671e-09
5.451337e-09
5.4022937e-09
5.3661159e-09
5.3384951e-09
5.3168796e-09
5.2996332e-09
5.2856497e-09
5.2741501e-09
5.2645654e-09
5.2564649e-09
5.2495043e-09
5.2434003e-09
5.2378549e-09
5.232656e-09
5.2270771e-09
5.2216122e-09
5.2101416e-09
5.2073865e-09
5.1281677e-09
4.2367927e-09
3.2889151e-11
1.2058609e-11
1.6544101e-11
6.9017709e-12
1.1875781e-11
5.3587025e-12
9.8443366e-12
4.4722519e-12
8.6022484e-12
7.8682032e-12
7.7188385e-12
7.2760753e-12
7.0382373e-12
6.743719e-12
6.5121688e-12
6.2869013e-12
6.085719e-12
5.8986187e-12
5.7258348e-12
5.5650622e-12
5.4149483e-12
5.2742607e-12
5.141966e-12
5.0171793e-12
4.8991399e-12
4.7871933e-12
4.6807655e-12
4.5793516e-12
4.4825096e-12
4.3898466e-12
4.3010166e-12
4.2157135e-12
4.1336598e-12
4.0546051e-12
3.9783255e-12
3.9046183e-12
3.8332985e-12
3.7641998e-12
3.6971724e-12
3.632076e-12
3.5687815e-12
3.5071717e-12
3.4471382e-12
3.3885805e-12
3.3314052e-12
3.2755277e-12
3.2208701e-12
3.1673568e-12
3.1149171e-12
3.0634865e-12
3.0130034e-12
2.9634107e-12
2.9146535e-12
2.8666806e-12
2.8194467e-12
2.7729062e-12
2.7270138e-12
2.6817284e-12
2.6370109e-12
2.5928233e-12
2.5491295e-12
2.5058944e-12
2.4630854e-12
2.4206724e-12
2.3786232e-12
2.3369068e-12
2.2954945e-12
2.2543574e-12
2.2134678e-12
2.1727979e-12
2.1323206e-12
2.0920116e-12
2.0518447e-12
2.0117926e-12
1.9718301e-12
1.9319316e-12
1.8920713e-12
1.8522233e-12
1.8123617e-12
1.7724624e-12
1.7324988e-12
1.6924432e-12
1.6522684e-12
1.6119466e-12
1.5714481e-12
1.5307439e-12
1.4898043e-12
1.4485834e-12
1.4070912e-12
1.3663643e-12
1.3276669e-12
1.2911152e-12
1.2565072e-12
1.2237119e-12
1.1925812e-12
1.1629834e-12
1.1347984e-12
1.107916e-12
1.0822355e-12
1.0576653e-12
1.0341197e-12
1.0115166e-12
9.8977761e-13
9.688221e-13
9.4857235e-13
9.2892589e-13
9.0981075e-13
8.9099416e-13
8.7260532e-13
8.533309e-13
8.36411e-13
8.1191061e-13
6.5606278e-09
5.8567894e-09
5.6279956e-09
5.5153887e-09
5.4447485e-09
5.3954166e-09
5.3590249e-09
5.3312403e-09
5.3094963e-09
5.2921473e-09
5.2780808e-09
5.2665135e-09
5.2568733e-09
5.2487276e-09
5.2417307e-09
5.2355987e-09
5.2300341e-09
5.2248259e-09
5.219253e-09
5.2138121e-09
5.2024224e-09
5.1998136e-09
5.1211075e-09
4.2331005e-09
3.3519109e-11
1.1906931e-11
1.6098292e-11
6.736043e-12
1.1548423e-11
5.1884938e-12
9.576404e-12
4.290555e-12
8.371397e-12
7.6619949e-12
7.5120491e-12
7.0826173e-12
6.8489712e-12
6.5620691e-12
6.335293e-12
6.114981e-12
5.9178215e-12
5.7343561e-12
5.5647376e-12
5.4067564e-12
5.259106e-12
5.1205929e-12
4.9902185e-12
4.8671268e-12
4.7505818e-12
4.6399503e-12
4.5346768e-12
4.4342723e-12
4.3383088e-12
4.2464057e-12
4.1582279e-12
4.0734788e-12
3.9918894e-12
3.913217e-12
3.8372446e-12
3.7637756e-12
3.6926304e-12
3.6236479e-12
3.5566827e-12
3.4915989e-12
3.4282712e-12
3.3665858e-12
3.3064376e-12
3.2477291e-12
3.1903697e-12
3.1342774e-12
3.0793767e-12
3.0255943e-12
2.9728617e-12
2.9211163e-12
2.8702986e-12
2.8203531e-12
2.771227e-12
2.7228706e-12
2.6752405e-12
2.6282925e-12
2.581983e-12
2.5362727e-12
2.4911238e-12
2.4465001e-12
2.4023669e-12
2.3586909e-12
2.3154411e-12
2.2725891e-12
2.2301045e-12
2.1879582e-12
2.1461231e-12
2.1045725e-12
2.0632807e-12
2.0222221e-12
1.9813719e-12
1.9407084e-12
1.9002078e-12
1.8598458e-12
1.8196003e-12
1.7794486e-12
1.7393688e-12
1.6993385e-12
1.6593362e-12
1.619342e-12
1.5793344e-12
1.5392908e-12
1.49919e-12
1.4590103e-12
1.418729e-12
1.3783249e-12
1.3377765e-12
1.2970474e-12
1.256157e-12
1.216126e-12
1.1781911e-12
1.1424623e-12
1.1087333e-12
1.0768655e-12
1.0467053e-12
1.0181153e-12
9.9097079e-13
9.6515717e-13
9.4057001e-13
9.1711441e-13
8.9470204e-13
8.732487e-13
8.5267444e-13
8.3289831e-13
8.1384291e-13
7.9540923e-13
7.7752789e-13
7.5998152e-13
7.4288543e-13
7.2502122e-13
7.0939128e-13
6.868759e-13
6.5600479e-09
5.8506322e-09
5.6200057e-09
5.5064696e-09
5.4352376e-09
5.3854894e-09
5.3487892e-09
5.3207681e-09
5.2988384e-09
5.281341e-09
5.2671542e-09
5.2554883e-09
5.245767e-09
5.2375543e-09
5.2305026e-09
5.2243269e-09
5.2187296e-09
5.2135005e-09
5.207924e-09
5.2025005e-09
5.1911855e-09
5.1887383e-09
5.110516e-09
4.2276716e-09
3.420194e-11
1.1752595e-11
1.5644415e-11
6.5677084e-12
1.1214024e-11
5.0173753e-12
9.3022569e-12
4.1170625e-12
8.135032e-12
7.4505015e-12
7.3004185e-12
6.8845018e-12
6.6553765e-12
6.3762916e-12
6.1545482e-12
5.9394119e-12
5.7465063e-12
5.5668988e-12
5.4006697e-12
5.2457033e-12
5.1007404e-12
4.9646271e-12
4.8364001e-12
4.715233e-12
4.600415e-12
4.4913346e-12
4.3874549e-12
4.2883036e-12
4.1934667e-12
4.1025765e-12
4.0153088e-12
3.9313768e-12
3.8505205e-12
3.7725049e-12
3.6971202e-12
3.624176e-12
3.5534986e-12
3.4849321e-12
3.4183359e-12
3.3535785e-12
3.2905385e-12
3.229106e-12
3.1691793e-12
3.1106642e-12
3.0534729e-12
2.9975262e-12
2.9427513e-12
2.8890774e-12
2.8364384e-12
2.7847738e-12
2.7340263e-12
2.6841426e-12
2.6350717e-12
2.586766e-12
2.5391839e-12
2.4922832e-12
2.4460219e-12
2.4003627e-12
2.3552696e-12
2.3107082e-12
2.2666456e-12
2.2230503e-12
2.1798933e-12
2.1371479e-12
2.0947858e-12
2.0527798e-12
2.011105e-12
1.9697367e-12
1.9286515e-12
1.8878261e-12
1.8472381e-12
1.8068682e-12
1.7666955e-12
1.7266982e-12
1.6868574e-12
1.6471535e-12
1.6075678e-12
1.5680815e-12
1.5286768e-12
1.4893377e-12
1.4500469e-12
1.4107865e-12
1.37154e-12
1.3322909e-12
1.2930222e-12
1.2537183e-12
1.2143644e-12
1.1749316e-12
1.135445e-12
1.0968859e-12
1.060438e-12
1.0262022e-12
9.9397042e-13
9.6359884e-13
9.3493051e-13
9.0782531e-13
8.8215603e-13
8.5780638e-13
8.3467053e-13
8.1265253e-13
7.9166351e-13
7.7161932e-13
7.5244051e-13
7.3404764e-13
7.163654e-13
6.9929966e-13
6.8278408e-13
6.6661605e-13
6.508979e-13
6.345112e-13
6.2021147e-13
5.9968121e-13
6.5592937e-09
5.8424208e-09
5.6093466e-09
5.49457e-09
5.4225482e-09
5.3722446e-09
5.3351326e-09
5.3067959e-09
5.2846183e-09
5.2669226e-09
5.2525749e-09
5.2407769e-09
5.2309464e-09
5.2226432e-09
5.2155166e-09
5.20928e-09
5.2036352e-09
5.1983728e-09
5.1927822e-09
5.1873689e-09
5.1761219e-09
5.1738532e-09
5.0960844e-09
4.2203451e-09
3.4951563e-11
1.1594491e-11
1.5178047e-11
6.3956265e-12
1.0869277e-11
4.8443331e-12
9.0191973e-12
3.9500119e-12
7.8908719e-12
7.2317244e-12
7.0819699e-12
6.6799102e-12
6.4557055e-12
6.1847403e-12
5.9683618e-12
5.758695e-12
5.5703387e-12
5.3948712e-12
5.2323086e-12
5.0806288e-12
4.9386212e-12
4.8051726e-12
4.6793563e-12
4.5603758e-12
4.4475464e-12
4.3402787e-12
4.2380553e-12
4.1404206e-12
4.0469754e-12
3.9573649e-12
3.8712763e-12
3.7884331e-12
3.708584e-12
3.6315025e-12
3.5569858e-12
3.4848503e-12
3.4149281e-12
3.3470687e-12
3.2811365e-12
3.2170044e-12
3.1545554e-12
3.0936832e-12
3.0342898e-12
2.9762842e-12
2.9195818e-12
2.8641063e-12
2.8097874e-12
2.756557e-12
2.7043514e-12
2.6531124e-12
2.602785e-12
2.5533179e-12
2.5046622e-12
2.4567723e-12
2.4096084e-12
2.3631303e-12
2.3172978e-12
2.2720754e-12
2.2274288e-12
2.1833255e-12
2.1397344e-12
2.0966256e-12
2.0539721e-12
2.0117489e-12
1.9699296e-12
1.9284887e-12
1.8874033e-12
1.8466508e-12
1.8062095e-12
1.7660583e-12
1.726177e-12
1.6865483e-12
1.6471536e-12
1.6079736e-12
1.5689917e-12
1.5301909e-12
1.4915551e-12
1.4530685e-12
1.4147159e-12
1.3764846e-12
1.3383603e-12
1.3003285e-12
1.2623762e-12
1.2244907e-12
1.1866589e-12
1.1488693e-12
1.1111115e-12
1.073362e-12
1.0356483e-12
9.989021e-13
9.6424332e-13
9.3176373e-13
9.0125691e-13
8.7257589e-13
8.4556324e-13
8.2007838e-13
7.9599406e-13
7.7319432e-13
7.5157394e-13
7.3103777e-13
7.1149807e-13
6.928722e-13
6.7508262e-13
6.5805255e-13
6.4170967e-13
6.2596501e-13
6.1075517e-13
5.9589128e-13
5.8146491e-13
5.664507e-13
5.5337586e-13
5.3464261e-13
6.5583698e-09
5.8319538e-09
5.5957514e-09
5.4793905e-09
5.4063604e-09
5.3553478e-09
5.3177103e-09
5.2889707e-09
5.2664767e-09
5.2485278e-09
5.2339743e-09
5.2220074e-09
5.2120368e-09
5.2036171e-09
5.1963936e-09
5.1900772e-09
5.1843688e-09
5.1790594e-09
5.173443e-09
5.1680321e-09
5.1568456e-09
5.1547736e-09
5.077425e-09
4.2109183e-09
3.5784269e-11
1.1431699e-11
1.4695244e-11
6.2188065e-12
1.051118e-11
4.6684951e-12
8.7247553e-12
3.7878005e-12
7.6368196e-12
7.0038173e-12
6.8548864e-12
6.4671673e-12
6.248352e-12
5.985902e-12
5.7752906e-12
5.5714569e-12
5.3880057e-12
5.2170162e-12
5.0584479e-12
4.9103728e-12
4.7716303e-12
4.6411499e-12
4.518042e-12
4.4015416e-12
4.2909906e-12
4.1858228e-12
4.0855405e-12
3.9897056e-12
3.8979341e-12
3.8098846e-12
3.725256e-12
3.6437823e-12
3.5652216e-12
3.4893557e-12
3.4159893e-12
3.3449456e-12
3.2760628e-12
3.209196e-12
3.1442145e-12
3.0809961e-12
3.0194278e-12
2.9594073e-12
2.9008402e-12
2.8436389e-12
2.787722e-12
2.7330161e-12
2.6794535e-12
2.6269687e-12
2.5755005e-12
2.5249929e-12
2.4753932e-12
2.4266521e-12
2.3787228e-12
2.3315615e-12
2.2851302e-12
2.2393906e-12
2.1943043e-12
2.1498374e-12
2.1059573e-12
2.0626332e-12
2.0198356e-12
1.9775363e-12
1.9357097e-12
1.8943325e-12
1.8533799e-12
1.8128281e-12
1.7726558e-12
1.7328419e-12
1.6933665e-12
1.6542103e-12
1.6153546e-12
1.576784e-12
1.5384815e-12
1.50043e-12
1.4626144e-12
1.42502e-12
1.3876325e-12
1.3504381e-12
1.313424e-12
1.2765792e-12
1.239892e-12
1.2033502e-12
1.1669432e-12
1.1306607e-12
1.0944922e-12
1.0584292e-12
1.0224637e-12
9.8657606e-13
9.5079442e-13
9.1599625e-13
8.8323452e-13
8.5259311e-13
8.2386951e-13
7.9691609e-13
7.7157707e-13
7.4771341e-13
7.2519961e-13
7.0392171e-13
6.8377654e-13
6.6467105e-13
6.4651979e-13
6.2924267e-13
6.1276487e-13
5.9701292e-13
5.8191785e-13
5.6739572e-13
5.5338604e-13
5.3971283e-13
5.2645881e-13
5.1268264e-13
5.0070619e-13
4.8356598e-13
6.5572872e-09
5.8189926e-09
5.5789026e-09
5.4605745e-09
5.3862931e-09
5.3344006e-09
5.2961112e-09
5.266872e-09
5.2439855e-09
5.2257223e-09
5.2109136e-09
5.1987367e-09
5.1885918e-09
5.1800267e-09
5.1726818e-09
5.1662646e-09
5.1604745e-09
5.1551029e-09
5.1494479e-09
5.1440305e-09
5.1328962e-09
5.1310409e-09
5.0540751e-09
4.1991479e-09
3.6719296e-11
1.1263521e-11
1.4192576e-11
6.0364185e-12
1.0137058e-11
4.4891336e-12
8.4167088e-12
3.6289577e-12
7.3709782e-12
6.7651009e-12
6.617524e-12
6.2447538e-12
6.0318638e-12
5.7784084e-12
5.5740319e-12
5.3764588e-12
5.1983253e-12
5.0322042e-12
4.8780055e-12
4.7338966e-12
4.5987686e-12
4.4715957e-12
4.351527e-12
4.2378299e-12
4.1298741e-12
4.0271172e-12
3.9290823e-12
3.8353493e-12
3.74555e-12
3.6593567e-12
3.5764808e-12
3.4966669e-12
3.4196828e-12
3.3453189e-12
3.2733878e-12
3.2037195e-12
3.1361586e-12
3.0705659e-12
3.006816e-12
2.9447911e-12
2.8843829e-12
2.8254928e-12
2.7680303e-12
2.7119112e-12
2.6570572e-12
2.6033977e-12
2.5508679e-12
2.4994047e-12
2.4489495e-12
2.3994484e-12
2.3508508e-12
2.3031097e-12
2.2561799e-12
2.2100197e-12
2.1645928e-12
2.1198623e-12
2.0757918e-12
2.0323488e-12
1.9895023e-12
1.9472229e-12
1.9054828e-12
1.864255e-12
1.8235154e-12
1.783242e-12
1.7434114e-12
1.7040013e-12
1.6649916e-12
1.6263626e-12
1.5880958e-12
1.5501732e-12
1.5125776e-12
1.4752948e-12
1.4383093e-12
1.4016052e-12
1.3651691e-12
1.3289876e-12
1.2930478e-12
1.2573375e-12
1.2218453e-12
1.1865618e-12
1.1514765e-12
1.116579e-12
1.0818603e-12
1.0473117e-12
1.0129245e-12
9.7869171e-13
9.4460702e-13
9.1065348e-13
8.7685844e-13
8.440441e-13
8.1319666e-13
7.8439342e-13
7.5743769e-13
7.3218313e-13
7.084773e-13
6.8618422e-13
6.6518151e-13
6.4535837e-13
6.2661473e-13
6.0886054e-13
5.9201341e-13
5.7599642e-13
5.6073796e-13
5.4616817e-13
5.3222159e-13
5.1881908e-13
5.0590305e-13
4.9330978e-13
4.8111451e-13
4.6845154e-13
4.5745836e-13
4.4173273e-13
6.556067e-09
5.8032637e-09
5.5584343e-09
5.4377106e-09
5.3619061e-09
5.3089434e-09
5.2698611e-09
5.2400142e-09
5.2166504e-09
5.1980051e-09
5.1828857e-09
5.1704532e-09
5.1600961e-09
5.1513534e-09
5.1438598e-09
5.1373185e-09
5.1314267e-09
5.1259759e-09
5.120268e-09
5.1148341e-09
5.1037424e-09
5.1021256e-09
5.0255003e-09
4.1847499e-09
3.777956e-11
1.1089521e-11
1.3667183e-11
5.8478044e-12
9.7446091e-12
4.3056676e-12
8.0931153e-12
3.4721223e-12
7.0916771e-12
6.5140879e-12
6.3684332e-12
6.0113267e-12
5.8049602e-12
5.5610529e-12
5.363439e-12
5.1726122e-12
5.0002606e-12
4.8394456e-12
4.6900351e-12
4.5502934e-12
4.4191655e-12
4.2956726e-12
4.1790037e-12
4.0684602e-12
3.9634409e-12
3.863428e-12
3.7679663e-12
3.6766545e-12
3.5891406e-12
3.5051117e-12
3.4242917e-12
3.3464362e-12
3.2713234e-12
3.1987524e-12
3.128544e-12
3.0605354e-12
2.9945777e-12
2.9305375e-12
2.8682947e-12
2.8077366e-12
2.748759e-12
2.6912676e-12
2.6351755e-12
2.5804021e-12
2.5268724e-12
2.4745184e-12
2.4232783e-12
2.3730914e-12
2.3239015e-12
2.2756571e-12
2.2283096e-12
2.1818138e-12
2.1361267e-12
2.0912081e-12
2.0470234e-12
2.0035375e-12
1.9607152e-12
1.9185257e-12
1.8769395e-12
1.8359284e-12
1.7954658e-12
1.7555263e-12
1.7160867e-12
1.6771264e-12
1.6386231e-12
1.6005556e-12
1.5629051e-12
1.5256529e-12
1.4887817e-12
1.4522744e-12
1.4161152e-12
1.3802906e-12
1.3447863e-12
1.3095876e-12
1.2746821e-12
1.2400571e-12
1.2057013e-12
1.1716032e-12
1.1377525e-12
1.1041407e-12
1.0707584e-12
1.0375962e-12
1.0046462e-12
9.7190077e-13
9.3935216e-13
9.0699429e-13
8.7482197e-13
8.4282009e-13
8.1101449e-13
7.8017257e-13
7.5121547e-13
7.2421504e-13
6.9898189e-13
6.7537252e-13
6.5323912e-13
6.324499e-13
6.128866e-13
5.9444241e-13
5.7702108e-13
5.6053619e-13
5.4490887e-13
5.3006577e-13
5.1593878e-13
5.0246173e-13
4.895727e-13
4.7719716e-13
4.6528057e-13
4.5367076e-13
4.4243655e-13
4.307807e-13
4.2067402e-13
4.0621651e-13
6.5547451e-09
5.7844613e-09
5.5339351e-09
5.4103352e-09
5.3327038e-09
5.2784579e-09
5.2384253e-09
5.2078502e-09
5.1839145e-09
5.1648114e-09
5.1493198e-09
5.1365808e-09
5.125969e-09
5.117013e-09
5.1093401e-09
5.1026488e-09
5.096633e-09
5.091084e-09
5.085307e-09
5.0798455e-09
5.0687854e-09
5.0674307e-09
4.9910993e-09
4.1673999e-09
3.8992582e-11
1.0909585e-11
1.3116853e-11
5.6524916e-12
9.3319544e-12
4.1176659e-12
7.7523592e-12
3.316029e-12
6.7975099e-12
6.2495157e-12
6.1063904e-12
5.7657481e-12
5.566559e-12
5.3328155e-12
5.1425442e-12
4.9589988e-12
4.7929381e-12
4.6379086e-12
4.4937425e-12
4.3588034e-12
4.2320929e-12
4.1126809e-12
3.9997985e-12
3.8927825e-12
3.7910619e-12
3.6941449e-12
3.6015987e-12
3.5130418e-12
3.4281393e-12
3.3465933e-12
3.2681408e-12
3.1925494e-12
3.1196074e-12
3.0491235e-12
2.9809267e-12
2.9148617e-12
2.8507865e-12
2.7885737e-12
2.7281086e-12
2.6692835e-12
2.611999e-12
2.5561647e-12
2.5016977e-12
2.448521e-12
2.3965626e-12
2.3457579e-12
2.2960473e-12
2.2473732e-12
2.1996814e-12
2.1529228e-12
2.1070509e-12
2.0620225e-12
2.0177963e-12
1.9743339e-12
1.9316023e-12
1.8895677e-12
1.8481968e-12
1.8074599e-12
1.7673288e-12
1.7277767e-12
1.6887781e-12
1.6503089e-12
1.6123469e-12
1.5748725e-12
1.5378644e-12
1.5013026e-12
1.4651691e-12
1.4294463e-12
1.3941177e-12
1.3591671e-12
1.3245796e-12
1.2903426e-12
1.2564425e-12
1.2228655e-12
1.1895999e-12
1.156634e-12
1.123957e-12
1.0915583e-12
1.0594282e-12
1.027559e-12
9.9594181e-13
9.6456805e-13
9.3343043e-13
9.0252193e-13
8.7183551e-13
8.4136563e-13
8.1110763e-13
7.8104779e-13
7.5121008e-13
7.2230836e-13
6.9520091e-13
6.699551e-13
6.4638987e-13
6.2436582e-13
6.0374071e-13
5.8438784e-13
5.6619374e-13
5.490562e-13
5.3288329e-13
5.1759261e-13
5.0310915e-13
4.8936332e-13
4.7629066e-13
4.6382874e-13
4.5191912e-13
4.4049182e-13
4.2949539e-13
4.1878865e-13
4.0843471e-13
3.9769897e-13
3.8839988e-13
3.7509323e-13
6.553378e-09
5.7622507e-09
5.5049507e-09
5.3779362e-09
5.2981378e-09
5.2423708e-09
5.2012123e-09
5.1697747e-09
5.1451617e-09
5.1255164e-09
5.1095839e-09
5.0964819e-09
5.0855681e-09
5.076359e-09
5.0684732e-09
5.0616028e-09
5.0554381e-09
5.0497698e-09
5.0439057e-09
5.038404e-09
5.0273632e-09
5.0262962e-09
4.9502075e-09
4.1467333e-09
4.0391668e-11
1.0723993e-11
1.2540129e-11
5.450208e-12
8.8977213e-12
3.9248533e-12
7.3932127e-12
3.1595081e-12
6.4873845e-12
5.9703906e-12
5.8304381e-12
5.5071222e-12
5.3158105e-12
5.0928942e-12
4.9105876e-12
4.734899e-12
4.5756744e-12
4.4269429e-12
4.2885079e-12
4.1588348e-12
4.0369839e-12
3.9220768e-12
3.8133882e-12
3.710292e-12
3.612249e-12
3.5187942e-12
3.4295185e-12
3.344061e-12
3.2621046e-12
3.1833672e-12
3.1075998e-12
3.0345819e-12
2.9641127e-12
2.896011e-12
2.8301142e-12
2.7662749e-12
2.7043581e-12
2.6442427e-12
2.5858198e-12
2.5289869e-12
2.4736493e-12
2.4197208e-12
2.3671226e-12
2.3157813e-12
2.2656284e-12
2.2166021e-12
2.1686457e-12
2.1217042e-12
2.075726e-12
2.030664e-12
1.986474e-12
1.9431146e-12
1.9005465e-12
1.858733e-12
1.8176425e-12
1.7772428e-12
1.737502e-12
1.6983918e-12
1.6598852e-12
1.6219567e-12
1.584582e-12
1.5477379e-12
1.5114033e-12
1.4755595e-12
1.4401863e-12
1.4052645e-12
1.370777e-12
1.3367069e-12
1.3030387e-12
1.269757e-12
1.2368474e-12
1.204298e-12
1.1720961e-12
1.1402285e-12
1.1086839e-12
1.0774515e-12
1.0465209e-12
1.0158822e-12
9.8552616e-13
9.5544543e-13
9.2563156e-13
8.9607657e-13
8.6677357e-13
8.3771593e-13
8.0889703e-13
7.8031164e-13
7.5195535e-13
7.2381558e-13
6.9591421e-13
6.6891319e-13
6.4361023e-13
6.200689e-13
5.9811724e-13
5.7762092e-13
5.5844403e-13
5.4046554e-13
5.2357735e-13
5.0768223e-13
4.9269293e-13
4.7853131e-13
4.6512644e-13
4.5241262e-13
4.4032908e-13
4.2881712e-13
4.178218e-13
4.072776e-13
3.9713624e-13
3.8726695e-13
3.7772774e-13
3.6784185e-13
3.592869e-13
3.4703823e-13
6.5520503e-09
5.7362725e-09
5.4709879e-09
5.3399561e-09
5.2576111e-09
5.200058e-09
5.1575779e-09
5.1251285e-09
5.0997211e-09
5.0794399e-09
5.0629904e-09
5.0494627e-09
5.0381945e-09
5.0286882e-09
5.0205518e-09
5.0134703e-09
5.007129e-09
5.001318e-09
4.9953469e-09
4.9897909e-09
4.9787552e-09
4.9780038e-09
4.9021006e-09
4.122347e-09
4.2017404e-11
1.0533522e-11
1.1936434e-11
5.2409007e-12
8.4411346e-12
3.7271195e-12
7.0149119e-12
3.0014976e-12
6.1605847e-12
5.6760419e-12
5.5399358e-12
5.2348427e-12
5.0521412e-12
4.8407462e-12
4.6670558e-12
4.4998264e-12
4.3480085e-12
4.2061107e-12
4.0739145e-12
3.9499901e-12
3.8334587e-12
3.723496e-12
3.6194225e-12
3.5206507e-12
3.4266744e-12
3.3370572e-12
3.2514144e-12
3.1694067e-12
3.0907357e-12
3.0151359e-12
2.9423725e-12
2.872238e-12
2.804543e-12
2.7391163e-12
2.6758045e-12
2.6144684e-12
2.5549804e-12
2.497226e-12
2.4411021e-12
2.3865117e-12
2.3333651e-12
2.2815805e-12
2.2310832e-12
2.1818038e-12
2.133677e-12
2.0866443e-12
2.040652e-12
1.9956475e-12
1.9515819e-12
1.9084105e-12
1.866091e-12
1.8245842e-12
1.7838527e-12
1.7438615e-12
1.7045804e-12
1.6659789e-12
1.6280265e-12
1.5906962e-12
1.5539624e-12
1.5178006e-12
1.4821877e-12
1.4471016e-12
1.4125222e-12
1.3784316e-12
1.3448105e-12
1.3116407e-12
1.2789058e-12
1.2465898e-12
1.2146778e-12
1.1831552e-12
1.1520082e-12
1.1212255e-12
1.090795e-12
1.060704e-12
1.030942e-12
1.0014984e-12
9.723634e-13
9.4352755e-13
9.1498209e-13
8.8671989e-13
8.5873282e-13
8.3101332e-13
8.0355481e-13
7.7635092e-13
7.493953e-13
7.2268291e-13
6.9620947e-13
6.6996333e-13
6.4396426e-13
6.1882402e-13
5.9528185e-13
5.7339798e-13
5.5301012e-13
5.3398978e-13
5.162079e-13
4.9954965e-13
4.8391262e-13
4.6920492e-13
4.5534416e-13
4.4225668e-13
4.2987571e-13
4.1813952e-13
4.0699106e-13
3.9637537e-13
3.8624099e-13
3.7652678e-13
3.6718771e-13
3.5810295e-13
3.4932575e-13
3.4023348e-13
3.3237199e-13
3.2110813e-13
6.5508841e-09
5.7061475e-09
5.4315197e-09
5.2957974e-09
5.2104833e-09
5.1508495e-09
5.106831e-09
5.0732042e-09
5.0468729e-09
5.0258522e-09
5.0088016e-09
4.9947787e-09
4.9830983e-09
4.973246e-09
4.9648176e-09
4.9574895e-09
4.9509413e-09
4.9449616e-09
4.9388614e-09
4.9332355e-09
4.9221892e-09
4.921783e-09
4.8460026e-09
4.0937985e-09
4.3919554e-11
1.0339567e-11
1.1306214e-11
5.0247573e-12
7.9621248e-12
3.5245325e-12
6.6172458e-12
2.8410693e-12
5.8168448e-12
5.3661874e-12
5.234622e-12
4.9486492e-12
4.7753065e-12
4.5761367e-12
4.4117274e-12
4.2535715e-12
4.1097422e-12
3.9752245e-12
3.8497848e-12
3.7321005e-12
3.621356e-12
3.516784e-12
3.4177523e-12
3.3237138e-12
3.2341969e-12
3.1487947e-12
3.0671482e-12
2.9889407e-12
2.9138933e-12
2.8417577e-12
2.7723145e-12
2.7053691e-12
2.6407443e-12
2.5782796e-12
2.5178311e-12
2.4592681e-12
2.4024707e-12
2.3473315e-12
2.2937533e-12
2.241645e-12
2.1909219e-12
2.141507e-12
2.09333e-12
2.0463254e-12
2.0004316e-12
1.9555932e-12
1.9117596e-12
1.868881e-12
1.8269112e-12
1.7858079e-12
1.745531e-12
1.7060434e-12
1.6673097e-12
1.6292965e-12
1.5919754e-12
1.5553173e-12
1.5192934e-12
1.4838779e-12
1.4490465e-12
1.414776e-12
1.3810444e-12
1.3478307e-12
1.3151158e-12
1.2828826e-12
1.2511128e-12
1.2197891e-12
1.1888957e-12
1.1584176e-12
1.1283404e-12
1.0986503e-12
1.0693342e-12
1.0403812e-12
1.0117798e-12
9.8351802e-13
9.5558561e-13
9.2797258e-13
9.0066957e-13
8.7366746e-13
8.4695789e-13
8.2053397e-13
7.9438783e-13
7.6851228e-13
7.4290097e-13
7.1754774e-13
6.9244647e-13
6.6759223e-13
6.4298082e-13
6.1860142e-13
5.9447175e-13
5.7115501e-13
5.4933392e-13
5.2906561e-13
5.1019782e-13
4.9260852e-13
4.7617595e-13
4.607918e-13
4.4635966e-13
4.3279316e-13
4.2001494e-13
4.0795595e-13
3.9655366e-13
3.8575034e-13
3.7549267e-13
3.6572941e-13
3.5641258e-13
3.4748544e-13
3.3890614e-13
3.3056339e-13
3.2250603e-13
3.1416253e-13
3.0695409e-13
2.9661752e-13
6.5500511e-09
5.6714834e-09
5.3859912e-09
5.244829e-09
5.1560771e-09
5.0940368e-09
5.0482406e-09
5.0132539e-09
4.9858559e-09
4.9639818e-09
4.9462374e-09
4.9316432e-09
4.9194871e-09
4.9092353e-09
4.9004694e-09
4.8928559e-09
4.8860673e-09
4.8798904e-09
4.8736367e-09
4.8679236e-09
4.8568494e-09
4.8568202e-09
4.7810943e-09
4.0606066e-09
4.6159469e-11
1.0144318e-11
1.0651084e-11
4.8022312e-12
7.4614482e-12
3.3173568e-12
6.2006571e-12
2.6774666e-12
5.4564334e-12
5.0410071e-12
4.9146839e-12
4.6486925e-12
4.4854517e-12
4.2991964e-12
4.1447266e-12
3.9962521e-12
3.8609884e-12
3.7343926e-12
3.6162227e-12
3.5052659e-12
3.4007719e-12
3.3020326e-12
3.2084648e-12
3.1195636e-12
3.0348932e-12
2.9540774e-12
2.8767841e-12
2.80272e-12
2.7316266e-12
2.6632737e-12
2.5974575e-12
2.5339976e-12
2.4727291e-12
2.4135026e-12
2.3561844e-12
2.3006526e-12
2.2467955e-12
2.1945127e-12
2.1437138e-12
2.0943135e-12
2.0462326e-12
1.9993989e-12
1.9537468e-12
1.9092148e-12
1.8657453e-12
1.8232863e-12
1.7817902e-12
1.7412103e-12
1.7015032e-12
1.662629e-12
1.6245501e-12
1.5872315e-12
1.5506397e-12
1.5147436e-12
1.479516e-12
1.4449297e-12
1.4109574e-12
1.3775747e-12
1.3447588e-12
1.3124875e-12
1.2807403e-12
1.2494971e-12
1.2187399e-12
1.1884525e-12
1.1586175e-12
1.1292185e-12
1.1002407e-12
1.0716696e-12
1.0434917e-12
1.0156939e-12
9.8826366e-13
9.6119074e-13
9.3446408e-13
9.0807231e-13
8.8200571e-13
8.5625473e-13
8.3081043e-13
8.0566409e-13
7.8080772e-13
7.5623465e-13
7.3193727e-13
7.0790875e-13
6.8414295e-13
6.6063392e-13
6.3737574e-13
6.1436361e-13
5.9159339e-13
5.6905502e-13
5.467643e-13
5.2523742e-13
5.0510227e-13
4.8641292e-13
4.6902743e-13
4.5283072e-13
4.3770862e-13
4.2355962e-13
4.1029353e-13
3.9782965e-13
3.8609578e-13
3.7502751e-13
3.6456662e-13
3.5465939e-13
3.4525627e-13
3.363097e-13
3.2777523e-13
3.1960041e-13
3.1174662e-13
3.0411173e-13
2.9674041e-13
2.8910982e-13
2.8252212e-13
2.730675e-13
6.5497879e-09
5.631884e-09
5.333828e-09
5.1863948e-09
5.0936876e-09
5.0288824e-09
4.9810453e-09
4.9444988e-09
4.9158778e-09
4.8930258e-09
4.8744866e-09
4.8592377e-09
4.8465366e-09
4.835827e-09
4.826674e-09
4.8187326e-09
4.8116671e-09
4.8052621e-09
4.7988284e-09
4.7930091e-09
4.7818879e-09
4.7822691e-09
4.7065246e-09
4.0222521e-09
4.8813113e-11
9.9509751e-12
9.9739835e-12
4.5740699e-12
6.9408103e-12
3.1060741e-12
5.7663489e-12
2.5101537e-12
5.0802461e-12
4.7012246e-12
4.5808359e-12
4.3356067e-12
4.1831798e-12
4.010485e-12
3.8665839e-12
3.7283698e-12
3.6022242e-12
3.4840697e-12
3.3736627e-12
3.2699018e-12
3.172104e-12
3.0796222e-12
2.991924e-12
2.908548e-12
2.8290954e-12
2.7532218e-12
2.680623e-12
2.61103e-12
2.5442055e-12
2.479938e-12
2.4180402e-12
2.358346e-12
2.3007037e-12
2.2449757e-12
2.1910384e-12
2.1387794e-12
2.0880955e-12
2.0388938e-12
1.9910908e-12
1.9446073e-12
1.89937e-12
1.8553117e-12
1.8123717e-12
1.7704928e-12
1.7296215e-12
1.6897095e-12
1.6507122e-12
1.6125863e-12
1.5752913e-12
1.5387898e-12
1.5030469e-12
1.4680298e-12
1.4337072e-12
1.4000499e-12
1.3670326e-12
1.3346297e-12
1.3028156e-12
1.2715675e-12
1.2408639e-12
1.2106841e-12
1.1810086e-12
1.1518188e-12
1.1230975e-12
1.0948296e-12
1.0669988e-12
1.0395895e-12
1.0125877e-12
9.8597993e-13
9.5975334e-13
9.338955e-13
9.0839471e-13
8.8324116e-13
8.5842442e-13
8.3393378e-13
8.0975996e-13
7.8589392e-13
7.6232717e-13
7.3905142e-13
7.1605906e-13
6.9334367e-13
6.7089793e-13
6.4871536e-13
6.2679007e-13
6.0511633e-13
5.8368845e-13
5.6250175e-13
5.4155219e-13
5.2083048e-13
5.003506e-13
4.8058318e-13
4.6210276e-13
4.4496029e-13
4.2902429e-13
4.1418701e-13
4.0034214e-13
3.8739518e-13
3.7526229e-13
3.6386853e-13
3.5314696e-13
3.4303788e-13
3.3348737e-13
3.2444575e-13
3.1586724e-13
3.0770797e-13
2.9992699e-13
2.9247614e-13
2.8531995e-13
2.7836518e-13
2.7165251e-13
2.6470585e-13
2.5871277e-13
2.5010394e-13
6.5504152e-09
5.5869603e-09
5.2744477e-09
5.1198253e-09
5.0225943e-09
4.9546316e-09
4.9044668e-09
4.8661426e-09
4.8361288e-09
4.8121635e-09
4.7927198e-09
4.7767263e-09
4.763405e-09
4.7521744e-09
4.7425808e-09
4.7342657e-09
4.7268839e-09
4.7202171e-09
4.7135745e-09
4.7076285e-09
4.6964397e-09
4.6972661e-09
4.6214254e-09
3.9781801e-09
5.1974876e-11
9.7640424e-12
9.2793016e-12
4.3413459e-12
6.4029838e-12
2.8914077e-12
5.3163912e-12
2.3388721e-12
4.6898981e-12
4.3481915e-12
4.2343985e-12
4.0105846e-12
3.8696224e-12
3.7110586e-12
3.5782991e-12
3.4508709e-12
3.3343485e-12
3.2251117e-12
3.1229212e-12
3.0267884e-12
2.9360985e-12
2.8502674e-12
2.7688145e-12
2.6913227e-12
2.6174316e-12
2.5468295e-12
2.4792408e-12
2.4144214e-12
2.3521562e-12
2.2922528e-12