/*--------------------------------*- C++ -*----------------------------------*\
| =========                 |                                                 |
| \\      /  F ield         | OpenFOAM: The Open Source CFD Toolbox           |
|  \\    /   O peration     | Version:  2206                                  |
|   \\  /    A nd           | Website:  www.openfoam.com                      |
|    \\/     M anipulation  |                                                 |
\*---------------------------------------------------------------------------*/
FoamFile
{
    version     2.0;
    format      ascii;
    arch        "LSB;label=32;scalar=64";
    class       volScalarField;
    location    "1200";
    object      p;
}
// * * * * * * * * * * * * * * * * * * * * * * * * * * * * * * * * * * * * * //

dimensions      [0 2 -2 0 0 0 0];

internalField   nonuniform List<scalar> 
13056
(
0.011727226
0.011833597
0.012054717
0.012333942
0.012674514
0.013075624
0.013534065
0.014049002
0.014622
0.015256343
0.015957022
0.016731219
0.017588819
0.018543929
0.019615242
0.020832645
0.022230967
0.023889588
0.025858078
0.028445141
0.031522243
0.036894406
0.041896658
0.082977382
0.052136974
0.001497487
0.00077642099
0.0018659087
0.002385197
0.0028071331
0.0030724506
0.0032636972
0.0034032613
0.0035008863
0.0035693865
0.0036183763
0.0036534531
0.0036781687
0.0036949583
0.003705832
0.0037121472
0.0037148179
0.0037145513
0.0037119692
0.0037074896
0.0037013656
0.003693893
0.003685266
0.0036756624
0.0036652055
0.0036539715
0.0036420515
0.0036295132
0.0036164149
0.0036028168
0.0035887441
0.0035742102
0.003559244
0.003543866
0.0035280895
0.0035119283
0.0034954001
0.0034784988
0.0034612144
0.0034435527
0.0034255116
0.0034070888
0.003388279
0.0033690801
0.0033494913
0.0033294883
0.0033090515
0.0032881742
0.0032668426
0.0032450401
0.0032227544
0.0031999636
0.0031766609
0.0031528218
0.0031283997
0.0031033794
0.0030777364
0.00305144
0.0030244617
0.0029967693
0.0029683308
0.002939116
0.0029090709
0.0028781433
0.0028462936
0.0028134714
0.0027796211
0.0027446886
0.0027086074
0.0026713223
0.0026327563
0.0025928085
0.0025514047
0.0025084513
0.002463846
0.0024174825
0.0023692393
0.0023189976
0.0022666109
0.0022119072
0.0021547301
0.0020948926
0.0020321995
0.0019664317
0.001897376
0.0018247669
0.0017483261
0.0016681466
0.0015847649
0.0015000532
0.0014162956
0.0013341273
0.0012534324
0.0011742259
0.0010965439
0.0010204328
0.00094596621
0.00087326447
0.00080247566
0.00073377707
0.00066741451
0.00060372097
0.00054311077
0.00048621926
0.00043369102
0.00038708855
0.00034682969
0.0003189714
0.00029624774
0.00043714204
-0.00038985879
0.011727226
0.011833597
0.012054717
0.012333942
0.012674514
0.013075624
0.013534065
0.014049003
0.014622
0.015256343
0.015957023
0.01673122
0.01758882
0.01854393
0.019615243
0.020832646
0.022230969
0.02388959
0.025858081
0.028445147
0.031522251
0.036894421
0.041896706
0.082972142
0.052148785
0.0015051204
0.00077841871
0.001866774
0.0023857249
0.0028075058
0.0030727327
0.003263921
0.0034034444
0.0035010395
0.0035695172
0.0036184895
0.0036535523
0.0036782564
0.0036950365
0.0037059021
0.0037122106
0.0037148754
0.0037146038
0.0037120174
0.0037075339
0.0037014065
0.0036939308
0.0036853011
0.0036756951
0.003665236
0.003654
0.0036420782
0.0036295382
0.0036164385
0.003602839
0.003588765
0.0035742299
0.0035592626
0.0035438836
0.0035281062
0.0035119441
0.0034954151
0.003478513
0.0034612279
0.0034435655
0.0034255238
0.0034071004
0.00338829
0.0033690907
0.0033495014
0.0033294979
0.0033090607
0.0032881829
0.0032668509
0.0032450481
0.003222762
0.0031999709
0.0031766678
0.0031528285
0.003128406
0.0031033855
0.0030777422
0.0030514456
0.003024467
0.0029967743
0.0029683357
0.0029391206
0.0029090753
0.0028781475
0.0028462976
0.0028134753
0.0027796247
0.0027446921
0.0027086107
0.0026713255
0.0026327594
0.0025928114
0.0025514074
0.0025084539
0.0024638485
0.0024174849
0.0023692416
0.0023189997
0.0022666129
0.0022119092
0.002154732
0.0020948943
0.0020322012
0.0019664333
0.0018973775
0.0018247683
0.0017483274
0.0016681478
0.001584766
0.0015000543
0.0014162967
0.0013341283
0.0012534334
0.0011742267
0.0010965448
0.0010204335
0.00094596696
0.00087326518
0.00080247634
0.00073377773
0.00066741514
0.00060372157
0.00054311136
0.00048621983
0.00043369157
0.00038708909
0.00034683022
0.00031897194
0.00029624831
0.00043714263
-0.00038985841
0.011727226
0.011833597
0.012054717
0.012333943
0.012674514
0.013075624
0.013534065
0.014049003
0.014622001
0.015256343
0.015957023
0.01673122
0.01758882
0.01854393
0.019615244
0.020832648
0.022230971
0.023889593
0.025858085
0.028445154
0.031522259
0.036894438
0.041896748
0.082967262
0.052164897
0.0015122141
0.00078061865
0.0018677854
0.0023863419
0.0028079415
0.0030730624
0.0032641826
0.0034036584
0.0035012187
0.0035696701
0.0036186219
0.0036536681
0.0036783588
0.0036951278
0.0037059841
0.0037122847
0.0037149427
0.0037146652
0.0037120736
0.0037075856
0.0037014542
0.003693975
0.0036853421
0.0036757333
0.0036652717
0.0036540333
0.0036421094
0.0036295675
0.003616466
0.0036028649
0.0035887894
0.003574253
0.0035592844
0.0035439042
0.0035281256
0.0035119625
0.0034954326
0.0034785296
0.0034612437
0.0034435805
0.0034255381
0.003407114
0.003388303
0.003369103
0.0033495132
0.0033295091
0.0033090714
0.0032881931
0.0032668607
0.0032450574
0.0032227709
0.0031999794
0.0031766759
0.0031528362
0.0031284135
0.0031033926
0.0030777489
0.0030514521
0.0030244732
0.0029967803
0.0029683413
0.002939126
0.0029090805
0.0028781524
0.0028463023
0.0028134798
0.0027796291
0.0027446963
0.0027086147
0.0026713293
0.002632763
0.0025928148
0.0025514107
0.002508457
0.0024638514
0.0024174877
0.0023692442
0.0023190023
0.0022666153
0.0022119115
0.0021547341
0.0020948963
0.0020322031
0.0019664351
0.0018973792
0.0018247699
0.0017483289
0.0016681492
0.0015847674
0.0015000555
0.0014162978
0.0013341294
0.0012534344
0.0011742277
0.0010965457
0.0010204344
0.00094596783
0.00087326601
0.00080247714
0.00073377849
0.00066741588
0.00060372228
0.00054311204
0.00048622049
0.00043369221
0.00038708972
0.00034683084
0.00031897256
0.00029624894
0.00043714332
-0.00038985798
0.011727226
0.011833598
0.012054717
0.012333943
0.012674515
0.013075624
0.013534065
0.014049003
0.014622001
0.015256344
0.015957023
0.016731221
0.017588821
0.018543931
0.019615245
0.020832649
0.022230973
0.023889596
0.025858089
0.02844516
0.031522268
0.036894454
0.041896791
0.082962524
0.05218274
0.0015172468
0.00078266306
0.0018687657
0.00238694
0.0028083639
0.003073382
0.0032644362
0.0034038658
0.0035013924
0.0035698183
0.0036187501
0.0036537804
0.0036784581
0.0036952163
0.0037060636
0.0037123565
0.0037150079
0.0037147247
0.0037121282
0.0037076358
0.0037015005
0.0036940179
0.0036853819
0.0036757703
0.0036653062
0.0036540656
0.0036421396
0.0036295959
0.0036164926
0.00360289
0.003588813
0.0035742753
0.0035593055
0.0035439242
0.0035281445
0.0035119804
0.0034954495
0.0034785457
0.003461259
0.0034435951
0.0034255519
0.0034071272
0.0033883155
0.003369115
0.0033495246
0.00332952
0.0033090818
0.003288203
0.0032668701
0.0032450664
0.0032227795
0.0031999876
0.0031766838
0.0031528438
0.0031284207
0.0031033994
0.0030777555
0.0030514583
0.0030244792
0.002996786
0.0029683468
0.0029391312
0.0029090855
0.0028781572
0.0028463069
0.0028134842
0.0027796332
0.0027447002
0.0027086185
0.0026713329
0.0026327664
0.0025928181
0.0025514138
0.00250846
0.0024638543
0.0024174904
0.0023692468
0.0023190047
0.0022666176
0.0022119137
0.0021547362
0.0020948983
0.0020322049
0.0019664369
0.0018973809
0.0018247715
0.0017483304
0.0016681506
0.0015847687
0.0015000567
0.001416299
0.0013341305
0.0012534354
0.0011742287
0.0010965467
0.0010204353
0.00094596868
0.00087326682
0.00080247791
0.00073377923
0.00066741659
0.00060372297
0.0005431127
0.00048622113
0.00043369284
0.00038709033
0.00034683144
0.00031897317
0.00029624953
0.00043714399
-0.00038985758
0.011727226
0.011833598
0.012054717
0.012333943
0.012674515
0.013075624
0.013534065
0.014049003
0.014622001
0.015256344
0.015957024
0.016731221
0.017588822
0.018543932
0.019615247
0.020832651
0.022230975
0.023889599
0.025858093
0.028445167
0.031522277
0.03689447
0.041896839
0.082957387
0.052201683
0.0015230408
0.00078475713
0.0018697754
0.0023875562
0.002808799
0.0030737112
0.0032646975
0.0034040795
0.0035015713
0.0035699709
0.0036188822
0.0036538961
0.0036785604
0.0036953075
0.0037061455
0.0037124304
0.0037150751
0.0037147861
0.0037121843
0.0037076875
0.0037015482
0.003694062
0.0036854229
0.0036758085
0.0036653418
0.0036540989
0.0036421707
0.0036296251
0.0036165201
0.0036029158
0.0035888374
0.0035742983
0.0035593272
0.0035439447
0.003528164
0.0035119989
0.003495467
0.0034785623
0.0034612748
0.0034436101
0.0034255662
0.0034071408
0.0033883285
0.0033691273
0.0033495363
0.0033295312
0.0033090925
0.0032882132
0.0032668799
0.0032450757
0.0032227884
0.0031999961
0.0031766919
0.0031528515
0.0031284281
0.0031034065
0.0030777623
0.0030514648
0.0030244854
0.0029967919
0.0029683525
0.0029391366
0.0029090907
0.0028781621
0.0028463116
0.0028134887
0.0027796375
0.0027447043
0.0027086224
0.0026713366
0.00263277
0.0025928215
0.0025514171
0.0025084631
0.0024638572
0.0024174932
0.0023692495
0.0023190072
0.00226662
0.0022119159
0.0021547383
0.0020949003
0.0020322069
0.0019664387
0.0018973826
0.0018247731
0.0017483319
0.001668152
0.00158477
0.001500058
0.0014163002
0.0013341316
0.0012534365
0.0011742297
0.0010965476
0.0010204362
0.00094596955
0.00087326765
0.0008024787
0.00073378
0.00066741732
0.00060372367
0.00054311339
0.0004862218
0.00043369348
0.00038709096
0.00034683206
0.0003189738
0.00029625013
0.00043714467
-0.00038985718
0.011727226
0.011833598
0.012054717
0.012333943
0.012674515
0.013075624
0.013534066
0.014049003
0.014622002
0.015256344
0.015957024
0.016731222
0.017588823
0.018543933
0.019615248
0.020832653
0.022230978
0.023889603
0.025858098
0.028445175
0.031522288
0.036894489
0.041896894
0.08295167
0.052221421
0.0015303624
0.00078699325
0.0018708507
0.0023882125
0.0028092624
0.0030740619
0.0032649758
0.0034043071
0.0035017619
0.0035701335
0.0036190229
0.0036540193
0.0036786693
0.0036954047
0.0037062327
0.0037125092
0.0037151467
0.0037148514
0.0037122442
0.0037077425
0.003701599
0.0036941091
0.0036854666
0.0036758491
0.0036653797
0.0036541343
0.0036422039
0.0036296562
0.0036165494
0.0036029434
0.0035888633
0.0035743228
0.0035593503
0.0035439666
0.0035281847
0.0035120185
0.0034954857
0.00347858
0.0034612916
0.0034436261
0.0034255814
0.0034071553
0.0033883422
0.0033691404
0.0033495488
0.0033295431
0.0033091039
0.0032882241
0.0032668903
0.0032450856
0.0032227979
0.0032000052
0.0031767006
0.0031528598
0.003128436
0.0031034141
0.0030777695
0.0030514717
0.003024492
0.0029967982
0.0029683585
0.0029391424
0.0029090962
0.0028781674
0.0028463166
0.0028134935
0.0027796421
0.0027447087
0.0027086266
0.0026713406
0.0026327738
0.0025928251
0.0025514205
0.0025084664
0.0024638603
0.0024174961
0.0023692523
0.0023190099
0.0022666226
0.0022119183
0.0021547406
0.0020949025
0.0020322089
0.0019664406
0.0018973844
0.0018247748
0.0017483335
0.0016681535
0.0015847714
0.0015000593
0.0014163015
0.0013341328
0.0012534376
0.0011742308
0.0010965486
0.0010204372
0.00094597047
0.00087326854
0.00080247955
0.00073378081
0.0006674181
0.00060372443
0.00054311411
0.0004862225
0.00043369417
0.00038709163
0.00034683271
0.00031897447
0.00029625077
0.00043714541
-0.00038985675
0.011727226
0.011833598
0.012054717
0.012333943
0.012674515
0.013075624
0.013534066
0.014049004
0.014622002
0.015256345
0.015957025
0.016731223
0.017588824
0.018543935
0.01961525
0.020832656
0.022230981
0.023889608
0.025858105
0.028445186
0.031522302
0.036894513
0.041896958
0.082945276
0.052242208
0.0015383908
0.00078940079
0.0018720076
0.0023889188
0.0028097611
0.0030744393
0.0032652753
0.003404552
0.0035019669
0.0035703084
0.0036191744
0.0036541519
0.0036787866
0.0036955092
0.0037063266
0.003712594
0.0037152237
0.0037149216
0.0037123085
0.0037078017
0.0037016537
0.0036941597
0.0036855136
0.0036758928
0.0036654205
0.0036541724
0.0036422396
0.0036296897
0.0036165808
0.003602973
0.0035888912
0.0035743491
0.0035593752
0.0035439901
0.003528207
0.0035120396
0.0034955057
0.003478599
0.0034613097
0.0034436433
0.0034255977
0.0034071708
0.0033883571
0.0033691546
0.0033495623
0.003329556
0.0033091161
0.0032882358
0.0032669014
0.0032450963
0.003222808
0.0032000149
0.0031767099
0.0031528686
0.0031284444
0.0031034222
0.0030777772
0.0030514791
0.0030244991
0.002996805
0.002968365
0.0029391486
0.0029091021
0.0028781731
0.002846322
0.0028134986
0.002779647
0.0027447134
0.002708631
0.0026713449
0.0026327779
0.002592829
0.0025514242
0.0025084699
0.0024638637
0.0024174993
0.0023692553
0.0023190128
0.0022666253
0.0022119209
0.0021547431
0.0020949048
0.0020322111
0.0019664427
0.0018973864
0.0018247767
0.0017483353
0.0016681552
0.0015847729
0.0015000608
0.0014163028
0.0013341341
0.0012534389
0.001174232
0.0010965497
0.0010204383
0.00094597147
0.00087326949
0.00080248047
0.00073378169
0.00066741895
0.00060372524
0.0005431149
0.00048622326
0.0004336949
0.00038709235
0.00034683342
0.00031897519
0.00029625146
0.0004371462
-0.00038985628
0.011727226
0.011833598
0.012054718
0.012333943
0.012674515
0.013075625
0.013534066
0.014049004
0.014622002
0.015256345
0.015957026
0.016731224
0.017588825
0.018543937
0.019615252
0.020832659
0.022230985
0.023889613
0.025858112
0.028445198
0.031522318
0.036894542
0.041897031
0.082938062
0.052264316
0.001546993
0.00079200966
0.0018732615
0.0023896845
0.0028103017
0.0030748484
0.0032655999
0.0034048175
0.0035021892
0.003570498
0.0036193385
0.0036542956
0.0036789136
0.0036956225
0.0037064283
0.0037126859
0.0037153071
0.0037149978
0.0037123783
0.0037078659
0.0037017129
0.0036942145
0.0036855645
0.0036759402
0.0036654647
0.0036542138
0.0036422783
0.003629726
0.003616615
0.0036030051
0.0035889215
0.0035743777
0.0035594022
0.0035440157
0.0035282312
0.0035120625
0.0034955274
0.0034786197
0.0034613293
0.0034436619
0.0034256154
0.0034071877
0.0033883731
0.0033691699
0.0033495769
0.0033295699
0.0033091294
0.0032882484
0.0032669135
0.0032451078
0.0032228191
0.0032000254
0.0031767199
0.0031528783
0.0031284537
0.003103431
0.0030777857
0.0030514872
0.0030245068
0.0029968124
0.002968372
0.0029391553
0.0029091085
0.0028781792
0.0028463279
0.0028135042
0.0027796524
0.0027447185
0.0027086359
0.0026713496
0.0026327823
0.0025928332
0.0025514282
0.0025084737
0.0024638673
0.0024175028
0.0023692586
0.0023190159
0.0022666283
0.0022119237
0.0021547458
0.0020949074
0.0020322135
0.0019664449
0.0018973885
0.0018247787
0.0017483372
0.0016681569
0.0015847746
0.0015000623
0.0014163043
0.0013341355
0.0012534402
0.0011742332
0.0010965509
0.0010204394
0.00094597255
0.00087327053
0.00080248146
0.00073378264
0.00066741986
0.00060372612
0.00054311574
0.00048622408
0.0004336957
0.00038709313
0.00034683419
0.00031897597
0.00029625221
0.00043714705
-0.00038985577
0.011727226
0.011833598
0.012054718
0.012333943
0.012674515
0.013075625
0.013534066
0.014049005
0.014622003
0.015256346
0.015957027
0.016731225
0.017588827
0.018543939
0.019615255
0.020832662
0.02223099
0.023889621
0.025858122
0.028445214
0.031522339
0.03689458
0.041897118
0.082929844
0.052287974
0.0015563304
0.00079485787
0.0018746308
0.0023905209
0.0028108922
0.0030752952
0.0032659545
0.0034051074
0.003502432
0.0035707052
0.0036195178
0.0036544526
0.0036790524
0.0036957462
0.0037065394
0.0037127862
0.0037153983
0.003715081
0.0037124546
0.0037079361
0.0037017776
0.0036942744
0.0036856201
0.003675992
0.003665513
0.0036542589
0.0036423206
0.0036297657
0.0036166522
0.0036030402
0.0035889546
0.0035744089
0.0035594317
0.0035440436
0.0035282576
0.0035120876
0.0034955512
0.0034786422
0.0034613507
0.0034436822
0.0034256348
0.0034072061
0.0033883907
0.0033691866
0.0033495928
0.0033295851
0.0033091439
0.0032882623
0.0032669267
0.0032451204
0.0032228311
0.0032000369
0.0031767309
0.0031528888
0.0031284637
0.0031034406
0.0030777948
0.0030514959
0.0030245152
0.0029968204
0.0029683797
0.0029391626
0.0029091155
0.0028781859
0.0028463343
0.0028135103
0.0027796582
0.0027447241
0.0027086412
0.0026713546
0.0026327871
0.0025928378
0.0025514326
0.0025084779
0.0024638713
0.0024175066
0.0023692622
0.0023190193
0.0022666315
0.0022119268
0.0021547487
0.0020949101
0.0020322161
0.0019664474
0.0018973908
0.0018247809
0.0017483392
0.0016681589
0.0015847764
0.0015000641
0.0014163059
0.0013341371
0.0012534416
0.0011742346
0.0010965522
0.0010204406
0.00094597374
0.00087327166
0.00080248254
0.00073378367
0.00066742086
0.00060372708
0.00054311667
0.00048622498
0.00043369657
0.00038709399
0.00034683503
0.00031897682
0.00029625303
0.00043714799
-0.00038985522
0.011727226
0.011833598
0.012054718
0.012333943
0.012674516
0.013075625
0.013534067
0.014049005
0.014622004
0.015256347
0.015957028
0.016731226
0.017588829
0.018543941
0.019615259
0.020832667
0.022230996
0.023889629
0.025858134
0.028445233
0.031522365
0.036894627
0.041897219
0.082920407
0.052313392
0.0015665646
0.00079798806
0.0018761359
0.0023914405
0.0028115414
0.0030757865
0.0032663443
0.0034054263
0.0035026989
0.0035709329
0.0036197149
0.0036546252
0.0036792051
0.0036958823
0.0037066616
0.0037128966
0.0037154985
0.0037151724
0.0037125384
0.0037080132
0.0037018488
0.0036943403
0.0036856813
0.0036760489
0.0036655661
0.0036543085
0.0036423671
0.0036298093
0.0036166932
0.0036030788
0.0035889909
0.0035744432
0.0035594641
0.0035440742
0.0035282866
0.0035121151
0.0034955773
0.003478667
0.0034613742
0.0034437046
0.0034256561
0.0034072264
0.00338841
0.003369205
0.0033496104
0.0033296018
0.0033091598
0.0032882775
0.0032669413
0.0032451343
0.0032228444
0.0032000496
0.003176743
0.0031529004
0.0031284748
0.0031034512
0.0030778049
0.0030515056
0.0030245244
0.0029968292
0.0029683881
0.0029391707
0.0029091232
0.0028781933
0.0028463413
0.002813517
0.0027796646
0.0027447302
0.0027086471
0.0026713602
0.0026327924
0.0025928429
0.0025514374
0.0025084825
0.0024638757
0.0024175107
0.0023692662
0.0023190231
0.0022666351
0.0022119302
0.0021547519
0.0020949131
0.002032219
0.0019664501
0.0018973934
0.0018247833
0.0017483415
0.001668161
0.0015847784
0.0015000659
0.0014163077
0.0013341387
0.0012534432
0.0011742361
0.0010965537
0.001020442
0.00094597504
0.0008732729
0.00080248373
0.00073378481
0.00066742195
0.00060372813
0.00054311769
0.00048622597
0.00043369753
0.00038709493
0.00034683595
0.00031897775
0.00029625394
0.00043714902
-0.00038985461
0.011727226
0.011833598
0.012054718
0.012333944
0.012674516
0.013075626
0.013534067
0.014049006
0.014622005
0.015256348
0.015957029
0.016731228
0.017588831
0.018543945
0.019615263
0.020832673
0.022231004
0.02388964
0.025858148
0.028445256
0.031522396
0.036894685
0.041897337
0.082909492
0.052340774
0.0015778443
0.00080144675
0.0018777994
0.0023924571
0.0028122591
0.0030763296
0.0032667752
0.0034057787
0.003502994
0.0035711846
0.0036199328
0.003654816
0.0036793737
0.0036960327
0.0037067966
0.0037130186
0.0037156093
0.0037152736
0.003712631
0.0037080984
0.0037019275
0.0036944131
0.0036857489
0.0036761118
0.0036656248
0.0036543634
0.0036424185
0.0036298575
0.0036167385
0.0036031214
0.0035890311
0.0035744811
0.0035595
0.0035441081
0.0035283187
0.0035121455
0.0034956061
0.0034786944
0.0034614002
0.0034437293
0.0034256796
0.0034072488
0.0033884313
0.0033692253
0.0033496297
0.0033296203
0.0033091775
0.0032882943
0.0032669573
0.0032451497
0.0032228591
0.0032000636
0.0031767564
0.0031529132
0.003128487
0.0031034628
0.0030778161
0.0030515163
0.0030245346
0.002996839
0.0029683974
0.0029391796
0.0029091317
0.0028782014
0.0028463491
0.0028135245
0.0027796717
0.002744737
0.0027086535
0.0026713664
0.0026327983
0.0025928485
0.0025514428
0.0025084876
0.0024638805
0.0024175153
0.0023692706
0.0023190272
0.002266639
0.0022119339
0.0021547554
0.0020949165
0.0020322222
0.0019664531
0.0018973962
0.0018247859
0.001748344
0.0016681633
0.0015847806
0.001500068
0.0014163096
0.0013341406
0.001253445
0.0011742378
0.0010965552
0.0010204435
0.00094597647
0.00087327427
0.00080248504
0.00073378607
0.00066742316
0.0006037293
0.00054311882
0.00048622706
0.0004336986
0.00038709597
0.00034683698
0.00031897879
0.00029625493
0.00043715016
-0.00038985394
0.011727226
0.011833598
0.012054718
0.012333944
0.012674516
0.013075626
0.013534068
0.014049007
0.014622006
0.01525635
0.015957031
0.016731231
0.017588834
0.018543949
0.019615268
0.02083268
0.022231013
0.023889654
0.025858166
0.028445285
0.031522434
0.036894757
0.041897477
0.082896789
0.052370307
0.0015903307
0.00080528517
0.0018796458
0.0023935859
0.002813056
0.0030769327
0.0032672537
0.00340617
0.0035033216
0.0035714641
0.0036201747
0.0036550279
0.0036795611
0.0036961997
0.0037069465
0.003713154
0.0037157323
0.0037153858
0.0037127339
0.003708193
0.0037020148
0.003694494
0.0036858239
0.0036761817
0.0036656899
0.0036544243
0.0036424755
0.0036299111
0.0036167889
0.0036031688
0.0035890758
0.0035745232
0.0035595398
0.0035441458
0.0035283543
0.0035121793
0.0034956382
0.0034787248
0.0034614291
0.0034437568
0.0034257058
0.0034072737
0.003388455
0.0033692479
0.0033496513
0.0033296408
0.0033091971
0.003288313
0.0032669752
0.0032451667
0.0032228753
0.0032000792
0.0031767713
0.0031529274
0.0031285006
0.0031034758
0.0030778285
0.0030515281
0.003024546
0.0029968498
0.0029684078
0.0029391895
0.0029091412
0.0028782104
0.0028463578
0.0028135327
0.0027796796
0.0027447445
0.0027086607
0.0026713732
0.0026328048
0.0025928547
0.0025514487
0.0025084932
0.0024638859
0.0024175205
0.0023692754
0.0023190319
0.0022666434
0.0022119381
0.0021547593
0.0020949202
0.0020322257
0.0019664564
0.0018973993
0.0018247889
0.0017483468
0.001668166
0.0015847831
0.0015000703
0.0014163118
0.0013341426
0.0012534469
0.0011742396
0.001096557
0.0010204452
0.00094597807
0.0008732758
0.0008024865
0.00073378748
0.00066742451
0.0006037306
0.00054312007
0.00048622827
0.00043369978
0.00038709713
0.00034683811
0.00031897994
0.00029625604
0.00043715142
-0.00038985319
0.011727226
0.011833598
0.012054719
0.012333944
0.012674517
0.013075627
0.013534069
0.014049008
0.014622007
0.015256351
0.015957033
0.016731234
0.017588838
0.018543954
0.019615275
0.020832689
0.022231025
0.02388967
0.025858187
0.028445319
0.03152248
0.036894843
0.041897639
0.082881928
0.052402153
0.0016042053
0.00080956017
0.0018817027
0.0023948439
0.002813944
0.0030776047
0.0032677869
0.0034066061
0.0035036867
0.0035717756
0.0036204443
0.0036552639
0.0036797698
0.0036963857
0.0037071136
0.003713305
0.0037158694
0.0037155109
0.0037128486
0.0037082985
0.0037021121
0.0036945841
0.0036859076
0.0036762595
0.0036657626
0.0036544922
0.0036425391
0.0036299707
0.0036168449
0.0036032215
0.0035891255
0.0035745702
0.0035595841
0.0035441877
0.0035283941
0.0035122169
0.0034956739
0.0034787587
0.0034614613
0.0034437874
0.0034257349
0.0034073014
0.0033884814
0.0033692731
0.0033496753
0.0033296637
0.0033092189
0.0032883339
0.0032669951
0.0032451857
0.0032228935
0.0032000965
0.0031767879
0.0031529432
0.0031285157
0.0031034903
0.0030778424
0.0030515414
0.0030245586
0.0029968619
0.0029684194
0.0029392006
0.0029091517
0.0028782205
0.0028463674
0.0028135419
0.0027796884
0.0027447529
0.0027086687
0.0026713809
0.0026328121
0.0025928617
0.0025514553
0.0025084995
0.0024638919
0.0024175261
0.0023692808
0.002319037
0.0022666483
0.0022119427
0.0021547637
0.0020949244
0.0020322296
0.0019664601
0.0018974028
0.0018247922
0.0017483499
0.0016681689
0.0015847858
0.0015000729
0.0014163142
0.0013341449
0.0012534491
0.0011742417
0.001096559
0.001020447
0.00094597985
0.0008732775
0.00080248813
0.00073378904
0.00066742601
0.00060373204
0.00054312147
0.00048622962
0.00043370109
0.00038709841
0.00034683938
0.00031898122
0.00029625728
0.00043715283
-0.00038985236
0.011727226
0.011833599
0.012054719
0.012333945
0.012674517
0.013075628
0.01353407
0.014049009
0.014622009
0.015256354
0.015957036
0.016731237
0.017588842
0.018543959
0.019615282
0.020832699
0.022231038
0.023889689
0.025858212
0.02844536
0.031522535
0.036894946
0.041897829
0.082864461
0.052436436
0.0016196734
0.00081433504
0.0018840007
0.0023962498
0.0028149364
0.0030783557
0.0032683828
0.0034070934
0.0035040947
0.0035721236
0.0036207456
0.0036555277
0.003680003
0.0036965937
0.0037073003
0.0037134736
0.0037160226
0.0037156508
0.0037129767
0.0037084163
0.0037022209
0.0036946848
0.0036860011
0.0036763466
0.0036658437
0.0036545681
0.0036426102
0.0036300374
0.0036169076
0.0036032805
0.0035891811
0.0035746226
0.0035596337
0.0035442346
0.0035284385
0.003512259
0.0034957138
0.0034787966
0.0034614973
0.0034438217
0.0034257674
0.0034073324
0.0033885109
0.0033693012
0.0033497021
0.0033296893
0.0033092433
0.0032883572
0.0032670173
0.0032452069
0.0032229138
0.0032001159
0.0031768064
0.0031529609
0.0031285326
0.0031035065
0.0030778578
0.0030515561
0.0030245727
0.0029968754
0.0029684323
0.0029392129
0.0029091635
0.0028782318
0.0028463782
0.0028135522
0.0027796982
0.0027447623
0.0027086777
0.0026713894
0.0026328203
0.0025928694
0.0025514627
0.0025085066
0.0024638986
0.0024175325
0.0023692869
0.0023190428
0.0022666537
0.0022119479
0.0021547686
0.002094929
0.002032234
0.0019664643
0.0018974067
0.0018247959
0.0017483533
0.0016681721
0.0015847889
0.0015000758
0.001416317
0.0013341475
0.0012534515
0.001174244
0.0010965611
0.0010204491
0.00094598184
0.0008732794
0.00080248995
0.00073379079
0.00066742769
0.00060373366
0.00054312303
0.00048623114
0.00043370256
0.00038709985
0.00034684079
0.00031898266
0.00029625866
0.00043715441
-0.00038985142
0.011727226
0.011833599
0.012054719
0.012333945
0.012674518
0.013075628
0.013534071
0.01404901
0.01462201
0.015256356
0.015957039
0.016731241
0.017588848
0.018543966
0.019615291
0.020832711
0.022231054
0.023889711
0.025858241
0.028445408
0.031522599
0.036895068
0.04189805
0.082843851
0.052473228
0.0016369681
0.00081968047
0.0018865739
0.0023978249
0.0028160482
0.0030791971
0.0032690503
0.0034076393
0.0035045518
0.0035725135
0.003621083
0.0036558232
0.0036802643
0.0036968266
0.0037075095
0.0037136626
0.0037161943
0.0037158074
0.0037131202
0.0037085484
0.0037023428
0.0036947976
0.0036861058
0.003676444
0.0036659347
0.0036546531
0.0036426898
0.0036301121
0.0036169778
0.0036033466
0.0035892434
0.0035746814
0.0035596892
0.0035442871
0.0035284882
0.0035123061
0.0034957585
0.003478839
0.0034615377
0.00344386
0.0034258039
0.0034073671
0.003388544
0.0033693327
0.0033497321
0.0033297179
0.0033092706
0.0032883832
0.0032670422
0.0032452307
0.0032229365
0.0032001376
0.0031768271
0.0031529807
0.0031285516
0.0031035246
0.0030778751
0.0030515727
0.0030245886
0.0029968905
0.0029684467
0.0029392267
0.0029091767
0.0028782444
0.0028463902
0.0028135637
0.0027797092
0.0027447728
0.0027086877
0.0026713989
0.0026328294
0.0025928781
0.002551471
0.0025085145
0.0024639061
0.0024175397
0.0023692937
0.0023190492
0.0022666598
0.0022119537
0.0021547741
0.0020949342
0.0020322389
0.0019664689
0.0018974111
0.0018248
0.0017483572
0.0016681758
0.0015847923
0.001500079
0.00141632
0.0013341504
0.0012534542
0.0011742466
0.0010965636
0.0010204515
0.00094598407
0.00087328153
0.00080249199
0.00073379274
0.00066742957
0.00060373547
0.00054312478
0.00048623283
0.00043370421
0.00038710147
0.00034684238
0.00031898426
0.00029626021
0.00043715618
-0.00038985038
0.011727226
0.011833599
0.01205472
0.012333946
0.012674519
0.01307563
0.013534072
0.014049012
0.014622013
0.015256359
0.015957043
0.016731246
0.017588854
0.018543974
0.019615302
0.020832725
0.022231073
0.023889737
0.025858276
0.028445463
0.031522673
0.036895209
0.041898308
0.082819452
0.052512525
0.0016563569
0.00082567563
0.0018894607
0.0023995926
0.0028172958
0.0030801413
0.0032697994
0.0034082519
0.0035050647
0.0035729511
0.0036214618
0.0036561549
0.0036805575
0.003697088
0.0037077442
0.0037138746
0.0037163869
0.0037159831
0.0037132813
0.0037086965
0.0037024795
0.0036949243
0.0036862234
0.0036765534
0.0036660367
0.0036547485
0.0036427792
0.003630196
0.0036170566
0.0036034208
0.0035893133
0.0035747474
0.0035597515
0.0035443461
0.003528544
0.003512359
0.0034958087
0.0034788866
0.0034615829
0.003443903
0.0034258448
0.0034074061
0.0033885811
0.0033693681
0.0033497658
0.0033297501
0.0033093013
0.0032884125
0.0032670702
0.0032452574
0.003222962
0.003200162
0.0031768504
0.003153003
0.0031285728
0.0031035449
0.0030778946
0.0030515913
0.0030246063
0.0029969075
0.002968463
0.0029392422
0.0029091916
0.0028782586
0.0028464038
0.0028135767
0.0027797216
0.0027447846
0.0027086989
0.0026714097
0.0026328396
0.0025928879
0.0025514803
0.0025085233
0.0024639145
0.0024175477
0.0023693013
0.0023190564
0.0022666667
0.0022119602
0.0021547803
0.0020949401
0.0020322444
0.0019664741
0.001897416
0.0018248046
0.0017483616
0.0016681799
0.0015847961
0.0015000826
0.0014163234
0.0013341536
0.0012534573
0.0011742495
0.0010965664
0.0010204541
0.00094598658
0.00087328393
0.00080249429
0.00073379494
0.00066743169
0.00060373751
0.00054312674
0.00048623474
0.00043370606
0.00038710328
0.00034684416
0.00031898607
0.00029626195
0.00043715816
-0.0003898492
0.011727226
0.0118336
0.01205472
0.012333947
0.01267452
0.013075631
0.013534074
0.014049014
0.014622015
0.015256362
0.015957047
0.016731252
0.017588861
0.018543984
0.019615314
0.020832741
0.022231095
0.023889768
0.025858316
0.028445526
0.031522759
0.03689537
0.041898607
0.082790489
0.052554229
0.00167815
0.00083240941
0.0018927038
0.0024015796
0.0028186982
0.0030812025
0.0032706414
0.0034089405
0.0035056412
0.0035734429
0.0036218874
0.0036565276
0.0036808871
0.0036973818
0.003708008
0.0037141129
0.0037166033
0.0037161807
0.0037134623
0.0037088631
0.0037026332
0.0036950666
0.0036863555
0.0036766764
0.0036661514
0.0036548557
0.0036428796
0.0036302902
0.0036171452
0.0036035041
0.0035893918
0.0035748215
0.0035598216
0.0035444123
0.0035286068
0.0035124185
0.0034958651
0.0034789402
0.0034616338
0.0034439514
0.0034258909
0.0034074499
0.0033886228
0.0033694078
0.0033498037
0.0033297862
0.0033093358
0.0032884454
0.0032671016
0.0032452874
0.0032229907
0.0032001894
0.0031768766
0.003153028
0.0031285968
0.0031035678
0.0030779164
0.0030516122
0.0030246263
0.0029969266
0.0029684812
0.0029392597
0.0029092082
0.0028782745
0.002846419
0.0028135912