/*--------------------------------*- C++ -*----------------------------------*\
| =========                 |                                                 |
| \\      /  F ield         | OpenFOAM: The Open Source CFD Toolbox           |
|  \\    /   O peration     | Version:  2206                                  |
|   \\  /    A nd           | Website:  www.openfoam.com                      |
|    \\/     M anipulation  |                                                 |
\*---------------------------------------------------------------------------*/
FoamFile
{
    version     2.0;
    format      ascii;
    arch        "LSB;label=32;scalar=64";
    class       surfaceScalarField;
    location    "1200";
    object      phi;
}
// * * * * * * * * * * * * * * * * * * * * * * * * * * * * * * * * * * * * * //

dimensions      [0 3 -1 0 0 0 0];

oriented        oriented;

internalField   nonuniform List<scalar> 
25880
(
2.0046317e-06
2.2414327e-11
2.0045802e-06
5.1484668e-11
2.0045173e-06
6.2950086e-11
2.004446e-06
7.1272955e-11
2.0043636e-06
8.2421621e-11
2.0042687e-06
9.4938392e-11
2.0041596e-06
1.0904165e-10
2.0040341e-06
1.2551533e-10
2.0038891e-06
1.45032e-10
2.0037208e-06
1.6832491e-10
2.0035244e-06
1.9636816e-10
2.0032937e-06
2.3064278e-10
2.0030207e-06
2.7301432e-10
2.0026936e-06
3.2712059e-10
2.0022975e-06
3.9606295e-10
2.001805e-06
4.9251985e-10
2.0011899e-06
6.1514505e-10
2.0003598e-06
8.3003644e-10
1.9993009e-06
1.0589093e-09
1.9975669e-06
1.7340149e-09
1.9953973e-06
2.1696523e-09
1.9902404e-06
5.1568769e-09
1.9886416e-06
1.5987977e-09
9.9889497e-07
9.8974662e-07
4.410722e-09
9.9448425e-07
2.1159023e-09
2.2948196e-09
1.6028349e-09
5.1306748e-10
1.3543664e-09
2.4846844e-10
1.2014798e-09
1.5288665e-10
1.0925365e-09
1.089433e-10
1.0093227e-09
8.3213737e-11
9.4264888e-10
6.6673868e-11
8.8758118e-10
5.5067698e-11
8.4100472e-10
4.6576465e-11
8.00853e-10
4.015172e-11
7.6572564e-10
3.5127364e-11
7.346283e-10
3.109734e-11
7.0682327e-10
2.7805029e-11
6.8174803e-10
2.507524e-11
6.5896735e-10
2.2780683e-11
6.381403e-10
2.082705e-11
6.189879e-10
1.9152401e-11
6.0128774e-10
1.7700157e-11
5.8485892e-10
1.6428821e-11
5.6954544e-10
1.5313482e-11
5.5521957e-10
1.4325871e-11
5.4177232e-10
1.3447243e-11
5.2911087e-10
1.2661452e-11
5.1715566e-10
1.1955217e-11
5.0583795e-10
1.131771e-11
4.9509768e-10
1.0740265e-11
4.8488227e-10
1.0215416e-11
4.7514547e-10
9.7367978e-12
4.6584649e-10
9.2989765e-12
4.5694936e-10
8.8971275e-12
4.4842202e-10
8.5273398e-12
4.4023559e-10
8.1864361e-12
4.3236413e-10
7.8714589e-12
4.2478436e-10
7.5797707e-12
4.1747519e-10
7.3091751e-12
4.1041753e-10
7.0576563e-12
4.0359422e-10
6.8233133e-12
3.9698955e-10
6.6046657e-12
3.9058903e-10
6.4005231e-12
3.8437937e-10
6.2096604e-12
3.7834842e-10
6.0309468e-12
3.7248499e-10
5.8634314e-12
3.6677871e-10
5.7062797e-12
3.6122007e-10
5.5586406e-12
3.5580038e-10
5.4196888e-12
3.505115e-10
5.288886e-12
3.453457e-10
5.1658003e-12
3.4029583e-10
5.0498692e-12
3.3535524e-10
4.9405873e-12
3.305177e-10
4.8375353e-12
3.2577736e-10
4.7403413e-12
3.2112869e-10
4.6486701e-12
3.1656665e-10
4.5620415e-12
3.1208652e-10
4.4801321e-12
3.0768364e-10
4.4028859e-12
3.0335358e-10
4.3300601e-12
2.9909223e-10
4.2613416e-12
2.9489569e-10
4.1965428e-12
2.9076021e-10
4.135485e-12
2.866822e-10
4.0780096e-12
2.8265828e-10
4.023916e-12
2.7868532e-10
3.9729641e-12
2.7476023e-10
3.9250888e-12
2.7087994e-10
3.8802866e-12
2.6704153e-10
3.8384082e-12
2.6324221e-10
3.7993245e-12
2.5947925e-10
3.7629593e-12
2.5575e-10
3.7292477e-12
2.5205187e-10
3.698134e-12
2.4838242e-10
3.6694474e-12
2.447393e-10
3.6431272e-12
2.4112002e-10
3.6192791e-12
2.3752216e-10
3.5978549e-12
2.3394339e-10
3.5787768e-12
2.3038134e-10
3.5620455e-12
2.2683368e-10
3.5476627e-12
2.2329805e-10
3.535626e-12
2.1977218e-10
3.5258688e-12
2.1625376e-10
3.5184209e-12
2.1274035e-10
3.5134108e-12
2.0922948e-10
3.5108686e-12
2.0571866e-10
3.5108217e-12
2.0220528e-10
3.5133798e-12
1.9868667e-10
3.5186169e-12
1.9516009e-10
3.5265773e-12
1.916222e-10
3.53789e-12
1.8807083e-10
3.5513652e-12
1.8450408e-10
3.566749e-12
1.8106772e-10
3.4363653e-12
1.7783254e-10
3.2351779e-12
1.747795e-10
3.0530417e-12
1.7189401e-10
2.8854892e-12
1.6916228e-10
2.7317282e-12
1.6657109e-10
2.591191e-12
1.6410852e-10
2.4625705e-12
1.6176381e-10
2.344714e-12
1.5952719e-10
2.2366228e-12
1.5738982e-10
2.1373636e-12
1.5534366e-10
2.0461662e-12
1.5338115e-10
1.9625118e-12
1.5149514e-10
1.8860086e-12
1.4967864e-10
1.8164959e-12
1.4792477e-10
1.7538704e-12
1.4622576e-10
1.6990121e-12
1.4457405e-10
1.6517099e-12
1.4295637e-10
1.617679e-12
1.4136782e-10
1.5885511e-12
1.3975676e-10
1.6110559e-12
1.3820517e-10
1.5515898e-12
1.3643738e-10
1.7677921e-12
1.0495861e-12
2.0345052e-06
4.524229e-11
2.0344528e-06
1.0393028e-10
2.0343887e-06
1.2708573e-10
2.034316e-06
1.4388979e-10
2.0342321e-06
1.6639578e-10
2.0341353e-06
1.9166252e-10
2.0340242e-06
2.201305e-10
2.0338964e-06
2.5338196e-10
2.0337486e-06
2.9277427e-10
2.0335772e-06
3.397871e-10
2.0333772e-06
3.9638607e-10
2.0331422e-06
4.655597e-10
2.0328642e-06
5.5107222e-10
2.032531e-06
6.602642e-10
2.0321277e-06
7.9939266e-10
2.0316262e-06
9.9404079e-10
2.0309999e-06
1.2414867e-09
2.0301548e-06
1.6751038e-09
2.0290768e-06
2.1369089e-09
2.0273118e-06
3.4990445e-09
2.0251033e-06
4.3780733e-09
2.019855e-06
1.0405205e-08
2.0182236e-06
3.2301679e-09
1.0201958e-06
1.9877744e-06
1.3457643e-08
2.0012225e-06
6.474138e-09
9.2783246e-09
4.904466e-09
2.0827394e-09
4.1441891e-09
1.0087453e-09
3.6763553e-09
6.2072051e-10
3.3429879e-09
4.4231069e-10
3.0883551e-09
3.378465e-10
2.8843358e-09
2.706932e-10
2.7158308e-09
2.2357268e-10
2.5733095e-09
1.8909776e-10
2.4504482e-09
1.6301308e-10
2.3429613e-09
1.426142e-10
2.2478062e-09
1.2625245e-10
2.1627254e-09
1.1288584e-10
2.0859976e-09
1.0180306e-10
2.016291e-09
9.2487324e-11
1.9525622e-09
8.4555793e-11
1.8939578e-09
7.7756802e-11
1.8397972e-09
7.1860803e-11
1.7895266e-09
6.6699387e-11
1.7426689e-09
6.2171209e-11
1.6988331e-09
5.8161617e-11
1.6576859e-09
5.4594486e-11
1.6189431e-09
5.1404265e-11
1.5823613e-09
4.8537032e-11
1.5477301e-09
4.5948832e-11
1.5148659e-09
4.3604473e-11
1.4836077e-09
4.1473651e-11
1.453814e-09
3.9530517e-11
1.4253599e-09
3.7753015e-11
1.3981355e-09
3.6121557e-11
1.3720426e-09
3.4620265e-11
1.3469928e-09
3.3236237e-11
1.3229068e-09
3.1957467e-11
1.2997133e-09
3.0773249e-11
1.2773478e-09
2.9674663e-11
1.2557519e-09
2.8653527e-11
1.2348731e-09
2.7702123e-11
1.2146634e-09
2.681444e-11
1.1950782e-09
2.5985646e-11
1.1760771e-09
2.5210765e-11
1.1576229e-09
2.448521e-11
1.1396812e-09
2.3805117e-11
1.1222204e-09
2.3167099e-11
1.1052113e-09
2.2567701e-11
1.0886274e-09
2.2003574e-11
1.0724438e-09
2.147253e-11
1.0566368e-09
2.0972816e-11
1.0411845e-09
2.0502149e-11
1.0260666e-09
2.0058477e-11
1.011264e-09
1.9640097e-11
9.9675886e-10
1.9245501e-11
9.8253421e-10
1.8873325e-11
9.6857463e-10
1.8521623e-11
9.5486568e-10
1.8189081e-11
9.4139309e-10
1.787547e-11
9.2814335e-10
1.7579805e-11
9.1510388e-10
1.7300815e-11
9.0226268e-10
1.7037739e-11
8.8960831e-10
1.6789851e-11
8.7712982e-10
1.6556507e-11
8.6481684e-10
1.6336893e-11
8.5265977e-10
1.6130034e-11
8.4064919e-10
1.5935666e-11
8.2877571e-10
1.5753773e-11
8.1703036e-10
1.5583752e-11
8.0540461e-10
1.5425076e-11
7.9389013e-10
1.5277438e-11
7.8247881e-10
1.5140572e-11
7.7116269e-10
1.5014254e-11
7.5993435e-10
1.489779e-11
7.4878654e-10
1.4790933e-11
7.3771171e-10
1.4694113e-11
7.2670243e-10
1.4607133e-11
7.1575153e-10
1.4529679e-11
7.0485182e-10
1.4461752e-11
6.9399612e-10
1.4403361e-11
6.8317726e-10
1.4354494e-11
6.7238824e-10
1.4314882e-11
6.6162202e-10
1.4284646e-11
6.5087112e-10
1.4264307e-11
6.40128e-10
1.4253988e-11
6.2938502e-10
1.42538e-11
6.1863421e-10
1.4264189e-11
6.0786738e-10
1.4285454e-11
5.9707618e-10
1.4317776e-11
5.8625036e-10
1.4363709e-11
5.753833e-10
1.4418422e-11
5.6446916e-10
1.4480896e-11
5.5395396e-10
1.3951559e-11
5.4405439e-10
1.3134747e-11
5.3471215e-10
1.2395287e-11
5.258826e-10
1.1715042e-11
5.1752354e-10
1.109079e-11
5.095945e-10
1.0520223e-11
5.0205904e-10
9.9980367e-12
4.948842e-10
9.51955e-12
4.8804012e-10
9.0807085e-12
4.8149976e-10
8.6777236e-12
4.7523845e-10
8.3074685e-12
4.6923313e-10
7.9678368e-12
4.634619e-10
7.6572374e-12
4.5790338e-10
7.3750179e-12
4.5253649e-10
7.120759e-12
4.4733747e-10
6.8980324e-12
4.422832e-10
6.7059793e-12
4.3733308e-10
6.5678043e-12
4.3247211e-10
6.4495189e-12
4.2754229e-10
6.54087e-12
4.2279507e-10
6.2988155e-12
4.1738123e-10
7.1816269e-12
4.2543924e-12
2.0946975e-06
6.8849983e-11
2.0946432e-06
1.5818212e-10
2.0945769e-06
1.9344474e-10
2.0945017e-06
2.1902614e-10
2.0944148e-06
2.532814e-10
2.0943148e-06
2.9173672e-10
2.0941998e-06
3.3506186e-10
2.0940676e-06
3.856645e-10
2.0939147e-06
4.4560998e-10
2.0937374e-06
5.1714939e-10
2.0935305e-06
6.0327299e-10
2.0932875e-06
7.0852717e-10
2.0929999e-06
8.3863797e-10
2.0926554e-06
1.0047723e-09
2.0922384e-06
1.2164467e-09
2.0917198e-06
1.5125799e-09
2.0910723e-06
1.8890207e-09
2.0901987e-06
2.5486622e-09
2.0890845e-06
3.2511351e-09
2.0872605e-06
5.3230721e-09
2.0849783e-06
6.6602213e-09
2.0795556e-06
1.5827935e-08
2.0778655e-06
4.9202761e-09
1.0570857e-06
3.0085542e-06
2.32691e-08
3.035039e-06
1.1219529e-08
2.1327895e-08
8.4995635e-09
4.8027054e-09
7.1820096e-09
2.3262993e-09
6.3712022e-09
1.4315279e-09
5.793443e-09
1.0200698e-09
5.35214e-09
7.7914949e-10
4.9985573e-09
6.2427594e-10
4.7065241e-09
5.1560588e-10
4.4595235e-09
4.3609835e-10
4.2465959e-09
3.7594074e-10
4.0603138e-09
3.2889628e-10
3.8954036e-09
2.911626e-10
3.747953e-09
2.6033646e-10
3.6149787e-09
2.3477734e-10
3.4941726e-09
2.1329343e-10
3.3837265e-09
1.9500192e-10
3.2821613e-09
1.7932202e-10
3.1882974e-09
1.6572468e-10
3.1011751e-09
1.5382167e-10
3.0199675e-09
1.4337883e-10
2.9439971e-09
1.3413198e-10
2.8726861e-09
1.2590554e-10
2.805542e-09
1.1854832e-10
2.7421431e-09
1.1193597e-10
2.6821248e-09
1.0596712e-10
2.6251687e-09
1.0056061e-10
2.5709957e-09
9.5646555e-11
2.5193609e-09
9.1165341e-11
2.4700478e-09
8.7066103e-11
2.4228657e-09
8.3303672e-11
2.3776446e-09
7.9841427e-11
2.3342312e-09
7.6649612e-11
2.2924881e-09
7.370054e-11
2.2522918e-09
7.096952e-11
2.2135305e-09
6.8435984e-11
2.176103e-09
6.6081059e-11
2.1399182e-09
6.3886951e-11
2.1048928e-09
6.1839797e-11
2.07095e-09
5.9928446e-11
2.0380193e-09
5.8141432e-11
2.0060364e-09
5.6468168e-11
1.9749417e-09
5.489975e-11
1.9446805e-09
5.3428364e-11
1.9152021e-09
5.2046043e-11
1.8864606e-09
5.0745062e-11
1.8584128e-09
4.9520379e-11
1.8310177e-09
4.8367946e-11
1.8042373e-09
4.72825e-11
1.7780365e-09
4.625931e-11
1.7523821e-09
4.5294449e-11
1.7272432e-09
4.4384435e-11
1.7025904e-09
4.3526129e-11
1.678397e-09
4.2715038e-11
1.6546379e-09
4.1948135e-11
1.6312885e-09
4.1224889e-11
1.6083253e-09
4.054303e-11
1.5857265e-09
3.9899626e-11
1.5634713e-09
3.9292923e-11
1.5415399e-09
3.8721247e-11
1.5199133e-09
3.8183111e-11
1.4985735e-09
3.7676638e-11
1.477504e-09
3.7199583e-11
1.4566883e-09
3.6751334e-11
1.4361102e-09
3.6331855e-11
1.4157542e-09
3.5939753e-11
1.3956055e-09
3.5573817e-11
1.3756496e-09
3.5233335e-11
1.3558725e-09
3.4917698e-11
1.3362603e-09
3.4626384e-11
1.3168003e-09
3.4357796e-11
1.2974799e-09
3.4111366e-11
1.2782859e-09
3.3888081e-11
1.2592056e-09
3.3687491e-11
1.2402264e-09
3.3508869e-11
1.2213359e-09
3.3352219e-11
1.2025217e-09
3.321756e-11
1.1837714e-09
3.3104867e-11
1.1650727e-09
3.3013519e-11
1.1464136e-09
3.2943794e-11
1.127781e-09
3.2896894e-11
1.1091619e-09
3.2873102e-11
1.090543e-09
3.2872675e-11
1.0719105e-09
3.2896642e-11
1.0532503e-09
3.2945694e-11
1.0345478e-09
3.3020248e-11
1.0157853e-09
3.3126192e-11
9.9695138e-10
3.3252388e-11
9.7803577e-10
3.3396504e-11
9.5981157e-10
3.2175762e-11
9.426543e-10
3.0292015e-11
9.2646292e-10
2.8586667e-11
9.1116007e-10
2.7017895e-11
8.9667261e-10
2.5578252e-11
8.8293041e-10
2.4262416e-11
8.698703e-10
2.3058151e-11
8.5743518e-10
2.1954665e-11
8.4557328e-10
2.0942607e-11
8.3423777e-10
2.001324e-11
8.2338588e-10
1.9159354e-11
8.1297763e-10
1.8376091e-11
8.0297508e-10
1.7659781e-11
7.9334118e-10
1.7008919e-11
7.840394e-10
1.642254e-11
7.7502856e-10
1.5908878e-11
7.6626859e-10
1.5465951e-11
7.5768912e-10
1.5147271e-11
7.4926419e-10
1.4874451e-11
7.4071999e-10
1.5085066e-11
7.3249257e-10
1.4526234e-11
7.2310631e-10
1.6567889e-11
9.8042451e-12
2.1861055e-06
9.3622291e-11
2.1860485e-06
2.1512998e-10
2.1859788e-06
2.6312065e-10
2.1858999e-06
2.9792096e-10
2.1858087e-06
3.4451046e-10
2.1857036e-06
3.9680918e-10
2.185583e-06
4.5572688e-10
2.1854441e-06
5.2453726e-10
2.1852837e-06
6.0604823e-10
2.1850975e-06
7.0331976e-10
2.1848803e-06
8.2041634e-10
2.1846254e-06
9.6351757e-10
2.1843236e-06
1.1404059e-09
2.1839621e-06
1.3662596e-09
2.1835245e-06
1.6540104e-09
2.1829806e-06
2.0565576e-09
2.1823013e-06
2.5682414e-09
2.1813852e-06
3.4648341e-09
2.1802167e-06
4.4195619e-09
2.1783044e-06
7.2354121e-09
2.1759119e-06
9.0527451e-09
2.170228e-06
2.1511846e-08
2.1684506e-06
6.697658e-09
1.110421e-06
4.0665838e-06
3.4425692e-08
4.1110343e-06
1.6635933e-08
3.9117653e-08
1.260319e-08
8.8354484e-09
1.0649565e-08
4.279924e-09
9.4472269e-09
2.6338664e-09
8.5904807e-09
1.8768161e-09
7.9360822e-09
1.4335479e-09
7.4117654e-09
1.1485927e-09
6.9787186e-09
9.4865272e-10
6.6124499e-09
8.02367e-10
6.2967077e-09
6.9168297e-10
6.0204776e-09
6.0512634e-10
5.7759392e-09
5.3570098e-10
5.5572909e-09
4.789848e-10
5.3601089e-09
4.3195935e-10
5.1809705e-09
3.9243182e-10
5.0171942e-09
3.5877819e-10
4.8665872e-09
3.2992905e-10
4.7274002e-09
3.0491172e-10
4.5982096e-09
2.8301219e-10
4.4777897e-09
2.6379878e-10
4.3651358e-09
2.4678591e-10
4.2593909e-09
2.3165044e-10
4.159825e-09
2.1811421e-10
4.0658125e-09
2.0594845e-10
3.976813e-09
1.9496664e-10
3.8923541e-09
1.8501945e-10
3.8120224e-09
1.759783e-10
3.7354542e-09
1.6773351e-10
3.6623288e-09
1.601915e-10
3.5923633e-09
1.5326918e-10
3.5253056e-09
1.4689914e-10
3.4609285e-09
1.4102666e-10
3.3990283e-09
1.3560079e-10
3.3394217e-09
1.305761e-10
3.2819429e-09
1.2591475e-10
3.2264419e-09
1.2158203e-10
3.1727837e-09
1.1754518e-10
3.1208448e-09
1.137787e-10
3.0705112e-09
1.1026209e-10
3.0216784e-09
1.0697423e-10
2.9742509e-09
1.0389566e-10
2.9281407e-09
1.0100998e-10
2.8832662e-09
9.8302836e-11
2.8395527e-09
9.5759555e-11
2.7969318e-09
9.3365931e-11
2.7553395e-09
9.1112682e-11
2.7147151e-09
8.8992363e-11
2.6750023e-09
8.6995289e-11
2.6361488e-09
8.5112757e-11
2.5981058e-09
8.3337542e-11
2.5608269e-09
8.1663238e-11
2.524269e-09
8.0084068e-11
2.4883923e-09
7.8591769e-11
2.4531596e-09
7.718077e-11
2.4185344e-09
7.5850093e-11
2.3844819e-09
7.4595561e-11
2.3509698e-09
7.3411784e-11
2.3179671e-09
7.2295529e-11
2.2854447e-09
7.1243719e-11
2.2533742e-09
7.0253619e-11
2.221729e-09
6.9321775e-11
2.1904846e-09
6.8444056e-11
2.1596166e-09
6.7619336e-11
2.1291009e-09
6.684755e-11
2.0989145e-09
6.6126134e-11
2.0690354e-09
6.5452859e-11
2.0394424e-09
6.4826417e-11
2.0101144e-09
6.4245687e-11
1.981031e-09
6.3709708e-11
1.9521733e-09
6.3215544e-11
1.9235225e-09
6.2762148e-11
1.8950593e-09
6.2351336e-11
1.8667645e-09
6.198228e-11
1.8386197e-09
6.1653644e-11
1.8106065e-09
6.1365434e-11
1.7827064e-09
6.1117686e-11
1.7549009e-09
6.0910354e-11
1.7271721e-09
6.0742295e-11
1.6995019e-09
6.0614021e-11
1.671871e-09
6.0527745e-11
1.6442601e-09
6.0483987e-11
1.6166496e-09
6.0483221e-11
1.5890189e-09
6.0527338e-11
1.561347e-09
6.0617613e-11
1.5336124e-09
6.0754814e-11
1.5057888e-09
6.0949777e-11
1.4778592e-09
6.1182008e-11
1.4498085e-09
6.1447247e-11
1.422783e-09
5.9201256e-11
1.3973396e-09
5.573536e-11
1.3733286e-09
5.2597719e-11
1.3506351e-09
4.9711388e-11
1.3291507e-09
4.7062634e-11
1.3087714e-09
4.4641663e-11
1.2894036e-09
4.2425965e-11
1.2709626e-09
4.0395683e-11
1.2533716e-09
3.8533615e-11
1.2365612e-09
3.6823685e-11
1.2204679e-09
3.5252629e-11
1.2050325e-09
3.3811508e-11
1.1901987e-09
3.2493574e-11
1.1759115e-09
3.1296057e-11
1.1621169e-09
3.0217179e-11
1.1487537e-09
2.927209e-11
1.1357625e-09
2.8457144e-11
1.123039e-09
2.7870783e-11
1.1105446e-09
2.7368806e-11
1.0978735e-09
2.7756188e-11
1.0856722e-09
2.6727584e-11
1.07175e-09
3.0490015e-11
1.8032101e-11
2.3100913e-06
1.1997152e-10
2.3100307e-06
2.7572859e-10
2.3099566e-06
3.3728836e-10
2.3098726e-06
3.8190563e-10
2.3097755e-06
4.4162155e-10
2.3096636e-06
5.0865045e-10
2.3095352e-06
5.8415663e-10
2.3093874e-06
6.723347e-10
2.3092167e-06
7.7678208e-10
2.3090186e-06
9.0141829e-10
2.3087875e-06
1.0514492e-09
2.3085163e-06
1.2347897e-09
2.3081953e-06
1.4614067e-09
2.3078108e-06
1.7507403e-09
2.3073454e-06
2.1193483e-09
2.306767e-06
2.634984e-09
2.3060449e-06
3.2903718e-09
2.305071e-06
4.4387125e-09
2.3038292e-06
5.6613867e-09
2.3017973e-06
9.2673419e-09
2.2992553e-06
1.1594739e-08
2.2932177e-06
2.7549418e-08
2.2913222e-06
8.5931752e-09
1.1813405e-06
5.1765655e-06
4.7583475e-08
5.2447913e-06
2.3047325e-08
6.3653804e-08
1.7460841e-08
1.4421932e-08
1.4754304e-08
6.986461e-09
1.3088438e-08
4.2997328e-09
1.1901408e-08
3.063846e-09
1.0994731e-08
2.3402243e-09
1.0268289e-08
1.8750353e-09
9.6683007e-09
1.5486407e-09
9.1608348e-09
1.3098329e-09
8.7233744e-09
1.1291434e-09
8.3406584e-09
9.8784231e-10
8.0018512e-09
8.7450817e-10
7.6989145e-09
7.8192154e-10
7.4257191e-09
7.051547e-10
7.177523e-09
6.4062798e-10
6.9506105e-09
5.8569064e-10
6.7419441e-09
5.3859547e-10
6.5491e-09
4.9775578e-10
6.3701056e-09
4.6200661e-10
6.2032627e-09
4.306417e-10
6.0471794e-09
4.0286919e-10
5.9006685e-09
3.7816141e-10
5.7627184e-09
3.560643e-10
5.6324624e-09
3.3620441e-10
5.5091518e-09
3.1827725e-10
5.3921322e-09
3.0203904e-10
5.2808306e-09
2.8727988e-10
5.1747434e-09
2.7382074e-10
5.0734261e-09
2.6150883e-10
4.9764867e-09
2.5020852e-10
4.8835761e-09
2.3980981e-10
4.7943794e-09
2.302233e-10
4.7086144e-09
2.2136587e-10
4.6260271e-09
2.1316334e-10
4.546388e-09
2.0555393e-10
4.469489e-09
1.9848098e-10
4.3951431e-09
1.9189104e-10
4.3231794e-09
1.8574247e-10
4.2534397e-09
1.8000178e-10
4.1857794e-09
1.7463452e-10
4.1200661e-09
1.696089e-10
4.0561779e-09
1.6489818e-10
3.9940019e-09
1.6047889e-10
3.9334343e-09
1.5632711e-10
3.8743806e-09
1.5241963e-10
3.816752e-09
1.4874131e-10
3.7604644e-09
1.4527999e-10
3.7054398e-09
1.4201986e-10
3.6516059e-09
1.3894671e-10
3.5988947e-09
1.3604875e-10
3.5472424e-09
1.3331552e-10
3.4965889e-09
1.3073759e-10
3.4468791e-09
1.2830148e-10
3.3980618e-09
1.2599809e-10
3.3500861e-09
1.2382581e-10
3.3029038e-09
1.2177784e-10
3.2564702e-09
1.1984537e-10
3.2107426e-09
1.1802313e-10
3.1656803e-09
1.1630609e-10
3.1212441e-09
1.1468979e-10
3.0773973e-09
1.1316859e-10
3.0341056e-09
1.1173575e-10
2.9913355e-09
1.1038943e-10
2.9490535e-09
1.0912952e-10
2.9072278e-09
1.0795184e-10
2.8658279e-09
1.0685274e-10
2.8248243e-09
1.058301e-10
2.7841879e-09
1.0488209e-10
2.7438904e-09
1.0400712e-10
2.7039056e-09
1.0320043e-10
2.6642074e-09
1.0246028e-10
2.6247691e-09
1.0178966e-10
2.5855642e-09
1.0118719e-10
2.5465671e-09
1.0065072e-10
2.5077523e-09
1.0018024e-10
2.4690942e-09
9.9775817e-11
2.4305672e-09
9.9437372e-11
2.3921464e-09
9.9163044e-11
2.3538068e-09
9.8953668e-11
2.3155217e-09
9.8812854e-11
2.2772642e-09
9.8741455e-11
2.2390072e-09
9.8740245e-11
2.2007222e-09
9.8812312e-11
2.1623801e-09
9.8959737e-11
2.1239511e-09
9.918378e-11
2.0853987e-09
9.9502134e-11
2.0466994e-09
9.9881346e-11
2.0078321e-09
1.003145e-10
1.9703854e-09
9.6648033e-11
1.9351307e-09
9.0990009e-11
1.9018605e-09
8.5867899e-11
1.8704158e-09
8.1156084e-11
1.8406464e-09
7.6832105e-11
1.8124081e-09
7.2879958e-11
1.7855711e-09
6.9262904e-11
1.7600183e-09
6.5948526e-11
1.7356432e-09
6.2908745e-11
1.7123495e-09
6.0117321e-11
1.6900496e-09
5.7552603e-11
1.6686611e-09
5.52e-11
1.6481061e-09
5.3048494e-11
1.6283086e-09
5.1093568e-11
1.6091935e-09
4.9332318e-11
1.5906761e-09
4.7789475e-11
1.5726742e-09
4.6459092e-11
1.5550431e-09
4.5501842e-11
1.5377295e-09
4.4682387e-11
1.5201711e-09
4.5314581e-11
1.5032634e-09
4.363532e-11
1.4839695e-09
4.978386e-11
2.9431763e-11
2.4685028e-06
1.4834711e-10
2.4684375e-06
3.4102078e-10
2.4683576e-06
4.1723323e-10
2.468267e-06
4.7243698e-10
2.4681623e-06
5.4629794e-10
2.4680418e-06
6.2919716e-10
2.4679034e-06
7.2257202e-10
2.4677441e-06
8.3160861e-10
2.4675601e-06
9.6075411e-10
2.4673467e-06
1.1148527e-09
2.4670978e-06
1.3003377e-09
2.4668056e-06
1.5269905e-09
2.4664599e-06
1.8071268e-09
2.4660459e-06
2.1647702e-09
2.4655448e-06
2.6203748e-09
2.4649222e-06
3.2576692e-09
2.4641449e-06
4.0676231e-09
2.4630969e-06
5.4867055e-09
2.4617608e-06
6.9974647e-09
2.4595754e-06
1.1452796e-08
2.4568415e-06
1.4328606e-08
2.4503501e-06
3.404084e-08
2.4483025e-06
1.0640809e-08
1.2713016e-06
6.3535663e-06
6.3512225e-08
6.4525807e-06
3.083717e-08
9.6328859e-08
2.3363117e-08
2.1895985e-08
1.9741793e-08
1.0607785e-08
1.7512649e-08
6.5288771e-09
1.5924265e-08
4.65223e-09
1.4711023e-08
3.5534659e-09
1.3738961e-08
2.8470971e-09
1.2936109e-08
2.3514927e-09
1.2257063e-08
1.9888793e-09
1.1671693e-08
1.7145136e-09
1.1159577e-08
1.499958e-09
1.0706216e-08
1.3278693e-09
1.0300853e-08
1.1872845e-09
9.9352868e-09
1.0707207e-09
9.603172e-09
9.7274274e-10
9.2995365e-09
8.8932622e-10
9.0203161e-09
8.1781581e-10
8.7622678e-09
7.558041e-10
8.522751e-09
7.0152337e-10
8.2994941e-09
6.5389861e-10
8.0906346e-09
6.1172874e-10
7.8945836e-09
5.7421237e-10
7.7099879e-09
5.4066006e-10
7.5356876e-09
5.1050473e-10
7.3706807e-09
4.8328408e-10
7.2140918e-09
4.5862793e-10
7.0651541e-09
4.3621756e-10
6.9231938e-09
4.1578112e-10
6.7876159e-09
3.9708665e-10
6.6578963e-09
3.799282e-10
6.5335673e-09
3.6413873e-10
6.4142081e-09
3.4958252e-10
6.2994407e-09
3.3613331e-10
6.1889255e-09
3.2367852e-10
6.0823551e-09
3.1212433e-10
5.9794514e-09
3.0138468e-10
5.879964e-09
2.9137845e-10
5.7836641e-09
2.820424e-10
5.6903402e-09
2.7332565e-10
5.5997988e-09
2.6517593e-10
5.5118627e-09
2.5754497e-10
5.4263688e-09
2.5039214e-10
5.3431658e-09
2.4368183e-10
5.2621153e-09
2.3737769e-10
5.1830904e-09
2.3144451e-10
5.1059724e-09
2.2585929e-10
5.0306488e-09
2.2060356e-10
4.9570154e-09
2.1565331e-10
4.8849751e-09
2.1098698e-10
4.8144372e-09
2.0658666e-10
4.7453162e-09
2.0243647e-10
4.6775318e-09
1.9852208e-10
4.6110102e-09
1.9482303e-10
4.5456828e-09
1.9132551e-10
4.4814815e-09
1.8802708e-10
4.418342e-09
1.8491739e-10
4.3562043e-09
1.8198308e-10
4.2950112e-09
1.7921614e-10
4.2347084e-09
1.7660895e-10
4.1752435e-09
1.7415472e-10
4.1165672e-09
1.7184489e-10
4.0586337e-09
1.6966922e-10
4.0013982e-09
1.6762494e-10
3.9448158e-09
1.6571186e-10
3.8888441e-09
1.6392363e-10
3.8334421e-09
1.6225474e-10
3.7785702e-09
1.6070194e-10
3.7241898e-09
1.5926245e-10
3.6702631e-09
1.5793389e-10
3.6167545e-09
1.5670899e-10
3.5636296e-09
1.5558515e-10
3.5108524e-09
1.5456686e-10
3.4583875e-09
1.5365209e-10
3.4062008e-09
1.5283751e-10
3.3542578e-09
1.5212315e-10
3.3025246e-09
1.5150909e-10
3.2509667e-09
1.5099522e-10
3.1995511e-09
1.5057871e-10
3.1482439e-09
1.5026084e-10
3.0970097e-09
1.5004708e-10
3.0458124e-09
1.4993873e-10
2.9946157e-09
1.4993697e-10
2.9433815e-09
1.5004649e-10
2.8920708e-09
1.5027045e-10
2.8406438e-09
1.5061077e-10
2.7890516e-09
1.5109433e-10
2.7372626e-09
1.5167034e-10
2.6852487e-09
1.5232835e-10
2.6351356e-09
1.4676112e-10
2.587956e-09
1.3816968e-10
2.5434318e-09
1.3039208e-10
2.5013503e-09
1.2323755e-10
2.4615105e-09
1.1667192e-10
2.4237196e-09
1.1067086e-10
2.3878039e-09
1.051786e-10
2.3536065e-09
1.0014592e-10
2.3209851e-09
9.5530188e-11
2.2898108e-09
9.1291561e-11
2.2599663e-09
8.7397169e-11
2.2313414e-09
8.3824861e-11
2.203832e-09
8.0557908e-11
2.1773361e-09
7.7589453e-11
2.1517533e-09
7.4915093e-11
2.1269704e-09
7.2572375e-11
2.1028773e-09
7.055228e-11
2.0792804e-09
6.909873e-11
2.0561083e-09
6.78545e-11
2.0326087e-09
6.8814176e-11
2.0099792e-09
6.6264767e-11
1.984155e-09
7.5608068e-11
4.4687656e-11
2.6637005e-06
1.7924684e-10
2.6636293e-06
4.1216417e-10
2.6635422e-06
5.0438469e-10
2.6634435e-06
5.7113558e-10
2.6633294e-06
6.6041176e-10
2.663198e-06
7.6060262e-10
2.6630471e-06
8.7344166e-10
2.6628735e-06
1.0051943e-09
2.662673e-06
1.1612324e-09
2.6624405e-06
1.3474058e-09
2.6621693e-06
1.5714826e-09
2.6618511e-06
1.8452733e-09
2.6614745e-06
2.1836469e-09
2.6610237e-06
2.6156103e-09
2.6604782e-06
3.1658498e-09
2.6598004e-06
3.935463e-09
2.6589546e-06
4.9134913e-09
2.6578143e-06
6.6269302e-09
2.656361e-06
8.450804e-09
2.6539846e-06
1.3829159e-08
2.6510122e-06
1.7301049e-08
2.6439567e-06
4.1096296e-08
2.6417189e-06
1.2878611e-08
1.3821242e-06
7.6131611e-06
8.3139322e-08
7.7515656e-06
4.0471351e-08
1.3899683e-07
3.066311e-08
3.1704225e-08
2.5910411e-08
1.5360484e-08
2.2984509e-08
9.4547792e-09
2.0899669e-08
6.7370706e-09
1.9307217e-08
5.145917e-09
1.8031336e-08
4.1229788e-09
1.6977549e-08
3.4052793e-09
1.6086264e-08
2.8801641e-09
1.5317936e-08
2.4828421e-09
1.4645758e-08
2.172136e-09
1.4050698e-08
1.9229294e-09
1.3518637e-08
1.7193451e-09
1.3038811e-08
1.5505465e-09
1.2602891e-08
1.4086627e-09
1.2204351e-08
1.2878669e-09
1.1837856e-08
1.1843103e-09
1.1499151e-08
1.0945093e-09
1.1184769e-08
1.0159059e-09
1.0891727e-08
9.4693969e-10
1.0617583e-08
8.858729e-10
1.0360251e-08
8.3154491e-10
1.0117953e-08
7.8295732e-10
9.8891693e-09
7.3928896e-10
9.672583e-09
6.9987035e-10
9.4670455e-09
6.6416539e-10
9.2715505e-09
6.3171256e-10
9.0852134e-09
6.021182e-10
8.9072537e-09
5.750464e-10
8.736983e-09
5.5019894e-10
8.5737878e-09
5.2733392e-10
8.4171155e-09
5.0625477e-10
8.2664701e-09
4.8677869e-10
8.121406e-09
4.6874263e-10
7.9815196e-09
4.5201075e-10
7.8464459e-09
4.3645841e-10
7.7158562e-09
4.2196815e-10
7.5894502e-09
4.0844838e-10
7.4669504e-09
3.9582544e-10
7.3481027e-09
3.8402361e-10
7.2326747e-09
3.7297299e-10
7.1204521e-09
3.6261479e-10
7.0112365e-09
3.5289737e-10
6.9048461e-09
3.4376816e-10
6.8011144e-09
3.3517615e-10
6.6998857e-09
3.2708801e-10
6.6010122e-09
3.1947701e-10
6.5043572e-09
3.1230839e-10
6.4097932e-09
3.0555091e-10
6.3172012e-09
2.9917865e-10
6.2264691e-09
2.9316861e-10
6.1374911e-09
2.8750003e-10
6.0501709e-09
2.821433e-10
5.964418e-09
2.7707842e-10
5.8801432e-09
2.7230183e-10
5.7972621e-09
2.6779856e-10
5.7156959e-09
2.6354926e-10
5.6353697e-09
2.5954235e-10
5.5562118e-09
2.5576676e-10
5.4781539e-09
2.5221269e-10
5.401131e-09
2.4886772e-10
5.3250832e-09
2.4571705e-10
5.2499515e-09
2.4275664e-10
5.1756771e-09
2.3998623e-10
5.1022041e-09
2.3739663e-10
5.029479e-09
2.3497984e-10
4.9574498e-09
2.3273117e-10
4.8860657e-09
2.306466e-10
4.8152769e-09
2.2872266e-10
4.745037e-09
2.2694884e-10
4.6753008e-09
2.2532138e-10
4.6060209e-09
2.2384679e-10
4.5371509e-09
2.2252209e-10
4.4686459e-09
2.213425e-10
4.400461e-09
2.2030804e-10
4.3325512e-09
2.1941885e-10
4.2648717e-09
2.1867475e-10
4.1973788e-09
2.1807167e-10
4.1300282e-09
2.1761143e-10
4.0627733e-09
2.1730197e-10
3.9955668e-09
2.1714518e-10
3.928361e-09
2.1714277e-10
3.861106e-09
2.1730153e-10
3.7937504e-09
2.1762605e-10
3.726242e-09
2.1811911e-10
3.6585167e-09
2.1881967e-10
3.5905329e-09
2.1965415e-10
3.5222537e-09
2.2060756e-10
3.4564693e-09
2.1254547e-10
3.3945354e-09
2.0010359e-10
3.3360871e-09
1.8884043e-10
3.280845e-09
1.7847968e-10
3.2285451e-09
1.6897172e-10
3.1789347e-09
1.6028132e-10
3.1317856e-09
1.5232769e-10
3.0868919e-09
1.4503959e-10
3.0440669e-09
1.3835526e-10
3.0031414e-09
1.3221703e-10
2.9639613e-09
1.265773e-10
2.9263821e-09
1.21404e-10
2.8902671e-09
1.1667291e-10
2.8554825e-09
1.123741e-10
2.8218964e-09
1.085012e-10
2.7893602e-09
1.0510859e-10
2.7577292e-09
1.0218322e-10
2.7267497e-09
1.0007825e-10
2.6963276e-09
9.8276566e-11
2.6654758e-09
9.966598e-11
2.6357653e-09
9.5975329e-11
2.6018594e-09
1.095139e-10
6.47161e-11
2.8985933e-06
2.1322992e-10
2.898515e-06
4.9046264e-10
2.898419e-06
6.0035606e-10
2.8983103e-06
6.7983096e-10
2.8981847e-06
7.860761e-10
2.89804e-06
9.0529666e-10
2.8978739e-06
1.0395501e-09
2.8976828e-06
1.1962884e-09
2.8974621e-06
1.3818997e-09
2.8972062e-06
1.6033382e-09
2.8969078e-06
1.8698374e-09
2.8965576e-06
2.1954354e-09
2.8961435e-06
2.5978033e-09
2.8956477e-06
3.1114185e-09
2.8950479e-06
3.7656081e-09
2.8943028e-06
4.6805373e-09
2.8933732e-06
5.8431032e-09
2.8921205e-06
7.8796716e-09
2.8905242e-06
1.0047142e-08
2.8879151e-06
1.6438178e-08
2.884652e-06
2.0564204e-08
2.8769097e-06
4.8838596e-08
2.8744384e-06
1.5349883e-08
1.5160434e-06
8.9715561e-06
1.0760207e-07
9.1600069e-06
5.2526019e-08
1.9407288e-07
3.9797523e-08
4.4432722e-08
3.3629202e-08
2.1528805e-08
2.9831333e-08
1.3252648e-08
2.7125204e-08
9.4431997e-09
2.5058189e-08
7.2129322e-09
2.3402093e-08
5.7790753e-09
2.2034273e-08
4.7730986e-09
2.0877382e-08
4.0370553e-09
1.988009e-08
3.4801344e-09
1.9007601e-08
3.0446245e-09
1.8235211e-08
2.6953197e-09
1.7544593e-08
2.409963e-09
1.6921775e-08
2.1733646e-09
1.6355946e-08
1.9744918e-09
1.5838633e-08
1.8051795e-09
1.5362917e-08
1.6600268e-09
1.4923271e-08
1.5341553e-09
1.4515194e-08
1.4239827e-09
1.4134818e-08
1.3273157e-09
1.377897e-08
1.2417212e-09
1.3444943e-08
1.1655721e-09
1.3130431e-08
1.0974691e-09
1.2833459e-08
1.0362611e-09
1.2552319e-08
9.8100982e-10
1.2285521e-08
9.3096374e-10
1.2031757e-08
8.8547601e-10
1.1789881e-08
8.4399483e-10
1.1558878e-08
8.0604939e-10
1.1337855e-08
7.712217e-10
1.1126016e-08
7.3917272e-10
1.0922644e-08
7.0962689e-10
1.0727095e-08
6.8232799e-10
1.053879e-08
6.5704751e-10
1.0357206e-08
6.3359501e-10
1.0181868e-08
6.1179583e-10
1.0012351e-08
5.9148532e-10
9.8482643e-09
5.7253512e-10
9.6892478e-09
5.5484193e-10
9.5349717e-09
5.3829966e-10
9.3851344e-09
5.2281034e-10
9.2394576e-09
5.0829153e-10
9.0976841e-09
4.946709e-10
8.9595776e-09
4.8187471e-10
8.8249222e-09
4.6983151e-10
8.6935156e-09
4.5849458e-10
8.5651662e-09
4.4782641e-10
8.4396963e-09
4.3777831e-10
8.3169407e-09
4.283065e-10
8.1967447e-09
4.1937463e-10
8.0789629e-09
4.1095047e-10
7.963458e-09
4.0300493e-10
7.8501048e-09
3.9549649e-10
7.738786e-09
3.8839714e-10
7.629386e-09
3.8170188e-10
7.5217949e-09
3.753897e-10
7.4159106e-09
3.6943353e-10
7.3116358e-09
3.6381709e-10
7.2088777e-09
3.5852491e-10
7.1075472e-09
3.535432e-10
7.0075603e-09
3.4885461e-10
6.908839e-09
3.4443835e-10
6.8113068e-09
3.4028879e-10
6.7148875e-09
3.3640555e-10
6.6195084e-09
3.3277573e-10
6.5251001e-09
3.2938816e-10
6.431595e-09
3.2623624e-10
6.3389273e-09
3.2331433e-10
6.2470324e-09
3.2061759e-10
6.15585e-09
3.1813127e-10
6.0653212e-09
3.1585012e-10
5.9753848e-09
3.1378324e-10
5.8859804e-09
3.1192647e-10