/*--------------------------------*- C++ -*----------------------------------*\
| =========                 |                                                 |
| \\      /  F ield         | OpenFOAM: The Open Source CFD Toolbox           |
|  \\    /   O peration     | Version:  2206                                  |
|   \\  /    A nd           | Website:  www.openfoam.com                      |
|    \\/     M anipulation  |                                                 |
\*---------------------------------------------------------------------------*/
FoamFile
{
    version     2.0;
    format      ascii;
    arch        "LSB;label=32;scalar=64";
    class       volVectorField;
    location    "1200";
    object      U;
}
// * * * * * * * * * * * * * * * * * * * * * * * * * * * * * * * * * * * * * //

dimensions      [0 1 -1 0 0 0 0];

internalField   nonuniform List<vector> 
13056
(
(1 2.7935424e-10 4.238488e-25)
(0.99997897 7.2825624e-10 0)
(0.99994918 1.0104348e-09 0)
(0.99991635 1.2979205e-09 0)
(0.99987839 1.7022806e-09 0)
(0.99983449 2.2228268e-09 0)
(0.99978407 2.8925543e-09 0)
(0.99972615 3.7695701e-09 0)
(0.99965936 4.9266863e-09 0)
(0.99958205 6.4596766e-09 0)
(0.99949213 8.500315e-09 0)
(0.99938695 1.1239663e-08 0)
(0.99926298 1.494062e-08 0)
(0.99911569 2.0040097e-08 0)
(0.99893798 2.7055763e-08 0)
(0.9987221 3.7333987e-08 0)
(0.99844877 5.1432224e-08 0)
(0.99811034 7.5991259e-08 0)
(0.99762519 1.052285e-07 0)
(0.99705446 1.8512781e-07 0)
(0.99590898 2.459114e-07 0)
(0.99487953 6.1227375e-07 0)
(0.99080478 1.9646987e-07 -4.7684343e-21)
(0.99320148 0.00012365368 7.7917477e-18)
(0.0031602491 0.00012412982 0)
(0.0012315527 6.5373672e-08 -1.0352613e-20)
(0.00087797013 4.6496429e-08 3.4331754e-18)
(0.00072049141 5.3307777e-09 0)
(0.00063033017 3.2528381e-09 0)
(0.00056807869 2.2967803e-09 0)
(0.00052170468 1.7381989e-09 0)
(0.00048509935 1.3793667e-09 0)
(0.00045521395 1.1281274e-09 0)
(0.00043018003 9.4463351e-10 0)
(0.00040876105 8.0597483e-10 0)
(0.00039013352 6.9768885e-10 0)
(0.00037372481 6.1096598e-10 0)
(0.00035911619 5.4022311e-10 0)
(0.00034599081 4.8164748e-10 0)
(0.0003341046 4.3247536e-10 0)
(0.00032326763 3.9066828e-10 0)
(0.00031332989 3.5486611e-10 3.3533682e-25)
(0.0003041631 3.2385276e-10 0)
(0.00029567383 2.9674088e-10 0)
(0.00028777506 2.7297246e-10 0)
(0.00028039823 2.5194467e-10 0)
(0.00027348451 2.3325036e-10 0)
(0.00026698404 2.1654167e-10 0)
(0.0002608541 2.0153303e-10 0)
(0.00025505806 1.8799146e-10 0)
(0.000249564 1.75729e-10 0)
(0.00024434394 1.6458462e-10 0)
(0.00023937339 1.5442145e-10 0)
(0.00023463073 1.4512302e-10 0)
(0.0002300969 1.3658699e-10 0)
(0.00022575508 1.2872943e-10 0)
(0.0002215901 1.2148085e-10 0)
(0.00021758832 1.147778e-10 0)
(0.00021373752 1.0856423e-10 0)
(0.00021002669 1.0279274e-10 0)
(0.00020644581 9.7420491e-11 0)
(0.00020298587 9.2408065e-11 0)
(0.00019963875 8.7723525e-11 0)
(0.0001963969 8.3340089e-11 0)
(0.00019325341 7.9231607e-11 0)
(0.00019020195 7.5374327e-11 0)
(0.00018723671 7.1747779e-11 0)
(0.00018435234 6.8333817e-11 0)
(0.00018154387 6.511489e-11 0)
(0.00017880676 6.2074563e-11 0)
(0.00017613688 5.92005e-11 0)
(0.00017353025 5.6482001e-11 0)
(0.00017098314 5.3907374e-11 0)
(0.00016849215 5.1466107e-11 0)
(0.00016605404 4.9149066e-11 0)
(0.00016366583 4.6947991e-11 0)
(0.00016132466 4.4855363e-11 0)
(0.00015902788 4.2862611e-11 0)
(0.00015677312 4.0963109e-11 0)
(0.00015455804 3.9152957e-11 0)
(0.00015238031 3.7426645e-11 0)
(0.00015023786 3.5778353e-11 0)
(0.00014812867 3.4203602e-11 0)
(0.00014605083 3.2698179e-11 0)
(0.00014400253 3.125821e-11 0)
(0.00014198201 2.9879674e-11 0)
(0.00013998764 2.8558473e-11 0)
(0.00013801792 2.7291998e-11 0)
(0.00013607129 2.6078112e-11 0)
(0.00013414624 2.4913751e-11 0)
(0.00013224135 2.3796149e-11 0)
(0.00013035525 2.2723005e-11 0)
(0.00012848661 2.1692168e-11 0)
(0.0001266341 2.070163e-11 0)
(0.00012479645 1.9748834e-11 0)
(0.00012297252 1.8831975e-11 0)
(0.00012116108 1.7950165e-11 0)
(0.00011936089 1.7101704e-11 0)
(0.00011757078 1.6284849e-11 0)
(0.00011578956 1.5498292e-11 0)
(0.00011401607 1.4740767e-11 0)
(0.00011224913 1.401103e-11 0)
(0.00011048757 1.3307634e-11 0)
(0.00010873029 1.2629576e-11 0)
(0.00010697607 1.1976213e-11 0)
(0.00010522368 1.1346529e-11 0)
(0.0001034719 1.073954e-11 0)
(0.00010171944 1.0154529e-11 0)
(9.9964971e-05 9.5906681e-12 0)
(9.8207145e-05 9.047063e-12 0)
(9.6444574e-05 8.5242812e-12 0)
(9.4675265e-05 8.0184422e-12 0)
(9.2899098e-05 7.5283792e-12 0)
(9.1154266e-05 7.0697491e-12 0)
(8.9493073e-05 6.6561264e-12 0)
(8.79266e-05 6.2817137e-12 0)
(8.6447121e-05 5.937267e-12 0)
(8.504781e-05 5.6211616e-12 0)
(8.3721735e-05 5.3322344e-12 0)
(8.2462635e-05 5.0677972e-12 0)
(8.1264882e-05 4.8254846e-12 0)
(8.0123364e-05 4.6032472e-12 0)
(7.9033452e-05 4.3991669e-12 0)
(7.7990963e-05 4.2116638e-12 0)
(7.6992036e-05 4.0396765e-12 0)
(7.6033008e-05 3.8824023e-12 0)
(7.5110406e-05 3.7395157e-12 0)
(7.4220729e-05 3.6108124e-12 0)
(7.3360608e-05 3.4981041e-12 0)
(7.2525661e-05 3.4009829e-12 0)
(7.1712734e-05 3.3311787e-12 0)
(7.0911734e-05 3.2716092e-12 0)
(7.0127881e-05 3.3181364e-12 0)
(6.9304384e-05 1.3359657e-11 0)
(6.8580334e-05 3.6154272e-12 2.5866973e-24)
(6.7537872e-05 9.0580683e-12 0)
(1 8.4376226e-10 0)
(0.9999789 2.1999954e-09 0)
(0.999949 3.0526964e-09 0)
(0.99991604 3.9212841e-09 0)
(0.99987793 5.1428884e-09 0)
(0.99983385 6.7154543e-09 0)
(0.99978324 8.7386302e-09 0)
(0.9997251 1.1387917e-08 0)
(0.99965806 1.4883225e-08 0)
(0.99958047 1.9513796e-08 0)
(0.99949021 2.5677588e-08 0)
(0.99938466 3.3951587e-08 0)
(0.99926024 4.5129689e-08 0)
(0.99911244 6.0531245e-08 0)
(0.99893413 8.171935e-08 0)
(0.99871752 1.1275952e-07 0)
(0.99844329 1.5533428e-07 0)
(0.99810376 2.294958e-07 0)
(0.9976171 3.1777953e-07 0)
(0.99704463 5.5902671e-07 0)
(0.99589583 7.4256436e-07 0)
(0.99486337 1.8487403e-06 0)
(0.99077732 5.918585e-07 1.7047915e-20)
(0.99317733 0.00037164789 -6.6269201e-21)
(0.009491713 0.00037357434 0)
(0.0037128603 1.2138011e-06 0)
(0.002646982 2.655211e-07 2.2383849e-22)
(0.0021722532 1.2695651e-07 0)
(0.0019004026 7.7433086e-08 0)
(0.0017127118 5.4679749e-08 0)
(0.00157289 4.1378549e-08 0)
(0.001462524 3.2838142e-08 0)
(0.0013724184 2.6856467e-08 0)
(0.0012969406 2.2487001e-08 0)
(0.0012323623 1.9185204e-08 0)
(0.0011762004 1.6606874e-08 0)
(0.0011267285 1.4542101e-08 0)
(0.0010826838 1.285787e-08 0)
(0.0010431111 1.1463344e-08 0)
(0.0010072745 1.0292739e-08 0)
(0.00097460134 9.2974957e-09 0)
(0.00094463926 8.4451984e-09 -5.0331551e-25)
(0.00091700178 7.7069932e-09 -8.0326611e-25)
(0.00089140685 7.0616613e-09 0)
(0.00086759229 6.4958604e-09 0)
(0.00084535136 5.9953404e-09 0)
(0.00082450671 5.5503737e-09 0)
(0.00080490798 5.1526762e-09 0)
(0.00078642637 4.7954506e-09 0)
(0.00076895146 4.4731498e-09 0)
(0.000752387 4.1812964e-09 0)
(0.00073664862 3.9160585e-09 0)
(0.00072166253 3.6741777e-09 0)
(0.0007073635 3.4528804e-09 0)
(0.00069369408 3.2497326e-09 0)
(0.00068060355 3.0627346e-09 0)
(0.00066804621 2.8902312e-09 0)
(0.00065598089 2.7307132e-09 0)
(0.0006443708 2.582846e-09 0)
(0.00063318269 2.4455014e-09 0)
(0.00062238638 2.3176594e-09 0)
(0.00061195468 2.1983827e-09 0)
(0.00060186313 2.0869101e-09 0)
(0.00059208898 1.9826036e-09 0)
(0.00058261136 1.8848414e-09 0)
(0.00057341121 1.7930581e-09 0)
(0.00056447103 1.7067664e-09 0)
(0.00055577466 1.625534e-09 0)
(0.0005473071 1.5489437e-09 0)
(0.00053905473 1.4766047e-09 0)
(0.00053100503 1.4082224e-09 0)
(0.00052314602 1.343542e-09 0)
(0.00051546648 1.2822859e-09 0)
(0.0005079561 1.2242035e-09 0)
(0.00050060519 1.1690775e-09 0)
(0.00049340471 1.1167113e-09 0)
(0.00048634608 1.0669258e-09 0)
(0.00047942126 1.0195175e-09 0)
(0.00047262313 9.7432845e-10 0)
(0.00046594462 9.3126515e-10 0)
(0.00045937875 8.9019708e-10 0)
(0.00045291922 8.5098565e-10 0)
(0.00044655998 8.1352418e-10 0)
(0.00044029527 7.7771239e-10 0)
(0.0004341196 7.4345805e-10 0)
(0.00042802769 7.1066558e-10 0)
(0.00042201464 6.7923764e-10 0)
(0.0004160759 6.4911165e-10 0)
(0.00041020676 6.2023679e-10 0)
(0.00040440268 5.925404e-10 0)
(0.00039865941 5.6595654e-10 0)
(0.00039297278 5.4043039e-10 0)
(0.00038733878 5.159108e-10 0)
(0.00038175342 4.9234997e-10 0)
(0.00037621288 4.6968715e-10 0)
(0.00037071368 4.4787937e-10 0)
(0.00036525215 4.2690518e-10 0)
(0.00035982453 4.0672443e-10 0)
(0.00035442728 3.8729554e-10 0)
(0.00034905686 3.6858736e-10 0)
(0.00034370974 3.5056981e-10 0)
(0.00033838237 3.3321323e-10 0)
(0.00033307123 3.1648327e-10 0)
(0.00032777296 3.0035599e-10 0)
(0.00032248395 2.8481601e-10 0)
(0.00031720045 2.6983927e-10 0)
(0.00031191877 2.5540226e-10 0)
(0.00030663505 2.4148793e-10 0)
(0.00030134527 2.2807652e-10 0)
(0.00029604537 2.1514679e-10 0)
(0.00029073116 2.0271186e-10 0)
(0.00028539663 1.9067965e-10 0)
(0.00028004142 1.7902384e-10 0)
(0.00027478068 1.6811416e-10 0)
(0.00026977211 1.5827176e-10 0)
(0.00026504912 1.4936143e-10 0)
(0.00026058841 1.4116455e-10 0)
(0.00025636941 1.3364239e-10 0)
(0.00025237121 1.2676713e-10 0)
(0.00024857494 1.2047485e-10 0)
(0.00024496363 1.1470915e-10 0)
(0.00024152187 1.0942118e-10 0)
(0.0002382357 1.0456527e-10 0)
(0.00023509251 1.0010377e-10 0)
(0.00023208065 9.6011279e-11 0)
(0.0002291891 9.2268631e-11 0)
(0.00022640737 8.8867972e-11 0)
(0.00022372491 8.5804254e-11 0)
(0.00022113156 8.3120518e-11 0)
(0.00021861412 8.0806434e-11 0)
(0.00021616307 7.9141643e-11 0)
(0.000213748 7.7716591e-11 0)
(0.00021138461 7.8817898e-11 0)
(0.0002089018 7.6228085e-11 0)
(0.00020671864 8.6511609e-11 -4.0014626e-24)
(0.00020357547 5.1524969e-11 2.7569337e-25)
(1 1.423025e-09 0)
(0.9999788 3.7106805e-09 0)
(0.99994876 5.1493929e-09 0)
(0.99991563 6.614637e-09 0)
(0.99987734 8.6752156e-09 0)
(0.99983304 1.1327709e-08 0)
(0.99978218 1.4740144e-08 0)
(0.99972376 1.9208472e-08 0)
(0.99965641 2.510352e-08 0)
(0.99957844 3.291301e-08 0)
(0.99948777 4.3307951e-08 0)
(0.99938173 5.726119e-08 0)
(0.99925675 7.6111247e-08 0)
(0.99910829 1.0208253e-07 0)
(0.9989292 1.3781016e-07 0)
(0.99871166 1.9014827e-07 0)
(0.99843629 2.6193211e-07 0)
(0.99809538 3.8696714e-07 0)
(0.99760679 5.3580377e-07 0)
(0.99703211 9.4249491e-07 0)
(0.99587909 1.2519146e-06 0)
(0.9948428 3.1166506e-06 0)
(0.99074245 9.991796e-07 -9.0322099e-21)
(0.99314662 0.00062339615 5.390265e-55)
(0.015927106 0.00062784775 -5.3895417e-55)
(0.0062493305 3.4450299e-06 0)
(0.0044554198 7.7265999e-07 -1.1624727e-22)
(0.0036564213 3.7176255e-07 0)
(0.0031988054 2.2675771e-07 0)
(0.0028828677 1.6012545e-07 0)
(0.0026475048 1.2117331e-07 0)
(0.0024617275 9.6162716e-08 0)
(0.0023100542 7.8646015e-08 0)
(0.002183004 6.5850282e-08 0)
(0.0020743009 5.6181185e-08 0)
(0.0019797654 4.8630777e-08 0)
(0.0018964909 4.2584329e-08 0)
(0.001822352 3.7652273e-08 0)
(0.0017557406 3.3568592e-08 0)
(0.0016954182 3.0140642e-08 0)
(0.0016404207 2.7226241e-08 0)
(0.0015899865 2.4730395e-08 0)
(0.0015434654 2.2568669e-08 0)
(0.0015003823 2.0678948e-08 0)
(0.0014602961 1.9022085e-08 0)
(0.0014228586 1.7556396e-08 0)
(0.0013877715 1.6253386e-08 0)
(0.0013547815 1.5088797e-08 0)
(0.001323672 1.4042723e-08 0)
(0.0012942569 1.309892e-08 0)
(0.0012663744 1.2244278e-08 0)
(0.0012398824 1.1467574e-08 0)
(0.0012146567 1.0759267e-08 0)
(0.0011905875 1.0111236e-08 0)
(0.001167578 9.5163518e-09 0)
(0.001145543 8.9687602e-09 0)
(0.0011244055 8.463613e-09 0)
(0.0011040961 7.9964914e-09 0)
(0.0010845531 7.5634871e-09 0)
(0.0010657203 7.161296e-09 0)
(0.001047547 6.7869318e-09 0)
(0.0010299875 6.4376498e-09 0)
(0.0010130005 6.1112206e-09 0)
(0.00099654777 5.8057759e-09 0)
(0.00098059417 5.5194952e-09 0)
(0.00096510764 5.2507224e-09 0)
(0.00095005872 4.9980306e-09 0)
(0.00093542017 4.7601545e-09 0)
(0.00092116677 4.5358717e-09 0)
(0.00090727559 4.3240384e-09 0)
(0.00089372557 4.1237913e-09 0)
(0.00088049652 3.9343847e-09 0)
(0.00086756955 3.7550052e-09 0)
(0.00085492734 3.5849198e-09 0)
(0.00084255356 3.4234914e-09 0)
(0.00083043298 3.2701447e-09 0)
(0.00081855117 3.1243551e-09 0)
(0.00080689461 2.9855268e-09 0)
(0.00079545129 2.8531974e-09 0)
(0.00078420932 2.7270926e-09 0)
(0.00077315698 2.6068305e-09 0)
(0.0007622836 2.4920054e-09 0)
(0.00075157905 2.3823047e-09 0)
(0.00074103363 2.2774348e-09 0)
(0.00073063808 2.1771256e-09 0)
(0.00072038351 2.0810973e-09 0)
(0.00071026171 1.9890648e-09 0)
(0.00070026497 1.9008449e-09 0)
(0.00069038539 1.8162887e-09 0)
(0.00068061532 1.7351834e-09 0)
(0.00067094761 1.6573361e-09 0)
(0.00066137524 1.582586e-09 0)
(0.00065189146 1.5107836e-09 0)
(0.00064248956 1.4417887e-09 0)
(0.00063316309 1.3754235e-09 0)
(0.00062390622 1.3115622e-09 0)
(0.00061471276 1.2501419e-09 0)
(0.00060557636 1.1910451e-09 0)
(0.0005964911 1.13415e-09 0)
(0.00058745099 1.0793655e-09 0)
(0.0005784501 1.0266033e-09 0)
(0.00056948246 9.7577665e-10 0)
(0.00056054213 9.2678503e-10 0)
(0.00055162347 8.795583e-10 0)
(0.00054272039 8.3405137e-10 0)
(0.00053382659 7.9019382e-10 0)
(0.00052493583 7.4791678e-10 0)
(0.00051604166 7.0717037e-10 0)
(0.00050713727 6.6789672e-10 0)
(0.00049821583 6.3003362e-10 0)
(0.00048927031 5.9361945e-10 0)
(0.00048029058 5.5838464e-10 0)
(0.00047127603 5.2425248e-10 0)
(0.00046242049 4.9230523e-10 0)
(0.00045398941 4.6348297e-10 0)
(0.00044603905 4.3739028e-10 0)
(0.00043853019 4.1338707e-10 0)
(0.00043142818 3.9135973e-10 0)
(0.00042469784 3.7122667e-10 0)
(0.00041830739 3.5280072e-10 0)
(0.00041222829 3.3591675e-10 0)
(0.00040643458 3.2043171e-10 0)
(0.00040090277 3.0621189e-10 0)
(0.00039561164 2.9314698e-10 0)
(0.00039054159 2.8116265e-10 0)
(0.00038567404 2.7020276e-10 0)
(0.00038099136 2.602443e-10 0)
(0.00037647577 2.5127248e-10 0)
(0.00037211019 2.4341332e-10 0)
(0.00036787239 2.3663652e-10 0)
(0.00036374634 2.3176091e-10 0)
(0.00035968087 2.2758703e-10 0)
(0.00035570239 2.3081075e-10 0)
(0.00035152297 2.218405e-10 0)
(0.00034784773 2.5345832e-10 0)
(0.00034255652 1.4978243e-10 0)
(1 2.0265715e-09 8.7457479e-25)
(0.99997869 5.2852391e-09 0)
(0.99994846 7.3352898e-09 0)
(0.99991513 9.4226658e-09 0)
(0.9998766 1.2357838e-08 0)
(0.99983204 1.6136021e-08 0)
(0.99978088 2.0996452e-08 0)
(0.9997221 2.7360559e-08 0)
(0.99965435 3.575637e-08 0)
(0.99957593 4.6878323e-08 0)
(0.99948474 6.1681782e-08 0)
(0.9993781 8.1551815e-08 0)
(0.99925243 1.08394e-07 0)
(0.99910316 1.4537505e-07 0)
(0.9989231 1.9624598e-07 0)
(0.99870442 2.7076403e-07 0)
(0.99842763 3.729629e-07 0)
(0.99808501 5.5096517e-07 0)
(0.99759404 7.6283708e-07 0)
(0.99701664 1.3417292e-06 0)
(0.99585842 1.7821842e-06 0)
(0.99481741 4.4363935e-06 0)
(0.99069948 1.4244558e-06 0)
(0.99310872 0.00088261875 -2.8121697e-55)
(0.0225592 0.00089081334 2.8117949e-55)
(0.0088787326 7.1110701e-06 0)
(0.0063302185 1.5958294e-06 0)
(0.0051951032 7.6665825e-07 0)
(0.0045448749 4.676501e-07 0)
(0.0040959696 3.3023052e-07 0)
(0.0037615468 2.4989803e-07 0)
(0.0034975823 1.9831712e-07 0)
(0.0032820749 1.6219218e-07 0)
(0.0031015538 1.3580311e-07 0)
(0.002947102 1.158622e-07 0)
(0.0028127806 1.0029083e-07 0)
(0.0026944595 8.7821197e-08 0)
(0.0025891188 7.7649815e-08 0)
(0.0024944738 6.9228052e-08 0)
(0.0024087643 6.2158616e-08 0)
(0.0023306208 5.6148319e-08 0)
(0.0022589609 5.1001122e-08 0)
(0.0021928612 4.6543013e-08 0)
(0.0021316461 4.2645926e-08 0)
(0.0020746892 3.9228996e-08 0)
(0.0020214957 3.6206335e-08 0)
(0.0019716416 3.3519164e-08 0)
(0.0019247673 3.1117455e-08 0)
(0.0018805648 2.8960159e-08 0)
(0.0018387699 2.7013777e-08 0)
(0.0017991524 2.5251266e-08 0)
(0.0017615107 2.3649486e-08 0)
(0.0017256681 2.2188759e-08 0)
(0.0016914687 2.0852337e-08 0)
(0.0016587751 1.962552e-08 0)
(0.001627466 1.8496233e-08 0)
(0.0015974321 1.7454477e-08 0)
(0.001568575 1.6491141e-08 0)
(0.0015408065 1.5598164e-08 0)
(0.0015140474 1.4768732e-08 0)
(0.0014882252 1.3996686e-08 0)
(0.0014632751 1.3276367e-08 0)
(0.0014391384 1.2603178e-08 0)
(0.0014157609 1.1973263e-08 0)
(0.0013930926 1.138287e-08 0)
(0.0013710879 1.0828583e-08 0)
(0.0013497049 1.030746e-08 0)
(0.0013289051 9.8168901e-09 0)
(0.0013086525 9.3543538e-09 0)
(0.0012889145 8.9174918e-09 0)
(0.0012696613 8.504524e-09 0)
(0.0012508641 8.113912e-09 0)
(0.0012324962 7.7439787e-09 0)
(0.0012145328 7.3932124e-09 0)
(0.0011969509 7.0602991e-09 0)
(0.0011797287 6.7440528e-09 0)
(0.0011628457 6.443391e-09 0)
(0.0011462828 6.1570856e-09 0)
(0.0011300229 5.8841829e-09 0)
(0.0011140491 5.624117e-09 0)
(0.0010983447 5.3761003e-09 0)
(0.0010828946 5.1392961e-09 0)
(0.0010676844 4.91306e-09 0)
(0.0010527003 4.6967863e-09 0)
(0.0010379291 4.4899182e-09 0)
(0.0010233582 4.2918785e-09 0)
(0.001008976 4.1020794e-09 0)
(0.0009947715 3.9201429e-09 0)
(0.00098073345 3.745762e-09 0)
(0.000966851 3.5784979e-09 0)
(0.00095311398 3.4179525e-09 0)
(0.00093951242 3.2637948e-09 0)
(0.00092603674 3.1157159e-09 0)
(0.00091267741 2.9734268e-09 0)
(0.00089942524 2.8365612e-09 0)
(0.00088627196 2.7048593e-09 0)
(0.00087320879 2.5781915e-09 0)
(0.00086022668 2.4563153e-09 0)
(0.00084731723 2.3389798e-09 0)
(0.00083447194 2.2259968e-09 0)
(0.00082168237 2.1171847e-09 0)
(0.00080894003 2.0123642e-09 0)
(0.00079623651 1.911328e-09 0)
(0.00078356377 1.8139317e-09 0)
(0.00077091316 1.720082e-09 0)
(0.00075827573 1.629634e-09 0)
(0.00074564261 1.5424454e-09 0)
(0.00073300464 1.4584135e-09 0)
(0.00072035214 1.3774188e-09 0)
(0.00070767542 1.2993333e-09 0)
(0.00069496445 1.2242358e-09 0)
(0.00068220488 1.1515707e-09 0)
(0.0006693958 1.0811802e-09 0)
(0.00065681263 1.0152956e-09 0)
(0.00064483258 9.5585523e-10 0)
(0.00063353556 9.0204429e-10 0)
(0.00062286586 8.5254311e-10 0)
(0.00061277423 8.0711632e-10 0)
(0.00060321069 7.655962e-10 0)
(0.0005941301 7.2759657e-10 0)
(0.00058549188 6.9277691e-10 0)
(0.00057725918 6.6084218e-10 0)
(0.00056939859 6.3151666e-10 0)
(0.00056188 6.0457288e-10 0)
(0.00055467552 5.7985755e-10 0)
(0.00054775877 5.5725486e-10 0)
(0.0005411047 5.3671738e-10 0)
(0.00053468806 5.1821459e-10 0)
(0.00052848456 5.0200633e-10 0)
(0.00052246261 4.8803009e-10 0)
(0.00051659945 4.7797433e-10 0)
(0.00051082239 4.6936565e-10 0)
(0.0005051689 4.7601111e-10 0)
(0.00049923004 4.5822789e-10 0)
(0.00049400718 5.2284602e-10 0)
(0.00048648822 3.0921165e-10 0)
(1 2.6642762e-09 0)
(0.99997855 6.949561e-09 0)
(0.9999481 9.6465075e-09 0)
(0.99991453 1.2391802e-08 0)
(0.99987571 1.6251617e-08 0)
(0.99983083 2.1219796e-08 0)
(0.99977929 2.7610776e-08 0)
(0.99972009 3.5978528e-08 0)
(0.99965186 4.7017121e-08 0)
(0.99957289 6.1639296e-08 0)
(0.99948107 8.110068e-08 0)
(0.9993737 1.0722158e-07 0)
(0.99924719 1.4250622e-07 0)
(0.99909693 1.9111605e-07 0)
(0.99891571 2.5797973e-07 0)
(0.99869564 3.559188e-07 0)
(0.99841714 4.9022992e-07 0)
(0.99807244 7.2414662e-07 0)
(0.99757859 1.002549e-06 0)
(0.9969979 1.7631575e-06 0)
(0.99583341 2.3419015e-06 0)
(0.9947867 5.8291311e-06 0)
(0.99064755 1.8748447e-06 0)
(0.99306286 0.0011529823 0)
(0.029481854 0.0011662229 0)
(0.011640213 1.2361644e-05 0)
(0.0082993008 2.7680706e-06 0)
(0.0068112207 1.3294524e-06 0)
(0.0059586582 8.1099359e-07 0)
(0.0053700806 5.7267883e-07 0)
(0.0049316003 4.3336768e-07 0)
(0.0045855056 3.4391558e-07 0)
(0.004302945 2.8126874e-07 0)
(0.0040662562 2.355052e-07 0)
(0.0038637486 2.009239e-07 0)
(0.003687635 1.7392039e-07 0)
(0.0035325001 1.5229595e-07 0)
(0.0033943842 1.3465713e-07 0)
(0.0032702917 1.2005244e-07 0)
(0.0031579148 1.0779293e-07 0)
(0.0030554578 9.7370217e-08 0)
(0.0029615014 8.8444107e-08 0)
(0.0028748356 8.0713029e-08 0)
(0.0027945738 7.3954984e-08 0)
(0.0027198949 6.8029495e-08 0)
(0.0026501504 6.2787748e-08 0)
(0.0025847842 5.8127791e-08 0)
(0.0025233249 5.3962867e-08 0)
(0.0024653686 5.0221793e-08 0)
(0.002410569 4.6846473e-08 0)
(0.0023586242 4.3790013e-08 0)
(0.0023092698 4.1012282e-08 0)
(0.0022622744 3.8479159e-08 0)
(0.0022174334 3.6161596e-08 0)
(0.0021745667 3.4034107e-08 0)
(0.0021335152 3.2075748e-08 0)
(0.0020941357 3.0269181e-08 0)
(0.002056299 2.8598603e-08 0)
(0.0020198897 2.7050039e-08 0)
(0.0019848037 2.5611671e-08 0)
(0.0019509463 2.427282e-08 0)
(0.0019182322 2.3023671e-08 0)
(0.0018865847 2.185625e-08 0)
(0.0018559325 2.0763875e-08 0)
(0.0018262101 1.9740035e-08 0)
(0.0017973578 1.8778809e-08 0)
(0.0017693208 1.7875093e-08 0)
(0.0017420482 1.7024362e-08 0)
(0.0017154932 1.6222245e-08 0)
(0.0016896129 1.5464651e-08 0)
(0.0016643682 1.4748494e-08 0)
(0.0016397214 1.4071104e-08 0)
(0.0016156374 1.3429575e-08 0)
(0.0015920839 1.2821284e-08 0)
(0.0015690304 1.2243953e-08 0)
(0.0015464487 1.1695525e-08 0)
(0.0015243117 1.1174123e-08 0)
(0.0015025944 1.0677617e-08 0)
(0.0014812744 1.0204354e-08 0)
(0.0014603294 9.7533514e-09 0)
(0.0014397377 9.3232443e-09 0)
(0.0014194794 8.9125814e-09 0)
(0.0013995356 8.5202453e-09 0)
(0.0013798883 8.1451858e-09 0)
(0.0013605202 7.786437e-09 0)
(0.0013414147 7.442998e-09 0)
(0.0013225565 7.1138499e-09 0)
(0.0013039314 6.7983369e-09 0)
(0.0012855245 6.4959263e-09 0)
(0.0012673216 6.2058575e-09 0)
(0.0012493094 5.9274403e-09 0)
(0.0012314748 5.6601002e-09 0)
(0.0012138052 5.4033019e-09 0)
(0.0011962882 5.1565443e-09 0)
(0.0011789117 4.9191919e-09 0)
(0.0011616649 4.6907945e-09 0)
(0.0011445362 4.4711269e-09 0)
(0.0011275138 4.259769e-09 0)
(0.0011105867 4.0562855e-09 0)
(0.0010937436 3.86035e-09 0)
(0.0010769736 3.6716475e-09 0)
(0.0010602656 3.4898673e-09 0)
(0.0010436084 3.3146501e-09 0)
(0.0010269916 3.1457449e-09 0)
(0.0010104038 2.9829904e-09 0)
(0.00099383327 2.826135e-09 0)
(0.00097726839 2.6749321e-09 0)
(0.00096069712 2.5292036e-09 0)
(0.0009441068 2.3887425e-09 0)
(0.00092748469 2.2533262e-09 0)
(0.00091081767 2.1230922e-09 0)
(0.00089408689 1.9970764e-09 0)
(0.00087729117 1.8750061e-09 0)
(0.00086079161 1.7607506e-09 0)
(0.00084508284 1.6576699e-09 0)
(0.00083026966 1.5643524e-09 0)
(0.00081627896 1.4785095e-09 0)
(0.0008030462 1.3997323e-09 0)
(0.00079050584 1.3277296e-09 0)
(0.0007785987 1.2618319e-09 0)
(0.00076727158 1.2014486e-09 0)
(0.00075647616 1.1460682e-09 0)
(0.00074616865 1.0952126e-09 0)
(0.00073630953 1.0484872e-09 0)
(0.00072686229 1.0056263e-09 0)
(0.0007177923 9.6642908e-10 0)
(0.00070906673 9.3081327e-10 0)
(0.00070065247 8.9872596e-10 0)
(0.00069251767 8.7061771e-10 0)
(0.00068462092 8.4638014e-10 0)
(0.00067693237 8.2894084e-10 0)
(0.0006693567 8.1401149e-10 0)
(0.00066194303 8.255317e-10 0)
(0.00065415534 7.9495416e-10 0)
(0.00064730593 9.0689427e-10 -5.1547769e-24)
(0.00063744593 5.3625809e-10 3.5517843e-25)
(1 3.3468751e-09 0)
(0.99997838 8.7318754e-09 0)
(0.99994767 1.2122497e-08 0)
(0.9999138 1.5572769e-08 0)
(0.99987465 2.0423029e-08 0)
(0.99982937 2.6665745e-08 0)
(0.99977739 3.4695799e-08 0)
(0.99971768 4.5208988e-08 0)
(0.99964888 5.9077031e-08 0)
(0.99956925 7.7446205e-08 0)
(0.99947667 1.018933e-07 0)
(0.99936843 1.3470409e-07 0)
(0.99924091 1.7902293e-07 0)
(0.99908948 2.400749e-07 0)
(0.99890686 3.240474e-07 0)
(0.99868514 4.4703796e-07 0)
(0.99840458 6.156909e-07 0)
(0.99805741 9.0939312e-07 0)
(0.99756013 1.2589166e-06 0)
(0.9969755 2.2137368e-06 0)
(0.99580353 2.9402962e-06 0)
(0.99475002 7.317725e-06 0)
(0.99058562 2.3583087e-06 0)
(0.99300812 0.0014382013 0)
(0.03679111 0.0014580778 0)
(0.014574876 1.9376005e-05 0)
(0.010391992 4.357754e-06 0)
(0.0085288507 2.093092e-06 0)
(0.0074612111 1.2769127e-06 0)
(0.006724172 9.0167947e-07 0)
(0.0061750831 6.8233518e-07 0)
(0.0057416892 5.4149094e-07 0)
(0.0053878548 4.4285428e-07 0)
(0.0050914631 3.7079968e-07 0)
(0.0048378748 3.1635133e-07 0)
(0.0046173387 2.7383447e-07 0)
(0.0044230728 2.3978713e-07 0)
(0.0042501186 2.1201515e-07 0)
(0.004094725 1.890204e-07 0)
(0.0039540019 1.697181e-07 0)
(0.0038257008 1.5330794e-07 0)
(0.0037080439 1.3925389e-07 1.4175346e-24)
(0.0035995172 1.2708145e-07 0)
(0.0034990092 1.1644125e-07 -6.7552063e-35)
(0.0034054923 1.0711171e-07 0)
(0.0033181544 9.8858735e-08 0)
(0.0032362991 9.1521767e-08 0)
(0.003159336 8.4964211e-08 0)
(0.0030867594 7.9073994e-08 0)
(0.0030181356 7.3759645e-08 0)
(0.0029530869 6.8947328e-08 0)
(0.0028912818 6.457386e-08 0)
(0.0028324307 6.0585517e-08 0)
(0.0027762774 5.6936566e-08 0)
(0.0027225964 5.358688e-08 0)
(0.0026711884 5.0503484e-08 0)
(0.002621874 4.7659079e-08 0)
(0.0025744917 4.5028783e-08 0)
(0.0025288968 4.2590593e-08 0)
(0.002484959 4.0325904e-08 0)
(0.0024425595 3.82179e-08 0)
(0.0024015919 3.625113e-08 0)
(0.0023619598 3.4413038e-08 0)
(0.0023235741 3.2693103e-08 0)
(0.0022863528 3.1081075e-08 0)
(0.002250221 2.9567629e-08 0)
(0.00221511 2.8144733e-08 0)
(0.0021809565 2.6805259e-08 0)
(0.0021477013 2.5542326e-08 0)
(0.0021152912 2.4349495e-08 0)
(0.002083677 2.3221904e-08 0)
(0.0020528115 2.2155352e-08 0)
(0.0020226507 2.114526e-08 0)
(0.0019931542 2.0187502e-08 0)
(0.001964284 1.9278489e-08 0)
(0.0019360044 1.8414984e-08 0)
(0.0019082818 1.759403e-08 0)
(0.0018810847 1.6812275e-08 0)
(0.0018543851 1.6067116e-08 0)
(0.0018281551 1.5357005e-08 0)
(0.0018023676 1.4679794e-08 0)
(0.0017769975 1.4033197e-08 0)
(0.0017520214 1.3415456e-08 0)
(0.0017274164 1.2824917e-08 0)
(0.0017031611 1.2260058e-08 0)
(0.0016792346 1.1719305e-08 0)
(0.0016556179 1.1201053e-08 0)
(0.001632293 1.0704269e-08 0)
(0.0016092413 1.0228115e-08 0)
(0.0015864452 9.771393e-09 0)
(0.0015638878 9.3330166e-09 0)
(0.0015415529 8.9120811e-09 0)
(0.0015194246 8.5077437e-09 0)
(0.0014974873 8.1192154e-09 0)
(0.001475726 7.7454959e-09 0)
(0.0014541271 7.385876e-09 0)
(0.0014326761 7.0400015e-09 0)
(0.0014113582 6.7072105e-09 0)
(0.0013901595 6.386818e-09 0)
(0.0013690662 6.07831e-09 0)
(0.0013480644 5.7811906e-09 0)
(0.0013271401 5.4949706e-09 0)
(0.0013062796 5.219084e-09 0)
(0.0012854695 4.9531362e-09 0)
(0.0012646958 4.6968727e-09 0)
(0.0012439437 4.4498975e-09 0)
(0.0012231986 4.2118226e-09 0)
(0.0012024455 3.9823673e-09 0)
(0.0011816686 3.7612057e-09 0)
(0.0011608518 3.5479878e-09 0)
(0.0011399787 3.3429296e-09 0)
(0.0011190258 3.1445136e-09 0)
(0.0010979914 2.9523115e-09 0)
(0.0010773279 2.7724148e-09 0)
(0.0010576547 2.6101131e-09 0)
(0.0010391031 2.4631848e-09 0)
(0.0010215813 2.3280262e-09 0)
(0.0010050087 2.2039929e-09 0)
(0.00098930317 2.0906254e-09 0)
(0.00097439059 1.9868698e-09 0)
(0.00096020433 1.8917965e-09 0)
(0.00094668391 1.8045999e-09 0)
(0.00093377449 1.7245274e-09 0)
(0.00092142659 1.6509579e-09 0)
(0.00090959447 1.5834731e-09 0)
(0.00089823477 1.5217566e-09 0)
(0.00088730639 1.4656792e-09 0)
(0.00087676785 1.4151575e-09 0)
(0.00086657927 1.3709008e-09 0)
(0.00085668878 1.3327387e-09 0)
(0.000847059 1.3052797e-09 0)
(0.00083757061 1.281774e-09 0)
(0.00082828502 1.2999068e-09 0)
(0.0008185312 1.2517555e-09 0)
(0.00080995168 1.4281758e-09 0)
(0.00079760204 8.4422868e-10 -2.0271454e-25)
(1 4.0861713e-09 0)
(0.99997818 1.0663301e-08 0)
(0.99994716 1.4806824e-08 0)
(0.99991294 1.9021594e-08 0)
(0.99987338 2.4945484e-08 0)
(0.99982764 3.2569604e-08 0)
(0.99977513 4.2375887e-08 0)
(0.99971483 5.5213681e-08 0)
(0.99964534 7.2147019e-08 0)
(0.99956493 9.4574926e-08 0)
(0.99947145 1.2442172e-07 0)
(0.99936219 1.6447681e-07 0)
(0.99923347 2.18577e-07 0)
(0.99908064 2.9309786e-07 0)
(0.99889638 3.9558779e-07 0)
(0.99867269 5.4568726e-07 0)
(0.9983897 7.5149477e-07 0)
(0.9980396 1.109865e-06 0)
(0.99753825 1.5362981e-06 0)
(0.99694897 2.7010801e-06 0)
(0.99576816 3.5874678e-06 0)
(0.99470661 8.9271482e-06 0)
(0.99051242 2.8836808e-06 0)
(0.99294341 0.0017420967 0)
(0.044586256 0.001770537 0)
(0.017726393 2.8619807e-05 0)
(0.012639459 6.4609536e-06 0)
(0.010373584 3.1035219e-06 0)
(0.0090749126 1.8934721e-06 0)
(0.0081784063 1.337048e-06 0)
(0.0075105057 1.0117964e-06 0)
(0.0069833401 8.0294295e-07 0)
(0.0065529471 6.5668112e-07 0)
(0.0061924251 5.4983534e-07 0)
(0.0058839687 4.6909659e-07 0)
(0.005615716 4.0605082e-07 0)
(0.0053794174 3.5556433e-07 0)
(0.0051690415 3.1438325e-07 0)
(0.0049800253 2.8028601e-07 0)
(0.0048088537 2.5166409e-07 0)
(0.0046527916 2.2733092e-07 0)
(0.0045096761 2.0649105e-07 0)
(0.0043776669 1.8844135e-07 0)
(0.0042554106 1.7266408e-07 7.2868635e-35)
(0.004141658 1.5883001e-07 0)
(0.0040354211 1.4659231e-07 0)
(0.003935853 1.3571289e-07 0)
(0.0038422356 1.2598919e-07 0)
(0.0037539536 1.1725504e-07 0)
(0.0036704796 1.0937479e-07 0)
(0.0035913541 1.0223896e-07 0)
(0.003516174 9.5753863e-08 0)
(0.0034445869 8.9839831e-08 0)
(0.0033762814 8.4429054e-08 0)
(0.0033109829 7.9462034e-08 0)
(0.0032484493 7.4889873e-08 0)
(0.0031884623 7.0672089e-08 0)
(0.0031308253 6.6771789e-08 0)
(0.0030753625 6.3156348e-08 0)
(0.0030219152 5.9798175e-08 0)
(0.0029703393 5.6672339e-08 0)
(0.0029205048 5.3755927e-08 0)
(0.0028722949 5.1030323e-08 0)
(0.0028256011 4.8479922e-08 0)
(0.0027803234 4.6089527e-08 0)
(0.0027363712 4.3845314e-08 0)
(0.0026936606 4.1735367e-08 0)
(0.0026521146 3.9749123e-08 0)
(0.0026116613 3.7876375e-08 0)
(0.002572236 3.6107576e-08 0)
(0.0025337787 3.4435517e-08 0)
(0.0024962321 3.2853967e-08 0)
(0.0024595428 3.1356139e-08 0)
(0.0024236615 2.9935912e-08 0)
(0.0023885419 2.8587966e-08 0)
(0.0023541408 2.7307501e-08 0)
(0.0023204172 2.6090131e-08 0)
(0.0022873328 2.4930888e-08 0)
(0.0022548535 2.3825911e-08 0)
(0.0022229456 2.2772905e-08 0)
(0.0021915757 2.1768683e-08 0)
(0.0021607137 2.0809858e-08 0)
(0.0021303308 1.9893821e-08 0)
(0.0021003994 1.901812e-08 0)
(0.0020708934 1.81805e-08 0)
(0.0020417874 1.7378624e-08 0)
(0.0020130581 1.6610114e-08 0)
(0.0019846837 1.5873439e-08 0)
(0.0019566418 1.5167354e-08 0)
(0.0019289106 1.4490085e-08 0)
(0.0019014699 1.3840019e-08 0)
(0.0018742997 1.3215816e-08 0)
(0.001847381 1.2616225e-08 0)
(0.0018206945 1.2040078e-08 0)
(0.0017942222 1.148589e-08 0)
(0.0017679472 1.095261e-08 0)
(0.0017418523 1.0439712e-08 0)
(0.0017159192 9.946216e-09 0)
(0.0016901312 9.4711053e-09 0)
(0.0016644713 9.013618e-09 0)
(0.0016389228 8.5730186e-09 0)
(0.0016134685 8.1485817e-09 0)
(0.0015880916 7.7394685e-09 0)
(0.0015627763 7.3450933e-09 0)
(0.001537505 6.965079e-09 0)
(0.0015122601 6.5988382e-09 0)
(0.0014870237 6.245796e-09 0)
(0.0014617775 5.9055358e-09 0)
(0.0014365023 5.5775745e-09 0)
(0.0014111785 5.2613933e-09 0)
(0.0013857863 4.9573129e-09 0)
(0.0013602968 4.6630825e-09 0)
(0.0013347083 4.3780692e-09 0)
(0.0013095708 4.1113051e-09 0)
(0.0012856379 3.8706328e-09 0)
(0.0012630692 3.6527598e-09 0)
(0.0012417533 3.4523415e-09 0)
(0.0012215919 3.2684198e-09 0)
(0.0012024852 3.1003133e-09 0)
(0.0011843431 2.9464593e-09 0)