# Region        : all region0
# Cells         : 13056
# Volume        : 2.33333000e+00
# Time          	min(U)
0.000120005     	(2.58650795e-01 -3.54287761e-08 -2.55709844e-32)
0.000264017     	(1.25745317e-01 -2.78087996e-07 -9.51100143e-33)
0.000436833     	(8.66851057e-02 -4.52551825e-07 -1.02145868e-32)
0.000644211     	(6.86148431e-02 -7.65318201e-07 -1.07055156e-32)
0.000893055     	(5.77168575e-02 -1.42760615e-06 -1.11079037e-32)
0.00119165      	(5.01685625e-02 -2.59411667e-06 -1.18581884e-32)
0.0015499       	(4.45138573e-02 -4.52052433e-06 -1.27637807e-32)
0.00197972      	(4.00615553e-02 -7.70742018e-06 -1.38108481e-32)
0.00249549      	(3.64332053e-02 -1.28289891e-05 -1.49842718e-32)
0.00311429      	(3.34006750e-02 -2.09907458e-05 -1.62831359e-32)
0.00385657      	(3.08166313e-02 -3.35552903e-05 -1.77052540e-32)
0.00472354      	(2.85810212e-02 -5.24704896e-05 -1.94242535e-32)
0.00571288      	(2.66228462e-02 -7.95988429e-05 -2.12036442e-32)
0.00682257      	(2.48901039e-02 -1.17335930e-04 -2.29875528e-32)
0.00800916      	(2.33437840e-02 -1.67098022e-04 -2.49702509e-32)
0.00917896      	(2.19539397e-02 -2.27781777e-04 -2.69407718e-32)
0.0103338       	(2.06968695e-02 -3.01523954e-04 -2.81153679e-32)
0.0114753       	(1.95537177e-02 -3.87969012e-04 -2.91725332e-32)
0.0126024       	(1.85092278e-02 -4.87235790e-04 -3.01607511e-32)
0.0137169       	(1.75508854e-02 -5.96700907e-04 -3.10561770e-32)
0.0148201       	(1.66683132e-02 -7.22267450e-04 -3.18797720e-32)
0.0159135       	(1.58528173e-02 -8.58138817e-04 -3.26356480e-32)
0.0169973       	(1.50970494e-02 -1.00356597e-03 -3.33275029e-32)
0.0180728       	(1.43947435e-02 -1.15786645e-03 -3.39488637e-32)
0.019139        	(1.37405221e-02 -1.32568366e-03 -3.45101675e-32)
0.0201959       	(1.31296590e-02 -1.50199633e-03 -3.49955827e-32)
0.0212461       	(1.25581120e-02 -1.68520909e-03 -3.54241014e-32)
0.0222884       	(1.20224004e-02 -1.87398392e-03 -3.58105683e-32)
0.0233241       	(1.15194088e-02 -2.06743710e-03 -3.61371795e-32)
0.0243544       	(1.10463843e-02 -2.26460258e-03 -3.64267521e-32)
0.0253781       	(1.06008857e-02 -2.46422007e-03 -3.66726661e-32)
0.0263966       	(1.01807338e-02 -2.66541066e-03 -3.68702196e-32)
0.0274086       	(9.78398156e-03 -2.86696972e-03 -3.70275702e-32)
0.0284154       	(9.40887760e-03 -3.06926701e-03 -3.71434314e-32)
0.0294181       	(9.05384442e-03 -3.27368437e-03 -3.72395165e-32)
0.0304156       	(8.71745792e-03 -3.47568230e-03 -3.73027203e-32)
0.0314091       	(8.39842476e-03 -3.67456988e-03 -3.73342114e-32)
0.0323984       	(8.09557060e-03 -3.86953158e-03 -3.73449377e-32)
0.0333838       	(7.80782485e-03 -4.05984652e-03 -3.73286391e-32)
0.0343651       	(7.53420940e-03 -4.24488957e-03 -3.72869408e-32)
0.0353434       	(7.27382780e-03 -4.42422311e-03 -3.72324711e-32)
0.0363178       	(7.02585898e-03 -4.59722122e-03 -3.71539668e-32)
0.0372893       	(6.78954606e-03 -4.76364185e-03 -3.70585911e-32)
0.0382569       	(6.56419342e-03 -4.92302898e-03 -3.69409044e-32)
0.0392215       	(6.34915729e-03 -5.07528020e-03 -3.68097854e-32)
0.0401832       	(6.14384331e-03 -5.22020692e-03 -3.66731210e-32)
0.0411421       	(5.94770073e-03 -5.35769740e-03 -3.65185401e-32)
0.042099        	(5.76021800e-03 -5.48780237e-03 -3.63667737e-32)
0.0430531       	(5.58092102e-03 -5.61041015e-03 -3.61963995e-32)
0.0440053       	(5.40936731e-03 -5.72569133e-03 -3.60206804e-32)
0.0449556       	(5.24514535e-03 -5.83372982e-03 -3.58425372e-32)
0.0459031       	(5.08787148e-03 -5.93458831e-03 -3.56410653e-32)
0.0468486       	(4.93718633e-03 -6.02854946e-03 -3.54377391e-32)
0.0477924       	(4.79275445e-03 -6.11581242e-03 -3.52337634e-32)
0.0487342       	(4.65426154e-03 -6.19660552e-03 -3.50230962e-32)
0.0496742       	(4.52141298e-03 -6.27118361e-03 -3.48060187e-32)
0.0506123       	(4.39393231e-03 -6.33981965e-03 -3.45832152e-32)
0.0515495       	(4.27155945e-03 -6.40330686e-03 -3.43702167e-32)
0.0524849       	(4.15363760e-03 -6.46595849e-03 -3.41444167e-32)
0.0534184       	(4.04019669e-03 -6.52370341e-03 -3.39074396e-32)
0.054351        	(3.93112061e-03 -6.57685197e-03 -3.36820702e-32)
0.0552817       	(3.82620469e-03 -6.62560460e-03 -3.34447211e-32)
0.0562116       	(3.72525521e-03 -6.67026338e-03 -3.32134548e-32)
0.0571405       	(3.62808965e-03 -6.71106621e-03 -3.29862909e-32)
0.0580685       	(3.53453549e-03 -6.74824682e-03 -3.27569358e-32)
0.0589947       	(3.44442992e-03 -6.78200409e-03 -3.25095336e-32)
0.05992         	(3.35761842e-03 -6.81260762e-03 -3.22700331e-32)
0.0608444       	(3.27395503e-03 -6.84026532e-03 -3.20356783e-32)
0.0617678       	(3.19330141e-03 -6.86517374e-03 -3.19237966e-32)
0.0626904       	(3.11552648e-03 -6.88752318e-03 -3.18723886e-32)
0.063612        	(3.04050593e-03 -6.90749487e-03 -3.18194880e-32)
0.0645336       	(2.96812158e-03 -6.92528262e-03 -3.17788795e-32)
0.0654544       	(2.89826163e-03 -6.94101062e-03 -3.17280064e-32)
0.0663742       	(2.83081968e-03 -6.95483117e-03 -3.16714202e-32)
0.0672931       	(2.76569464e-03 -6.96688960e-03 -3.16137035e-32)
0.068212        	(2.70279019e-03 -6.97733762e-03 -3.15692661e-32)
0.0691301       	(2.64201510e-03 -6.98626748e-03 -3.15144342e-32)
0.0700481       	(2.58328213e-03 -6.99381292e-03 -3.14687509e-32)
0.0709652       	(2.52650861e-03 -7.00005820e-03 -3.14124209e-32)
0.0718823       	(2.47161542e-03 -7.00512269e-03 -3.13656165e-32)
0.0727985       	(2.41852752e-03 -7.00908022e-03 -3.13081106e-32)
0.0737147       	(2.36717305e-03 -7.01203713e-03 -3.12605229e-32)
0.07463         	(2.31748380e-03 -7.01405757e-03 -3.12021302e-32)
0.0755453       	(2.26939438e-03 -7.01523722e-03 -3.11539905e-32)
0.0764597       	(2.22284268e-03 -7.01563317e-03 -3.10949354e-32)
0.0773741       	(2.17776912e-03 -7.01533231e-03 -3.10464527e-32)
0.0782885       	(2.13411696e-03 -7.01439978e-03 -3.10022531e-32)
0.079202        	(2.09183208e-03 -7.01287977e-03 -3.09426085e-32)
0.0801155       	(2.05086251e-03 -7.01085227e-03 -3.08938353e-32)
0.081029        	(2.01115872e-03 -7.00837576e-03 -3.08494378e-32)
0.0819416       	(1.97267344e-03 -7.00548681e-03 -3.07894493e-32)
0.0828542       	(1.93536120e-03 -7.00225628e-03 -3.07407157e-32)
0.0837667       	(1.89917866e-03 -6.99873528e-03 -3.06964231e-32)
0.0846793       	(1.86408428e-03 -6.99496638e-03 -3.06522739e-32)
0.0855919       	(1.83003829e-03 -6.99099278e-03 -3.06081700e-32)
0.0865036       	(1.79700271e-03 -6.98684362e-03 -3.05480973e-32)
0.0874152       	(1.76494096e-03 -6.98257806e-03 -3.04998325e-32)
0.0883269       	(1.73381810e-03 -6.97823446e-03 -3.04560943e-32)
0.0892386       	(1.70360062e-03 -6.97384199e-03 -3.04125892e-32)
0.0901503       	(1.67425637e-03 -6.96943041e-03 -3.03692228e-32)
0.0910619       	(1.64575456e-03 -6.96502866e-03 -3.03260414e-32)
0.0919736       	(1.61806560e-03 -6.96066542e-03 -3.02831262e-32)
0.0928853       	(1.59116113e-03 -6.95635565e-03 -3.02400669e-32)
0.093797        	(1.56501393e-03 -6.95212468e-03 -3.01973430e-32)
0.0947086       	(1.53959785e-03 -6.94799060e-03 -3.01548599e-32)
0.0956194       	(1.51488789e-03 -6.94395334e-03 -3.00958930e-32)
0.0965301       	(1.49085986e-03 -6.94004466e-03 -3.00495732e-32)
0.0974409       	(1.46749064e-03 -6.93627612e-03 -3.00078413e-32)
0.0983517       	(1.44475797e-03 -6.93265040e-03 -2.99664295e-32)
0.0992624       	(1.42264050e-03 -6.92917145e-03 -2.99252404e-32)
0.100173        	(1.40111766e-03 -6.92584326e-03 -2.98842705e-32)
0.101084        	(1.38016970e-03 -6.92266825e-03 -2.98435180e-32)
0.101995        	(1.35977763e-03 -6.91964699e-03 -2.98029927e-32)
0.102905        	(1.33992317e-03 -6.91677875e-03 -2.97627025e-32)
0.103816        	(1.32058873e-03 -6.91406176e-03 -2.97226556e-32)
0.104728        	(1.30175735e-03 -6.91150930e-03 -2.97001012e-32)
0.105639        	(1.28341284e-03 -6.90908106e-03 -2.96475064e-32)
0.106548        	(1.26553952e-03 -6.90677724e-03 -2.95865684e-32)
0.107457        	(1.24812232e-03 -6.90460681e-03 -2.95258970e-32)
0.108366        	(1.23114668e-03 -6.90258647e-03 -2.94830585e-32)
0.109274        	(1.21459867e-03 -6.90069155e-03 -2.94275157e-32)
0.110181        	(1.19846483e-03 -6.89891757e-03 -2.93680857e-32)
0.111087        	(1.18273221e-03 -6.89726814e-03 -2.93089950e-32)
0.111994        	(1.16738826e-03 -6.89576081e-03 -2.92677778e-32)
0.112899        	(1.15242101e-03 -6.89437246e-03 -2.92136694e-32)
0.113803        	(1.13781885e-03 -6.89310042e-03 -2.91556506e-32)
0.114707        	(1.12357056e-03 -6.89196671e-03 -2.91154610e-32)
0.115611        	(1.10966541e-03 -6.89179266e-03 -2.90622531e-32)
0.116514        	(1.09609294e-03 -6.89262891e-03 -2.90227222e-32)
0.117416        	(1.08284318e-03 -6.89355421e-03 -2.89699960e-32)
0.118318        	(1.06990643e-03 -6.89456970e-03 -2.89134170e-32)
0.11922         	(1.05727333e-03 -6.89569558e-03 -2.88747443e-32)
0.12012         	(1.04493488e-03 -6.89691318e-03 -2.88229115e-32)
0.121021        	(1.03288236e-03 -6.89823747e-03 -2.87848774e-32)
0.12192         	(1.02110738e-03 -6.89965301e-03 -2.87335442e-32)
0.12282         	(1.00960178e-03 -6.90117649e-03 -2.86960468e-32)
0.123719        	(9.98357769e-04 -6.90279202e-03 -2.86451982e-32)
0.124618        	(9.87367715e-04 -6.90451591e-03 -2.86082345e-32)
0.125515        	(9.76624332e-04 -6.90633138e-03 -2.85578767e-32)
0.126413        	(9.66120502e-04 -6.90825428e-03 -2.85214567e-32)
0.12731         	(9.55849417e-04 -6.91026693e-03 -2.84715934e-32)
0.128207        	(9.45804423e-04 -6.91238464e-03 -2.84357068e-32)
0.129103        	(9.35979155e-04 -6.91458879e-03 -2.83863336e-32)
0.129999        	(9.26367391e-04 -6.91689401e-03 -2.83509685e-32)
0.130894        	(9.16963177e-04 -6.91928068e-03 -2.83020757e-32)
0.131789        	(9.07760690e-04 -6.92176269e-03 -2.82672367e-32)
0.132683        	(8.98754359e-04 -6.92431946e-03 -2.82188272e-32)
0.133577        	(8.89938731e-04 -6.92696426e-03 -2.81844957e-32)
0.134471        	(8.81308591e-04 -6.92967564e-03 -2.81365612e-32)
0.135364        	(8.72858829e-04 -6.93246640e-03 -2.81027361e-32)
0.136256        	(8.64584559e-04 -6.93531446e-03 -2.80552712e-32)
0.137148        	(8.56480994e-04 -6.93823231e-03 -2.80219502e-32)
0.138041        	(8.48543524e-04 -6.94121417e-03 -2.79929682e-32)
0.138932        	(8.40767709e-04 -6.94423344e-03 -2.79461676e-32)
0.139823        	(8.33149198e-04 -6.94730617e-03 -2.79134870e-32)
0.140714        	(8.25683827e-04 -6.95041122e-03 -2.78670786e-32)
0.141604        	(8.18367513e-04 -6.95356155e-03 -2.78349076e-32)
0.142495        	(8.11196326e-04 -6.95675169e-03 -2.78070710e-32)
0.143384        	(8.04166473e-04 -6.95995559e-03 -2.77613636e-32)
0.144274        	(7.97274237e-04 -6.96319094e-03 -2.77298632e-32)
0.145162        	(7.90516061e-04 -6.96643810e-03 -2.76845619e-32)
0.146051        	(7.83888452e-04 -6.96971209e-03 -2.76535699e-32)
0.14694         	(7.77388046e-04 -6.97300949e-03 -2.76269245e-32)
0.147827        	(7.71011596e-04 -6.97630644e-03 -2.75823340e-32)
0.148715        	(7.64755918e-04 -6.97962314e-03 -2.75520228e-32)
0.149602        	(7.58617964e-04 -6.98294228e-03 -2.75078459e-32)
0.150489        	(7.52594736e-04 -6.98628154e-03 -2.74780516e-32)
0.151375        	(7.46683346e-04 -6.98963995e-03 -2.74525736e-32)
0.152261        	(7.40881011e-04 -6.99299586e-03 -2.74090939e-32)
0.153147        	(7.35184991e-04 -6.99637192e-03 -2.73799581e-32)
0.154033        	(7.29592648e-04 -6.99977002e-03 -2.73551207e-32)
0.154918        	(7.24101437e-04 -7.00316941e-03 -2.73122450e-32)
0.155803        	(7.18708854e-04 -7.00659337e-03 -2.72837468e-32)
0.156688        	(7.13412485e-04 -7.01004432e-03 -2.72595384e-32)
0.157571        	(7.08210002e-04 -7.01350193e-03 -2.72172543e-32)
0.158455        	(7.03099111e-04 -7.01698983e-03 -2.71893770e-32)
0.159339        	(6.98077604e-04 -7.02051071e-03 -2.71657848e-32)
0.160222        	(6.93143348e-04 -7.02404397e-03 -2.71240731e-32)
0.161106        	(6.88294242e-04 -7.02761316e-03 -2.70967949e-32)
0.161989        	(6.83528260e-04 -7.03122043e-03 -2.70737865e-32)
0.162871        	(6.78843449e-04 -7.03484440e-03 -2.70326206e-32)
0.163753        	(6.74237881e-04 -7.03850795e-03 -2.70059111e-32)
0.164635        	(6.69709698e-04 -7.04221230e-03 -2.69834564e-32)
0.165516        	(6.65257108e-04 -7.04593481e-03 -2.69428124e-32)
0.166397        	(6.60878340e-04 -7.04969745e-03 -2.69166326e-32)
0.167278        	(6.56571689e-04 -7.05350020e-03 -2.68946992e-32)
0.168159        	(6.52335510e-04 -7.05731903e-03 -2.68545323e-32)
0.169039        	(6.48168174e-04 -7.06117467e-03 -2.68288617e-32)
0.169919        	(6.44068116e-04 -7.06506585e-03 -2.68074353e-32)
0.170799        	(6.40033821e-04 -7.06896715e-03 -2.67677338e-32)
0.171678        	(6.36063793e-04 -7.07289831e-03 -2.67425506e-32)
0.172557        	(6.32155451e-04 -7.07685698e-03 -2.67215973e-32)
0.173436        	(6.28302878e-04 -7.08081663e-03 -2.66823376e-32)
0.174314        	(6.24511459e-04 -7.08479624e-03 -2.66576320e-32)
0.175192        	(6.20779892e-04 -7.08879274e-03 -2.66371347e-32)
0.17607         	(6.17106922e-04 -7.09277896e-03 -2.65983102e-32)
0.176947        	(6.13483358e-04 -7.09677357e-03 -2.65740607e-32)
0.177825        	(6.09913218e-04 -7.10077327e-03 -2.65540202e-32)
0.178702        	(6.06397696e-04 -7.10476914e-03 -2.65341454e-32)
0.179579        	(6.02935666e-04 -7.10873734e-03 -2.64958254e-32)
0.180455        	(5.99526004e-04 -7.11269842e-03 -2.64721198e-32)
0.181332        	(5.96167633e-04 -7.11664970e-03 -2.64526286e-32)
0.182207        	(5.92859515e-04 -7.12056426e-03 -2.64147569e-32)
0.183083        	(5.89600611e-04 -7.12446176e-03 -2.63915326e-32)
0.183959        	(5.86389928e-04 -7.12834044e-03 -2.63725230e-32)
0.184834        	(5.83226492e-04 -7.13219321e-03 -2.63536822e-32)
0.185709        	(5.80109369e-04 -7.13599813e-03 -2.63163514e-32)
0.186583        	(5.77034692e-04 -7.13977843e-03 -2.62936891e-32)
0.187458        	(5.73997797e-04 -7.14353383e-03 -2.62752564e-32)
0.188332        	(5.71004218e-04 -7.14724005e-03 -2.62383947e-32)
0.189205        	(5.68053089e-04 -7.15091992e-03 -2.62162129e-32)
0.190079        	(5.65143582e-04 -7.15457452e-03 -2.61982780e-32)
0.190953        	(5.62274887e-04 -7.15819960e-03 -2.61805003e-32)
0.191826        	(5.59446224e-04 -7.16177640e-03 -2.61441564e-32)
0.192698        	(5.56656812e-04 -7.16533092e-03 -2.61225786e-32)
0.193571        	(5.53905902e-04 -7.16886591e-03 -2.61051820e-32)
0.194443        	(5.51192774e-04 -7.17235968e-03 -2.60693162e-32)
0.195315        	(5.48516701e-04 -7.17583752e-03 -2.60481866e-32)
0.196187        	(5.45876989e-04 -7.17930286e-03 -2.60312724e-32)
0.197058        	(5.43266777e-04 -7.18275360e-03 -2.60145200e-32)
0.197929        	(5.40688838e-04 -7.18617261e-03 -2.59791657e-32)
0.1988          	(5.38145015e-04 -7.18958738e-03 -2.59584961e-32)
0.199671        	(5.35634682e-04 -7.19300198e-03 -2.59421321e-32)
0.200542        	(5.33157221e-04 -7.19641409e-03 -2.59258826e-32)
0.201412        	(5.30712044e-04 -7.19980638e-03 -2.58909813e-32)
0.202282        	(5.28298554e-04 -7.20320636e-03 -2.58708649e-32)
0.203152        	(5.25916181e-04 -7.20661770e-03 -2.58549643e-32)
0.204021        	(5.23564376e-04 -7.21001892e-03 -2.58204119e-32)
0.20489         	(5.21242585e-04 -7.21343550e-03 -2.58007678e-32)
0.205759        	(5.18950278e-04 -7.21687037e-03 -2.57852028e-32)
0.206627        	(5.16686935e-04 -7.22032039e-03 -2.57698607e-32)
0.207496        	(5.14444353e-04 -7.22376656e-03 -2.57356409e-32)
0.208364        	(5.12229180e-04 -7.22723511e-03 -2.57163744e-32)
0.209232        	(5.10041268e-04 -7.23072788e-03 -2.57013005e-32)
0.2101          	(5.07880144e-04 -7.23423993e-03 -2.56862592e-32)
0.210967        	(5.05745357e-04 -7.23775064e-03 -2.56524948e-32)
0.211834        	(5.03636446e-04 -7.24128505e-03 -2.56335057e-32)
0.212701        	(5.01552973e-04 -7.24484365e-03 -2.56188325e-32)
0.213568        	(4.99494506e-04 -7.24842024e-03 -2.56041597e-32)
0.214434        	(4.97460635e-04 -7.25199282e-03 -2.55707278e-32)
0.2153          	(4.95450937e-04 -7.25558529e-03 -2.55521427e-32)
0.216166        	(4.93465014e-04 -7.25919698e-03 -2.55377450e-32)
0.217032        	(4.91502086e-04 -7.26282063e-03 -2.55234593e-32)
0.217897        	(4.89555139e-04 -7.26643294e-03 -2.54902960e-32)
0.218763        	(4.87630625e-04 -7.27005712e-03 -2.54720586e-32)
0.219628        	(4.85728179e-04 -7.27369167e-03 -2.54579898e-32)
0.220493        	(4.83847444e-04 -7.27732855e-03 -2.54440271e-32)
0.221357        	(4.81988074e-04 -7.28094376e-03 -2.54111791e-32)
0.222221        	(4.80149720e-04 -7.28456018e-03 -2.53932200e-32)
0.223086        	(4.78332047e-04 -7.28817592e-03 -2.53795138e-32)
0.22395         	(4.76534727e-04 -7.29178271e-03 -2.53658617e-32)
0.224813        	(4.74757446e-04 -7.29535634e-03 -2.53333393e-32)
0.225676        	(4.72999881e-04 -7.29891977e-03 -2.53156570e-32)
0.226539        	(4.71261727e-04 -7.30247124e-03 -2.53023085e-32)
0.227403        	(4.69542682e-04 -7.30600273e-03 -2.52889579e-32)
0.228265        	(4.67835730e-04 -7.30949037e-03 -2.52567454e-32)
0.229127        	(4.66147064e-04 -7.31295747e-03 -2.52393793e-32)
0.22999         	(4.64476483e-04 -7.31640295e-03 -2.52263713e-32)
0.230852        	(4.62823711e-04 -7.31981932e-03 -2.52133485e-32)
0.231713        	(4.61188485e-04 -7.32318338e-03 -2.51814407e-32)
0.232574        	(4.59570532e-04 -7.32651924e-03 -2.51644208e-32)
0.233436        	(4.57969597e-04 -7.32982664e-03 -2.51517444e-32)
0.234297        	(4.56385426e-04 -7.33309895e-03 -2.51390739e-32)
0.235158        	(4.54817768e-04 -7.33633342e-03 -2.51265166e-32)
0.236019        	(4.53266389e-04 -7.33950986e-03 -2.50948798e-32)
0.236879        	(4.51731041e-04 -7.34265357e-03 -2.50782997e-32)
0.237739        	(4.50211493e-04 -7.34576524e-03 -2.50659805e-32)
0.2386          	(4.48702766e-04 -7.34883920e-03 -2.50537532e-32)
0.239459        	(4.47207764e-04 -7.35185435e-03 -2.50224396e-32)
0.240318        	(4.45727749e-04 -7.35483708e-03 -2.50063238e-32)
0.241178        	(4.44262508e-04 -7.35778923e-03 -2.49943210e-32)
0.242037        	(4.42811831e-04 -7.36070629e-03 -2.49824896e-32)
0.242896        	(4.41375517e-04 -7.36356793e-03 -2.49514830e-32)
0.243754        	(4.39953358e-04 -7.36640132e-03 -2.49357390e-32)
0.244612        	(4.38545157e-04 -7.36920912e-03 -2.49241216e-32)
0.245471        	(4.37150720e-04 -7.37198730e-03 -2.49126342e-32)
0.246328        	(4.35769861e-04 -7.37471627e-03 -2.48819814e-32)
0.247186        	(4.34402389e-04 -7.37742369e-03 -2.48665544e-32)
0.248043        	(4.33048120e-04 -7.38011266e-03 -2.48553155e-32)
0.2489          	(4.31704813e-04 -7.38277975e-03 -2.48441641e-32)
0.249758        	(4.30370591e-04 -7.38542533e-03 -2.48330620e-32)
0.250614        	(4.29048929e-04 -7.38803183e-03 -2.48027319e-32)
0.251471        	(4.27739652e-04 -7.39062744e-03 -2.47876644e-32)
0.252327        	(4.26442596e-04 -7.39321530e-03 -2.47767783e-32)
0.253184        	(4.25157597e-04 -7.39579196e-03 -2.47660137e-32)
0.254039        	(4.23884502e-04 -7.39833812e-03 -2.47359904e-32)
0.254895        	(4.22623148e-04 -7.40088199e-03 -2.47212318e-32)
0.25575         	(4.21373382e-04 -7.40342704e-03 -2.47106731e-32)
0.256605        	(4.20135054e-04 -7.40596989e-03 -2.47002103e-32)
0.257461        	(4.18908015e-04 -7.40851074e-03 -2.46897789e-32)
0.258315        	(4.17692124e-04 -7.41103174e-03 -2.46600201e-32)
0.25917         	(4.16487233e-04 -7.41356088e-03 -2.46455617e-32)
0.260024        	(4.15289037e-04 -7.41610086e-03 -2.46353076e-32)
0.260879        	(4.14100311e-04 -7.41864759e-03 -2.46251519e-32)
0.261732        	(4.12922074e-04 -7.42118066e-03 -2.45956383e-32)
0.262586        	(4.11754188e-04 -7.42372774e-03 -2.45814381e-32)
0.263439        	(4.10596525e-04 -7.42629137e-03 -2.45714408e-32)
0.264293        	(4.09448957e-04 -7.42886699e-03 -2.45615310e-32)
0.265146        	(4.08311358e-04 -7.43145363e-03 -2.45516347e-32)
0.265999        	(4.07183610e-04 -7.43403181e-03 -2.45222957e-32)
0.266851        	(4.06065587e-04 -7.43662853e-03 -2.45083197e-32)
0.267704        	(4.04957172e-04 -7.43924510e-03 -2.44985499e-32)
0.268556        	(4.03858248e-04 -7.44187588e-03 -2.44888632e-32)
0.269409        	(4.02768699e-04 -7.44451903e-03 -2.44791812e-32)
0.27026         	(4.01688311e-04 -7.44715397e-03 -2.44500060e-32)
0.271112        	(4.00612249e-04 -7.44980710e-03 -2.44362287e-32)
0.271963        	(3.99545138e-04 -7.45247889e-03 -2.44266685e-32)
0.272815        	(3.98486873e-04 -7.45516280e-03 -2.44171798e-32)
0.273665        	(3.97437354e-04 -7.45783550e-03 -2.43881658e-32)
0.274516        	(3.96396472e-04 -7.46052285e-03 -2.43745795e-32)
0.275366        	(3.95364128e-04 -7.46322508e-03 -2.43651966e-32)
0.276217        	(3.94340223e-04 -7.46593520e-03 -2.43558863e-32)
0.277067        	(3.93324658e-04 -7.46864990e-03 -2.43465695e-32)
0.277917        	(3.92317342e-04 -7.47134684e-03 -2.43176570e-32)
0.278766        	(3.91318175e-04 -7.47405145e-03 -2.43042107e-32)
0.279616        	(3.90327066e-04 -7.47676301e-03 -2.42949966e-32)
0.280465        	(3.89343923e-04 -7.47947377e-03 -2.42858386e-32)
0.281315        	(3.88368335e-04 -7.48217995e-03 -2.42766851e-32)
0.282163        	(3.87396293e-04 -7.48485874e-03 -2.42478802e-32)
0.283012        	(3.86431871e-04 -7.48753550e-03 -2.42345917e-32)
0.28386         	(3.85474985e-04 -7.49020929e-03 -2.42255368e-32)
0.284709        	(3.84525551e-04 -7.49287220e-03 -2.42165584e-32)
0.285557        	(3.83583485e-04 -7.49552035e-03 -2.42075788e-32)
0.286405        	(3.82648711e-04 -7.49813082e-03 -2.41788968e-32)
0.287252        	(3.81721145e-04 -7.50072917e-03 -2.41657791e-32)
0.2881          	(3.80800710e-04 -7.50331460e-03 -2.41569092e-32)
0.288947        	(3.79887327e-04 -7.50587934e-03 -2.41481232e-32)
0.289795        	(3.78980920e-04 -7.50841980e-03 -2.41393335e-32)
0.290641        	(3.78081419e-04 -7.51091334e-03 -2.41107929e-32)
0.291488        	(3.77188744e-04 -7.51338591e-03 -2.40978675e-32)
0.292334        	(3.76302826e-04 -7.51583717e-03 -2.40892042e-32)
0.293181        	(3.75419700e-04 -7.51825984e-03 -2.40806262e-32)
0.294027        	(3.74542790e-04 -7.52065078e-03 -2.40720559e-32)
0.294873        	(3.73672359e-04 -7.52298791e-03 -2.40436780e-32)
0.295718        	(3.72808333e-04 -7.52529782e-03 -2.40309672e-32)
0.296564        	(3.71950647e-04 -7.52758083e-03 -2.40225346e-32)
0.297409        	(3.71099235e-04 -7.52983027e-03 -2.40141913e-32)
0.298255        	(3.70254032e-04 -7.53204365e-03 -2.40058587e-32)
0.299099        	(3.69414978e-04 -7.53419957e-03 -2.39776666e-32)
0.299944        	(3.68582007e-04 -7.53632535e-03 -2.39651928e-32)
0.300788        	(3.67755056e-04 -7.53842202e-03 -2.39570102e-32)
0.301633        	(3.66934066e-04 -7.54048361e-03 -2.39489224e-32)
0.302477        	(3.66118976e-04 -7.54250829e-03 -2.39408486e-32)
0.30332         	(3.65309731e-04 -7.54447536e-03 -2.39128586e-32)
0.304164        	(3.64504047e-04 -7.54641280e-03 -2.39006368e-32)
0.305007        	(3.63702359e-04 -7.54832236e-03 -2.38927237e-32)
0.305851        	(3.62906278e-04 -7.55019863e-03 -2.38849017e-32)
0.306694        	(3.62115749e-04 -7.55204043e-03 -2.38770989e-32)
0.307537        	(3.61330720e-04 -7.55382761e-03 -2.38493182e-32)
0.308379        	(3.60551133e-04 -7.55558871e-03 -2.38373588e-32)
0.309221        	(3.59776938e-04 -7.55732603e-03 -2.38297158e-32)
0.310064        	(3.59008081e-04 -7.55903468e-03 -2.38221688e-32)
0.310906        	(3.58244511e-04 -7.56071393e-03 -2.38146399e-32)
0.311749        	(3.57486177e-04 -7.56236520e-03 -2.38071226e-32)
0.31259         	(3.56733031e-04 -7.56396890e-03 -2.37795537e-32)
0.313431        	(3.55985021e-04 -7.56555414e-03 -2.37679081e-32)
0.314273        	(3.55242099e-04 -7.56712441e-03 -2.37606614e-32)
0.315114        	(3.54504206e-04 -7.56866932e-03 -2.37532212e-32)
0.315956        	(3.53767683e-04 -7.57019329e-03 -2.37459423e-32)
0.316796        	(3.53036053e-04 -7.57167745e-03 -2.37185844e-32)
0.317636        	(3.52309267e-04 -7.57315046e-03 -2.37071757e-32)
0.318477        	(3.51587281e-04 -7.57461490e-03 -2.37001015e-32)
0.319317        	(3.50870051e-04 -7.57606621e-03 -2.36931143e-32)
0.320157        	(3.50157532e-04 -7.57750408e-03 -2.36861342e-32)
0.320997        	(3.49449684e-04 -7.57890887e-03 -2.36589543e-32)
0.321836        	(3.48746461e-04 -7.58030998e-03 -2.36477585e-32)
0.322675        	(3.48047823e-04 -7.58171036e-03 -2.36409064e-32)
0.323515        	(3.47353727e-04 -7.58310538e-03 -2.36341383e-32)
0.324354        	(3.46664132e-04 -7.58449455e-03 -2.36273733e-32)
0.325193        	(3.45978998e-04 -7.58587948e-03 -2.36206075e-32)
0.326031        	(3.45298288e-04 -7.58724015e-03 -2.35935449e-32)
0.32687         	(3.44621232e-04 -7.58860562e-03 -2.35825466e-32)
0.327708        	(3.43945860e-04 -7.58997844e-03 -2.35758986e-32)
0.328546        	(3.43274744e-04 -7.59135372e-03 -2.35693348e-32)
0.329385        	(3.42607846e-04 -7.59273075e-03 -2.35627714e-32)
0.330222        	(3.41945133e-04 -7.59408910e-03 -2.35358432e-32)
0.331059        	(3.41286563e-04 -7.59545812e-03 -2.35250173e-32)
0.331896        	(3.40632103e-04 -7.59684026e-03 -2.35185498e-32)
0.332733        	(3.39981716e-04 -7.59823027e-03 -2.35121555e-32)
0.333571        	(3.39335367e-04 -7.59962701e-03 -2.35057528e-32)
0.334408        	(3.38693021e-04 -7.60103138e-03 -2.34993322e-32)
0.335244        	(3.38054647e-04 -7.60242222e-03 -2.34724508e-32)
0.33608         	(3.37420208e-04 -7.60382827e-03 -2.34617431e-32)
0.336916        	(3.36789671e-04 -7.60525134e-03 -2.34554076e-32)
0.337753        	(3.36163003e-04 -7.60668561e-03 -2.34491614e-32)
0.338589        	(3.35539544e-04 -7.60812946e-03 -2.34428630e-32)
0.339424        	(3.34917371e-04 -7.60956106e-03 -2.34160441e-32)
0.340259        	(3.34298927e-04 -7.61100935e-03 -2.34054486e-32)
0.341094        	(3.33684181e-04 -7.61247585e-03 -2.33992304e-32)
0.341929        	(3.33073103e-04 -7.61395425e-03 -2.33930752e-32)
0.342764        	(3.32465662e-04 -7.61544241e-03 -2.33868999e-32)
0.343599        	(3.31861829e-04 -7.61694019e-03 -2.33806947e-32)
0.344433        	(3.31261575e-04 -7.61842493e-03 -2.33538581e-32)
0.345268        	(3.30664870e-04 -7.61992488e-03 -2.33433118e-32)
0.346102        	(3.30071684e-04 -7.62144088e-03 -2.33371628e-32)
0.346936        	(3.29481991e-04 -7.62296601e-03 -2.33310760e-32)
0.34777         	(3.28895760e-04 -7.62449764e-03 -2.33249678e-32)
0.348604        	(3.28312964e-04 -7.62603518e-03 -2.33188280e-32)
0.349437        	(3.27733578e-04 -7.62755528e-03 -2.32919624e-32)
0.35027         	(3.27157572e-04 -7.62908604e-03 -2.32814648e-32)
0.351103        	(3.26582153e-04 -7.63062785e-03 -2.32753803e-32)
0.351936        	(3.26009867e-04 -7.63217340e-03 -2.32693561e-32)
0.352769        	(3.25440844e-04 -7.63371960e-03 -2.32633113e-32)
0.353602        	(3.24875057e-04 -7.63526557e-03 -2.32572305e-32)
0.354434        	(3.24312484e-04 -7.63678738e-03 -2.32303415e-32)
0.355266        	(3.23753095e-04 -7.63831310e-03 -2.32198813e-32)
0.356097        	(3.23196868e-04 -7.63984290e-03 -2.32138659e-32)
0.356929        	(3.22643777e-04 -7.64136916e-03 -2.32079074e-32)
0.357761        	(3.22093799e-04 -7.64288864e-03 -2.32019268e-32)
0.358593        	(3.21546909e-04 -7.64440024e-03 -2.31959221e-32)
0.359424        	(3.21003085e-04 -7.64587977e-03 -2.31690143e-32)
0.360255        	(3.20462302e-04 -7.64735538e-03 -2.31586031e-32)
0.361086        	(3.19924537e-04 -7.64882725e-03 -2.31526537e-32)
0.361917        	(3.19389767e-04 -7.65028770e-03 -2.31467760e-32)
0.362747        	(3.18856760e-04 -7.65173347e-03 -2.31408793e-32)
0.363578        	(3.18325172e-04 -7.65316352e-03 -2.31349560e-32)
0.364408        	(3.17796479e-04 -7.65455363e-03 -2.31080285e-32)
0.365238        	(3.17270657e-04 -7.65593227e-03 -2.30977070e-32)
0.366067        	(3.16747686e-04 -7.65729975e-03 -2.30918521e-32)
0.366897        	(3.16227544e-04 -7.65864856e-03 -2.30860840e-32)
0.367727        	(3.15710210e-04 -7.65997563e-03 -2.30802841e-32)
0.368557        	(3.15195663e-04 -7.66128017e-03 -2.30744753e-32)
0.369385        	(3.14683885e-04 -7.66253817e-03 -2.30475676e-32)
0.370214        	(3.14174853e-04 -7.66377843e-03 -2.30373491e-32)
0.371043        	(3.13668548e-04 -7.66500167e-03 -2.30316242e-32)
0.371871        	(3.13164951e-04 -7.66620067e-03 -2.30259782e-32)
0.3727          	(3.12664040e-04 -7.66737268e-03 -2.30203252e-32)
0.373529        	(3.12165797e-04 -7.66851730e-03 -2.30146478e-32)
0.374356        	(3.11670205e-04 -7.66961083e-03 -2.29877990e-32)
0.375184        	(3.11175498e-04 -7.67068254e-03 -2.29777057e-32)
0.376011        	(3.10682583e-04 -7.67173358e-03 -2.29721422e-32)
0.376839        	(3.10192229e-04 -7.67275710e-03 -2.29666596e-32)
0.377667        	(3.09704418e-04 -7.67375078e-03 -2.29611734e-32)
0.378494        	(3.09219133e-04 -7.67471460e-03 -2.29556759e-32)
0.379322        	(3.08736355e-04 -7.67564865e-03 -2.29501719e-32)
0.380148        	(3.08256068e-04 -7.67652928e-03 -2.29233719e-32)
0.380975        	(3.07778254e-04 -7.67738617e-03 -2.29134428e-32)
0.381801        	(3.07302894e-04 -7.67822096e-03 -2.29080780e-32)
0.382628        	(3.06829973e-04 -7.67902734e-03 -2.29028025e-32)
0.383454        	(3.06359473e-04 -7.67980350e-03 -2.28975318e-32)
0.384281        	(3.05891376e-04 -7.68054993e-03 -2.28922568e-32)
0.385106        	(3.05425669e-04 -7.68124377e-03 -2.28655832e-32)
0.385931        	(3.04962333e-04 -7.68191530e-03 -2.28558617e-32)
0.386757        	(3.04501352e-04 -7.68256662e-03 -2.28507244e-32)
0.387582        	(3.04041143e-04 -7.68319164e-03 -2.28456786e-32)
0.388407        	(3.03582430e-04 -7.68378881e-03 -2.28406861e-32)
0.389233        	(3.03125997e-04 -7.68435892e-03 -2.28355818e-32)
0.390058        	(3.02671827e-04 -7.68490281e-03 -2.28305245e-32)
0.390882        	(3.02219909e-04 -7.68539744e-03 -2.28039523e-32)
0.391707        	(3.01770223e-04 -7.68587333e-03 -2.27944413e-32)
0.392531        	(3.01322756e-04 -7.68633289e-03 -2.27895450e-32)
0.393355        	(3.00877493e-04 -7.68677036e-03 -2.27847423e-32)