0 	2.3727323e-17 	-3.4546929e-05 	0 	0 	0 	-0.0012243624 	-1.2080537e-10 	0
0.0001001001 	2.5341684e-31 	-3.4535325e-05 	0.0081867524 	3.9417781e-08 	-3.6864799e-40 	0 	0 	0
0.0002002002 	2.8762527e-29 	-3.4523592e-05 	0.016358709 	1.576766e-07 	4.7404238e-38 	0 	0 	0
0.0003003003 	5.0188059e-28 	-3.4511894e-05 	0.024521073 	3.5493719e-07 	0 	0 	0 	0
0.0004004004 	3.4002117e-27 	-3.4500204e-05 	0.032677826 	6.2972526e-07 	0 	0 	0 	0
0.0005005005 	1.6866873e-26 	-3.4488571e-05 	0.0408257 	9.8437157e-07 	0 	0 	0 	0
0.0006006006 	5.5757985e-26 	-3.4476903e-05 	0.048970826 	1.417785e-06 	0 	0 	0 	0
0.0007007007 	1.6492224e-25 	-3.4465329e-05 	0.057104129 	1.9301863e-06 	0 	0 	0 	0
0.0008008008 	4.0255593e-25 	-3.4453772e-05 	0.065230365 	2.5192782e-06 	0 	0 	0 	0
0.0009009009 	8.7140326e-25 	-3.4442231e-05 	0.073348736 	3.1874842e-06 	0 	0 	0 	0
0.001001001 	1.7038521e-24 	-3.4430703e-05 	0.081458743 	3.9341834e-06 	0 	0 	0 	0
0.0011011011 	2.9883295e-24 	-3.441918e-05 	0.08956058 	4.754238e-06 	0 	0 	0 	0
0.0012012012 	5.1236754e-24 	-3.4407763e-05 	0.097647106 	5.6492733e-06 	0 	0 	0 	0
0.0013013013 	8.9038903e-24 	-3.4396387e-05 	0.10571906 	6.6386173e-06 	0 	0 	0 	0
0.0014014014 	1.3121667e-23 	-3.4384897e-05 	0.11378965 	7.690237e-06 	0 	0 	0 	0
0.0015015015 	2.0931747e-23 	-3.4373683e-05 	0.12183087 	8.8217769e-06 	0 	0 	0 	0
0.0016016016 	2.9387991e-23 	-3.4362219e-05 	0.12987376 	1.0042866e-05 	0 	0 	0 	0
0.0017017017 	4.291599e-23 	-3.4351065e-05 	0.13788736 	1.1319902e-05 	0 	0 	0 	0
0.0018018018 	5.665733e-23 	-3.4339611e-05 	0.14590182 	1.269916e-05 	0 	0 	0 	0
0.0019019019 	7.927763e-23 	-3.4328521e-05 	0.15388071 	1.4140429e-05 	0 	0 	0 	0
0.002002002 	9.713166e-23 	-3.4317052e-05 	0.16187075 	1.5650574e-05 	0 	0 	0 	0
0.0021021021 	1.335391e-22 	-3.4306031e-05 	0.16980601 	1.7277291e-05 	0 	0 	0 	0
0.0022022022 	1.6538333e-22 	-3.4294837e-05 	0.17774893 	1.8922184e-05 	0 	0 	0 	0
0.0023023023 	2.0576887e-22 	-3.4283561e-05 	0.18566481 	2.07044e-05 	0 	0 	0 	0
0.0024024024 	2.6210142e-22 	-3.4272611e-05 	0.19354519 	2.2540611e-05 	0 	0 	0 	0
0.0025025025 	3.0676147e-22 	-3.4261336e-05 	0.20143897 	2.4413355e-05 	0 	0 	0 	0
0.0026026026 	3.7312164e-22 	-3.4250188e-05 	0.20928227 	2.6439737e-05 	0 	0 	0 	0
0.0027027027 	4.5703431e-22 	-3.4239309e-05 	0.21709372 	2.8512716e-05 	0 	0 	0 	0
0.0028028028 	5.3233634e-22 	-3.4228239e-05 	0.2249124 	3.0608397e-05 	0 	0 	0 	0
0.0029029029 	6.0794952e-22 	-3.4216871e-05 	0.23270866 	3.2849853e-05 	-1.1223651e-37 	0 	0 	0
0.003003003 	7.2895834e-22 	-3.4206056e-05 	0.24043367 	3.519053e-05 	-3.9207714e-37 	0 	0 	0
0.0031031031 	8.4996716e-22 	-3.4195241e-05 	0.24815869 	3.7531207e-05 	-6.7191776e-37 	0 	0 	0
0.0032032032 	9.4103254e-22 	-3.4183839e-05 	0.25590386 	3.9944604e-05 	-7.7875379e-37 	0 	0 	0
0.0033033033 	1.0814763e-21 	-3.4172764e-05 	0.2635644 	4.2530666e-05 	-7.7824486e-37 	0 	0 	0
0.0034034034 	1.2523818e-21 	-3.4161997e-05 	0.27118138 	4.5174068e-05 	-7.7750752e-37 	0 	0 	0
0.0035035035 	1.4232874e-21 	-3.415123e-05 	0.27879835 	4.781747e-05 	-7.7677017e-37 	0 	0 	0
0.0036036036 	1.5652716e-21 	-3.413988e-05 	0.28643318 	5.0534893e-05 	-7.7643563e-37 	0 	0 	0
0.0037037037 	1.7445079e-21 	-3.4128586e-05 	0.29399961 	5.3416716e-05 	-5.7939076e-37 	0 	0 	0
0.0038038038 	1.9855426e-21 	-3.4117837e-05 	0.30148209 	5.6402343e-05 	-1.836096e-37 	0 	0 	0
0.0039039039 	2.2265773e-21 	-3.4107087e-05 	0.30896458 	5.9387971e-05 	2.1217155e-37 	0 	0 	0
0.004004004 	2.467612e-21 	-3.4096338e-05 	0.31644706 	6.2373598e-05 	6.0795271e-37 	0 	0 	0
0.0041041041 	2.6676197e-21 	-3.4084433e-05 	0.32396052 	6.5506649e-05 	6.293221e-37 	0 	0 	0
0.0042042042 	2.9804764e-21 	-3.4073365e-05 	0.33132402 	6.8823682e-05 	6.2888215e-37 	0 	0 	0
0.0043043043 	3.3294008e-21 	-3.4062579e-05 	0.33864003 	7.2195688e-05 	6.2830445e-37 	0 	0 	0
0.0044044044 	3.6783252e-21 	-3.4051793e-05 	0.34595604 	7.5567694e-05 	6.2772675e-37 	0 	0 	0
0.0045045045 	4.0272496e-21 	-3.4041007e-05 	0.35327204 	7.89397e-05 	6.2714905e-37 	0 	0 	0
0.0046046046 	4.3742777e-21 	-3.4029156e-05 	0.36061253 	8.2445569e-05 	6.2700395e-37 	0 	0 	0
0.0047047047 	4.7980711e-21 	-3.4017481e-05 	0.36786376 	8.6101536e-05 	4.1865939e-37 	0 	0 	0
0.0048048048 	5.332931e-21 	-3.4006569e-05 	0.37497512 	8.9908457e-05 	-8.8648095e-38 	0 	0 	0
0.0049049049 	5.8677908e-21 	-3.3995657e-05 	0.38208648 	9.3715378e-05 	-5.9595557e-37 	0 	0 	0
0.005005005 	6.4026507e-21 	-3.3984744e-05 	0.38919784 	9.7522299e-05 	-1.1032631e-36 	0 	0 	0
0.0051051051 	6.9375106e-21 	-3.3973832e-05 	0.39630919 	0.00010132922 	-1.6105705e-36 	0 	0 	0
0.0052052052 	7.5636616e-21 	-3.3961444e-05 	0.40344907 	0.00010531533 	-1.9965386e-36 	0 	0 	0
0.0053053053 	8.2942103e-21 	-3.3949367e-05 	0.41048988 	0.00010942974 	-2.155545e-36 	0 	0 	0
0.0054054054 	9.183802e-21 	-3.3938188e-05 	0.41735184 	0.00011372332 	-1.9500692e-36 	0 	0 	0
0.0055055055 	1.0073394e-20 	-3.3927008e-05 	0.42421379 	0.0001180169 	-1.7445933e-36 	0 	0 	0
0.0056056056 	1.0962985e-20 	-3.3915828e-05 	0.43107575 	0.00012231048 	-1.5391174e-36 	0 	0 	0
0.0057057057 	1.1852577e-20 	-3.3904648e-05 	0.43793771 	0.00012660406 	-1.3336415e-36 	0 	0 	0
0.0058058058 	1.2827068e-20 	-3.3892975e-05 	0.44480748 	0.00013095425 	-1.1072881e-36 	0 	0 	0
0.0059059059 	1.4064689e-20 	-3.3879776e-05 	0.45170146 	0.00013547988 	-8.1622941e-37 	0 	0 	0
0.006006006 	1.5505579e-20 	-3.38674e-05 	0.45841703 	0.00014016991 	-4.9008473e-37 	0 	0 	0
0.0061061061 	1.7122423e-20 	-3.3855737e-05 	0.46497816 	0.00014500226 	-1.3356912e-37 	0 	0 	0
0.0062062062 	1.8739267e-20 	-3.3844074e-05 	0.4715393 	0.00014983462 	2.2294648e-37 	0 	0 	0
0.0063063063 	2.035611e-20 	-3.3832411e-05 	0.47810043 	0.00015466697 	5.7946209e-37 	0 	0 	0
0.0064064064 	2.1972954e-20 	-3.3820748e-05 	0.48466156 	0.00015949932 	9.359777e-37 	0 	0 	0
0.0065065065 	2.3589797e-20 	-3.3809084e-05 	0.4912227 	0.00016433168 	1.2924933e-36 	0 	0 	0
0.0066066066 	2.5868258e-20 	-3.379558e-05 	0.49780714 	0.00016936012 	1.5984604e-36 	0 	0 	0
0.0067067067 	2.8367396e-20 	-3.3781461e-05 	0.50439936 	0.00017445396 	1.8875674e-36 	0 	0 	0
0.0068068068 	3.1425016e-20 	-3.37687e-05 	0.51067197 	0.00017981363 	1.8074408e-36 	0 	0 	0
0.0069069069 	3.4604942e-20 	-3.3756236e-05 	0.5168746 	0.00018523151 	1.6464526e-36 	0 	0 	0
0.007007007 	3.7784868e-20 	-3.3743772e-05 	0.52307722 	0.00019064939 	1.4854643e-36 	0 	0 	0
0.0071071071 	4.0964794e-20 	-3.3731308e-05 	0.52927985 	0.00019606728 	1.3244761e-36 	0 	0 	0
0.0072072072 	4.414472e-20 	-3.3718844e-05 	0.53548247 	0.00020148516 	1.1634879e-36 	0 	0 	0
0.0073073073 	4.7324646e-20 	-3.3706381e-05 	0.5416851 	0.00020690305 	1.0024997e-36 	0 	0 	0
0.0074074074 	5.1081936e-20 	-3.3693062e-05 	0.54789606 	0.0002124035 	8.2250557e-37 	0 	0 	0
0.0075075075 	5.629882e-20 	-3.3677585e-05 	0.5541281 	0.0002181127 	5.9446411e-37 	0 	0 	0
0.0076076076 	6.1664283e-20 	-3.366229e-05 	0.56031346 	0.00022385558 	3.8456656e-37 	0 	0 	0
0.0077077077 	6.8316091e-20 	-3.3648579e-05 	0.56609461 	0.00022989 	3.3175264e-37 	0 	0 	0
0.0078078078 	7.4967899e-20 	-3.3634867e-05 	0.57187577 	0.00023592441 	2.7893873e-37 	0 	0 	0
0.0079079079 	8.1619707e-20 	-3.3621155e-05 	0.57765692 	0.00024195883 	2.2612481e-37 	0 	0 	0
0.008008008 	8.8271515e-20 	-3.3607443e-05 	0.58343807 	0.00024799325 	1.7331089e-37 	0 	0 	0
0.0081081081 	9.4923323e-20 	-3.3593732e-05 	0.58921923 	0.00025402767 	1.2049698e-37 	0 	0 	0
0.0082082082 	1.0157513e-19 	-3.358002e-05 	0.59500038 	0.00026006209 	6.7683064e-38 	0 	0 	0
0.0083083083 	1.0822694e-19 	-3.3566308e-05 	0.60078153 	0.0002660965 	1.4869149e-38 	0 	0 	0
0.0084084084 	1.1814574e-19 	-3.3549924e-05 	0.60658185 	0.00027236031 	0 	0 	0 	0
0.0085085085 	1.2934475e-19 	-3.3532494e-05 	0.61238969 	0.00027871401 	0 	0 	0 	0
0.0086086086 	1.4141224e-19 	-3.351554e-05 	0.6180659 	0.00028514322 	0 	0 	0 	0
0.0087087087 	1.5600749e-19 	-3.3499975e-05 	0.62335897 	0.00029179226 	0 	0 	0 	0
0.0088088088 	1.7060275e-19 	-3.348441e-05 	0.62865205 	0.00029844129 	0 	0 	0 	0
0.0089089089 	1.8519801e-19 	-3.3468845e-05 	0.63394512 	0.00030509032 	0 	0 	0 	0
0.009009009 	1.9979327e-19 	-3.345328e-05 	0.6392382 	0.00031173936 	0 	0 	0 	0
0.0091091091 	2.1438853e-19 	-3.3437715e-05 	0.64453127 	0.00031838839 	0 	0 	0 	0
0.0092092092 	2.2898378e-19 	-3.342215e-05 	0.64982435 	0.00032503742 	0 	0 	0 	0
0.0093093093 	2.4357904e-19 	-3.3406585e-05 	0.65511742 	0.00033168645 	0 	0 	0 	0
0.0094094094 	2.581743e-19 	-3.339102e-05 	0.6604105 	0.00033833549 	0 	0 	0 	0
0.0095095095 	2.8196744e-19 	-3.3371262e-05 	0.66572405 	0.00034529629 	0 	0 	0 	0
0.0096096096 	3.0664373e-19 	-3.3351101e-05 	0.67103957 	0.00035228702 	0 	0 	0 	0
0.0097097097 	3.3245315e-19 	-3.3331199e-05 	0.67627984 	0.00035930529 	0 	0 	0 	0
0.0098098098 	3.6583916e-19 	-3.3313029e-05 	0.68101697 	0.0003665077 	0 	0 	0 	0
0.0099099099 	3.9922518e-19 	-3.329486e-05 	0.6857541 	0.00037371011 	0 	0 	0 	0
0.01001001 	4.326112e-19 	-3.327669e-05 	0.69049123 	0.00038091252 	0 	0 	0 	0
0.01011011 	4.6599722e-19 	-3.325852e-05 	0.69522836 	0.00038811493 	0 	0 	0 	0
0.01021021 	4.9938324e-19 	-3.3240351e-05 	0.69996549 	0.00039531734 	0 	0 	0 	0
0.01031031 	5.3276926e-19 	-3.3222181e-05 	0.70470262 	0.00040251975 	0 	0 	0 	0
0.01041041 	5.6615527e-19 	-3.3204011e-05 	0.70943975 	0.00040972216 	0 	0 	0 	0
0.010510511 	5.9954129e-19 	-3.3185842e-05 	0.71417688 	0.00041692456 	0 	0 	0 	0
0.010610611 	6.3292731e-19 	-3.3167672e-05 	0.71891401 	0.00042412697 	0 	0 	0 	0
0.010710711 	6.8229572e-19 	-3.3145517e-05 	0.72366259 	0.00043157802 	0 	0 	0 	0
0.010810811 	7.3837734e-19 	-3.3121688e-05 	0.72841598 	0.0004391335 	0 	0 	0 	0
0.010910911 	7.9445895e-19 	-3.309786e-05 	0.73316937 	0.00044668897 	0 	0 	0 	0
0.011011011 	8.6387748e-19 	-3.307525e-05 	0.73756504 	0.00045427005 	0 	0 	0 	0
0.011111111 	9.4373684e-19 	-3.3053596e-05 	0.74168066 	0.00046187116 	0 	0 	0 	0
0.011211211 	1.0235962e-18 	-3.3031942e-05 	0.74579628 	0.00046947227 	0 	0 	0 	0
0.011311311 	1.1034556e-18 	-3.3010287e-05 	0.74991191 	0.00047707338 	0 	0 	0 	0
0.011411411 	1.1833149e-18 	-3.2988633e-05 	0.75402753 	0.00048467449 	0 	0 	0 	0
0.011511512 	1.2631743e-18 	-3.2966978e-05 	0.75814315 	0.0004922756 	0 	0 	0 	0
0.011611612 	1.3430336e-18 	-3.2945324e-05 	0.76225878 	0.00049987671 	0 	0 	0 	0
0.011711712 	1.422893e-18 	-3.2923669e-05 	0.7663744 	0.00050747783 	0 	0 	0 	0
0.011811812 	1.5027524e-18 	-3.2902015e-05 	0.77049003 	0.00051507894 	0 	0 	0 	0
0.011911912 	1.5826117e-18 	-3.288036e-05 	0.77460565 	0.00052268005 	0 	0 	0 	0
0.012012012 	1.6624711e-18 	-3.2858706e-05 	0.77872127 	0.00053028116 	0 	0 	0 	0
0.012112112 	1.7905119e-18 	-3.2830754e-05 	0.78284408 	0.00053819785 	0 	0 	0 	0
0.012212212 	1.9232036e-18 	-3.2802195e-05 	0.78696758 	0.000546145 	0 	0 	0 	0
0.012312312 	2.0558953e-18 	-3.2773635e-05 	0.79109108 	0.00055409215 	0 	0 	0 	0
0.012412412 	2.2137616e-18 	-3.2746016e-05 	0.79496684 	0.00056195541 	0 	0 	0 	0
0.012512513 	2.4162263e-18 	-3.2720064e-05 	0.79840369 	0.00056967004 	0 	0 	0 	0
0.012612613 	2.618691e-18 	-3.2694112e-05 	0.80184054 	0.00057738467 	0 	0 	0 	0
0.012712713 	2.8211556e-18 	-3.2668159e-05 	0.80527739 	0.00058509931 	0 	0 	0 	0
0.012812813 	3.0236203e-18 	-3.2642207e-05 	0.80871424 	0.00059281394 	0 	0 	0 	0
0.012912913 	3.2260849e-18 	-3.2616255e-05 	0.81215109 	0.00060052857 	0 	0 	0 	0
0.013013013 	3.4285496e-18 	-3.2590303e-05 	0.81558794 	0.0006082432 	0 	0 	0 	0
0.013113113 	3.6310143e-18 	-3.256435e-05 	0.81902479 	0.00061595784 	0 	0 	0 	0
0.013213213 	3.8334789e-18 	-3.2538398e-05 	0.82246164 	0.00062367247 	0 	0 	0 	0
0.013313313 	4.0359436e-18 	-3.2512446e-05 	0.82589849 	0.0006313871 	0 	0 	0 	0
0.013413413 	4.2384082e-18 	-3.2486494e-05 	0.82933534 	0.00063910173 	0 	0 	0 	0
0.013513514 	4.4408729e-18 	-3.2460542e-05 	0.83277219 	0.00064681637 	0 	0 	0 	0
0.013613614 	4.6865428e-18 	-3.243185e-05 	0.83620824 	0.00065463426 	0 	0 	0 	0
0.013713714 	5.0198737e-18 	-3.2397601e-05 	0.83964267 	0.00066266165 	0 	0 	0 	0
0.013813814 	5.3532046e-18 	-3.2363352e-05 	0.8430771 	0.00067068905 	0 	0 	0 	0
0.013913914 	5.6865355e-18 	-3.2329103e-05 	0.84651152 	0.00067871644 	0 	0 	0 	0
0.014014014 	6.0910726e-18 	-3.2295923e-05 	0.84971851 	0.00068654368 	0 	0 	0 	0
0.014114114 	6.6481727e-18 	-3.2265034e-05 	0.85243818 	0.00069394206 	0 	0 	0 	0
0.014214214 	7.2052729e-18 	-3.2234144e-05 	0.85515786 	0.00070134044 	0 	0 	0 	0
0.014314314 	7.762373e-18 	-3.2203254e-05 	0.85787753 	0.00070873881 	0 	0 	0 	0
0.014414414 	8.3194732e-18 	-3.2172365e-05 	0.86059721 	0.00071613719 	0 	0 	0 	0
0.014514515 	8.8765733e-18 	-3.2141475e-05 	0.86331689 	0.00072353557 	0 	0 	0 	0
0.014614615 	9.4336734e-18 	-3.2110586e-05 	0.86603656 	0.00073093395 	0 	0 	0 	0
0.014714715 	9.9907736e-18 	-3.2079696e-05 	0.86875624 	0.00073833233 	0 	0 	0 	0
0.014814815 	1.0547874e-17 	-3.2048806e-05 	0.87147591 	0.0007457307 	0 	0 	0 	0
0.014914915 	1.1104974e-17 	-3.2017917e-05 	0.87419559 	0.00075312908 	0 	0 	0 	0
0.015015015 	1.1662074e-17 	-3.1987027e-05 	0.87691526 	0.00076052746 	0 	0 	0 	0
0.015115115 	1.2219174e-17 	-3.1956138e-05 	0.87963494 	0.00076792584 	0 	0 	0 	0
0.015215215 	1.2776274e-17 	-3.1925248e-05 	0.88235461 	0.00077532422 	0 	0 	0 	0
0.015315315 	1.3333374e-17 	-3.1894358e-05 	0.88507429 	0.00078272259 	0 	0 	0 	0
0.015415415 	1.4148961e-17 	-3.1856385e-05 	0.88778422 	0.00079030155 	0 	0 	0 	0
0.015515516 	1.5061841e-17 	-3.1815746e-05 	0.89049049 	0.00079794848 	0 	0 	0 	0
0.015615616 	1.597472e-17 	-3.1775106e-05 	0.89319675 	0.00080559541 	0 	0 	0 	0
0.015715716 	1.68876e-17 	-3.1734466e-05 	0.89590301 	0.00081324233 	0 	0 	0 	0
0.015815816 	1.7958864e-17 	-3.1694766e-05 	0.89847216 	0.00082067544 	0 	0 	0 	0
0.015915916 	1.9687997e-17 	-3.1658966e-05 	0.90047175 	0.00082722044 	0 	0 	0 	0
0.016016016 	2.1417129e-17 	-3.1623167e-05 	0.90247135 	0.00083376544 	0 	0 	0 	0
0.016116116 	2.3146261e-17 	-3.1587367e-05 	0.90447094 	0.00084031044 	0 	0 	0 	0
0.016216216 	2.4875393e-17 	-3.1551567e-05 	0.90647054 	0.00084685544 	0 	0 	0 	0
0.016316316 	2.6604525e-17 	-3.1515767e-05 	0.90847013 	0.00085340043 	0 	0 	0 	0
0.016416416 	2.8333657e-17 	-3.1479968e-05 	0.91046973 	0.00085994543 	0 	0 	0 	0
0.016516517 	3.0062789e-17 	-3.1444168e-05 	0.91246932 	0.00086649043 	0 	0 	0 	0
0.016616617 	3.1791921e-17 	-3.1408368e-05 	0.91446892 	0.00087303543 	0 	0 	0 	0
0.016716717 	3.3521053e-17 	-3.1372569e-05 	0.91646851 	0.00087958043 	0 	0 	0 	0
0.016816817 	3.5250185e-17 	-3.1336769e-05 	0.91846811 	0.00088612543 	0 	0 	0 	0
0.016916917 	3.6979317e-17 	-3.1300969e-05 	0.9204677 	0.00089267042 	0 	0 	0 	0
0.017017017 	3.8708449e-17 	-3.126517e-05 	0.9224673 	0.00089921542 	0 	0 	0 	0
0.017117117 	4.0437581e-17 	-3.122937e-05 	0.92446689 	0.00090576042 	0 	0 	0 	0
0.017217217 	4.2166713e-17 	-3.119357e-05 	0.92646649 	0.00091230542 	0 	0 	0 	0
0.017317317 	4.3895845e-17 	-3.1157771e-05 	0.92846608 	0.00091885042 	0 	0 	0 	0
0.017417417 	4.6558586e-17 	-3.1112627e-05 	0.93044666 	0.00092552798 	0 	0 	0 	0
0.017517518 	4.9400748e-17 	-3.1065687e-05 	0.93242358 	0.00093223102 	0 	0 	0 	0
0.017617618 	5.2242909e-17 	-3.1018747e-05 	0.9344005 	0.00093893405 	0 	0 	0 	0
0.017717718 	5.508507e-17 	-3.0971808e-05 	0.93637742 	0.00094563709 	0 	0 	0 	0
0.017817818 	5.7927231e-17 	-3.0924868e-05 	0.93835434 	0.00095234013 	0 	0 	0 	0
0.017917918 	6.3331668e-17 	-3.0882782e-05 	0.93986752 	0.00095795474 	0 	0 	0 	0
0.018018018 	6.9741478e-17 	-3.08426e-05 	0.94119873 	0.00096314228 	0 	0 	0 	0
0.018118118 	7.6151288e-17 	-3.0802418e-05 	0.94252994 	0.00096832981 	0 	0 	0 	0
0.018218218 	8.2561098e-17 	-3.0762236e-05 	0.94386115 	0.00097351735 	0 	0 	0 	0
0.018318318 	8.8970908e-17 	-3.0722053e-05 	0.94519236 	0.00097870488 	0 	0 	0 	0
0.018418418 	9.5380718e-17 	-3.0681871e-05 	0.94652357 	0.00098389242 	0 	0 	0 	0
0.018518519 	1.0179053e-16 	-3.0641689e-05 	0.94785478 	0.00098907996 	0 	0 	0 	0
0.018618619 	1.0820034e-16 	-3.0601507e-05 	0.94918599 	0.00099426749 	0 	0 	0 	0
0.018718719 	1.1461015e-16 	-3.0561325e-05 	0.9505172 	0.00099945503 	0 	0 	0 	0
0.018818819 	1.2101996e-16 	-3.0521143e-05 	0.95184841 	0.0010046426 	0 	0 	0 	0
0.018918919 	1.2742977e-16 	-3.0480961e-05 	0.95317962 	0.0010098301 	0 	0 	0 	0
0.019019019 	1.3383958e-16 	-3.0440779e-05 	0.95451083 	0.0010150176 	0 	0 	0 	0
0.019119119 	1.4024939e-16 	-3.0400597e-05 	0.95584204 	0.0010202052 	0 	0 	0 	0
0.019219219 	1.466592e-16 	-3.0360415e-05 	0.95717326 	0.0010253927 	0 	0 	0 	0
0.019319319 	1.5306901e-16 	-3.0320233e-05 	0.95850447 	0.0010305802 	0 	0 	0 	0
0.019419419 	1.5947882e-16 	-3.0280051e-05 	0.95983568 	0.0010357678 	0 	0 	0 	0
0.01951952 	1.6588863e-16 	-3.0239869e-05 	0.96116689 	0.0010409553 	0 	0 	0 	0
0.01961962 	1.7386454e-16 	-3.0195118e-05 	0.96248799 	0.0010461652 	0 	0 	0 	0
0.01971972 	1.8450058e-16 	-3.0142606e-05 	0.96379193 	0.0010514129 	0 	0 	0 	0
0.01981982 	1.9513662e-16 	-3.0090095e-05 	0.96509587 	0.0010566607 	0 	0 	0 	0
0.01991992 	2.0577267e-16 	-3.0037583e-05 	0.9663998 	0.0010619084 	0 	0 	0 	0
0.02002002 	2.1640871e-16 	-2.9985072e-05 	0.96770374 	0.0010671562 	0 	0 	0 	0
0.02012012 	2.2704475e-16 	-2.993256e-05 	0.96900768 	0.0010724039 	0 	0 	0 	0
0.02022022 	2.4905397e-16 	-2.9885552e-05 	0.97000358 	0.0010766617 	0 	0 	0 	0
0.02032032 	2.7911306e-16 	-2.9842438e-05 	0.97078145 	0.0010802187 	0 	0 	0 	0
0.02042042 	3.0917216e-16 	-2.9799324e-05 	0.97155932 	0.0010837758 	0 	0 	0 	0
0.020520521 	3.3923125e-16 	-2.975621e-05 	0.97233719 	0.0010873328 	0 	0 	0 	0
0.020620621 	3.6929035e-16 	-2.9713097e-05 	0.97311506 	0.0010908899 	0 	0 	0 	0
0.020720721 	3.9934944e-16 	-2.9669983e-05 	0.97389293 	0.0010944469 	0 	0 	0 	0
0.020820821 	4.2940854e-16 	-2.9626869e-05 	0.9746708 	0.001098004 	0 	0 	0 	0
0.020920921 	4.5946763e-16 	-2.9583755e-05 	0.97544867 	0.001101561 	0 	0 	0 	0
0.021021021 	4.8952673e-16 	-2.9540641e-05 	0.97622655 	0.0011051181 	0 	0 	0 	0
0.021121121 	5.1958582e-16 	-2.9497528e-05 	0.97700442 	0.0011086751 	0 	0 	0 	0
0.021221221 	5.4964491e-16 	-2.9454414e-05 	0.97778229 	0.0011122322 	0 	0 	0 	0
0.021321321 	5.7970401e-16 	-2.94113e-05 	0.97856016 	0.0011157892 	0 	0 	0 	0
0.021421421 	6.097631e-16 	-2.9368186e-05 	0.97933803 	0.0011193463 	0 	0 	0 	0
0.021521522 	6.398222e-16 	-2.9325072e-05 	0.9801159 	0.0011229033 	0 	0 	0 	0
0.021621622 	6.6988129e-16 	-2.9281959e-05 	0.98089377 	0.0011264604 	0 	0 	0 	0
0.021721722 	6.9994039e-16 	-2.9238845e-05 	0.98167164 	0.0011300175 	0 	0 	0 	0
0.021821822 	7.2999948e-16 	-2.9195731e-05 	0.98244951 	0.0011335745 	0 	0 	0 	0
0.021921922 	7.6005857e-16 	-2.9152617e-05 	0.98322738 	0.0011371316 	0 	0 	0 	0
0.022022022 	7.9011767e-16 	-2.9109503e-05 	0.98400525 	0.0011406886 	0 	0 	0 	0
0.022122122 	8.2017676e-16 	-2.906639e-05 	0.98478313 	0.0011442457 	0 	0 	0 	0
0.022222222 	8.7145145e-16 	-2.9010218e-05 	0.9855358 	0.001147787 	0 	0 	0 	0
0.022322322 	9.2300535e-16 	-2.8953874e-05 	0.98628814 	0.0011513281 	0 	0 	0 	0
0.022422422 	9.7455924e-16 	-2.889753e-05 	0.98704048 	0.0011548692 	0 	0 	0 	0
0.022522523 	1.0261131e-15 	-2.8841186e-05 	0.98779283 	0.0011584103 	0 	0 	0 	0
0.022622623 	1.077667e-15 	-2.8784842e-05 	0.98854517 	0.0011619514 	0 	0 	0 	0
0.022722723 	1.1292209e-15 	-2.8728498e-05 	0.98929751 	0.0011654925 	0 	0 	0 	0
0.022822823 	1.2466017e-15 	-2.8677347e-05 	0.9898842 	0.0011683594 	0 	0 	0 	0
0.022922923 	1.4439939e-15 	-2.8632507e-05 	0.99026954 	0.0011704069 	0 	0 	0 	0
0.023023023 	1.6413861e-15 	-2.8587668e-05 	0.99065489 	0.0011724544 	0 	0 	0 	0
0.023123123 	1.8387782e-15 	-2.8542828e-05 	0.99104023 	0.0011745019 	0 	0 	0 	0
0.023223223 	2.0361704e-15 	-2.8497988e-05 	0.99142557 	0.0011765494 	0 	0 	0 	0
0.023323323 	2.2335626e-15 	-2.8453148e-05 	0.99181092 	0.0011785969 	0 	0 	0 	0
0.023423423 	2.4309547e-15 	-2.8408309e-05 	0.99219626 	0.0011806444 	0 	0 	0 	0
0.023523524 	2.6283469e-15 	-2.8363469e-05 	0.99258161 	0.0011826919 	0 	0 	0 	0
0.023623624 	2.8257391e-15 	-2.8318629e-05 	0.99296695 	0.0011847394 	0 	0 	0 	0
0.023723724 	3.0231312e-15 	-2.8273789e-05 	0.99335229 	0.0011867869 	0 	0 	0 	0
0.023823824 	3.2205234e-15 	-2.822895e-05 	0.99373764 	0.0011888344 	0 	0 	0 	0
0.023923924 	3.4179156e-15 	-2.818411e-05 	0.99412298 	0.0011908819 	0 	0 	0 	0
0.024024024 	3.6153077e-15 	-2.813927e-05 	0.99450833 	0.0011929293 	0 	0 	0 	0
0.024124124 	3.8126999e-15 	-2.809443e-05 	0.99489367 	0.0011949768 	0 	0 	0 	0
0.024224224 	4.0100921e-15 	-2.8049591e-05 	0.99527901 	0.0011970243 	0 	0 	0 	0
0.024324324 	4.2074842e-15 	-2.8004751e-05 	0.99566436 	0.0011990718 	0 	0 	0 	0
0.024424424 	4.4048764e-15 	-2.7959911e-05 	0.9960497 	0.0012011193 	0 	0 	0 	0
0.024524525 	4.6022686e-15 	-2.7915071e-05 	0.99643505 	0.0012031668 	0 	0 	0 	0
0.024624625 	4.7996607e-15 	-2.7870232e-05 	0.99682039 	0.0012052143 	0 	0 	0 	0
0.024724725 	4.9970529e-15 	-2.7825392e-05 	0.99720573 	0.0012072618 	0 	0 	0 	0
0.024824825 	5.1944451e-15 	-2.7780552e-05 	0.99759108 	0.0012093093 	0 	0 	0 	0
0.024924925 	5.3918372e-15 	-2.7735712e-05 	0.99797642 	0.0012113568 	0 	0 	0 	0
0.025025025 	5.6377909e-15 	-2.7686586e-05 	0.99835596 	0.0012133888 	0 	0 	0 	0
0.025125125 	5.9919058e-15 	-2.7627914e-05 	0.99872256 	0.0012153863 	0 	0 	0 	0
0.025225225 	6.3460206e-15 	-2.7569242e-05 	0.99908916 	0.0012173837 	0 	0 	0 	0
0.025325325 	6.7001355e-15 	-2.751057e-05 	0.99945576 	0.0012193812 	0 	0 	0 	0
0.025425425 	7.0542503e-15 	-2.7451897e-05 	0.99982236 	0.0012213786 	0 	0 	0 	0
0.025525526 	7.4083652e-15 	-2.7393225e-05 	1.000189 	0.0012233761 	0 	0 	0 	0
0.025625626 	7.76248e-15 	-2.7334553e-05 	1.0005556 	0.0012253736 	0 	0 	0 	0
0.025725726 	8.1165949e-15 	-2.7275881e-05 	1.0009222 	0.001227371 	0 	0 	0 	0
0.025825826 	9.9527892e-15 	-2.7229897e-05 	1.0010938 	0.0012284163 	0 	0 	0 	0
0.025925926 	1.1907085e-14 	-2.7184924e-05 	1.0012498 	0.0012293858 	0 	0 	0 	0
0.026026026 	1.3861381e-14 	-2.7139951e-05 	1.0014059 	0.0012303552 	0 	0 	0 	0
0.026126126 	1.5815677e-14 	-2.7094977e-05 	1.0015619 	0.0012313246 	0 	0 	0 	0
0.026226226 	1.7769973e-14 	-2.7050004e-05 	1.001718 	0.001232294 	0 	0 	0 	0
0.026326326 	1.9724269e-14 	-2.7005031e-05 	1.001874 	0.0012332635 	0 	0 	0 	0
0.026426426 	2.1678565e-14 	-2.6960058e-05 	1.0020301 	0.0012342329 	0 	0 	0 	0
0.026526527 	2.3632861e-14 	-2.6915085e-05 	1.0021861 	0.0012352023 	0 	0 	0 	0
0.026626627 	2.5587157e-14 	-2.6870112e-05 	1.0023422 	0.0012361718 	0 	0 	0 	0
0.026726727 	2.7541453e-14 	-2.6825139e-05 	1.0024982 	0.0012371412 	0 	0 	0 	0
0.026826827 	2.9495749e-14 	-2.6780166e-05 	1.0026543 	0.0012381106 	0 	0 	0 	0
0.026926927 	3.1450045e-14 	-2.6735193e-05 	1.0028104 	0.00123908 	0 	0 	0 	0
0.027027027 	3.3404341e-14 	-2.669022e-05 	1.0029664 	0.0012400495 	0 	0 	0 	0
0.027127127 	3.5358637e-14 	-2.6645247e-05 	1.0031225 	0.0012410189 	0 	0 	0 	0
0.027227227 	3.7312932e-14 	-2.6600274e-05 	1.0032785 	0.0012419883 	0 	0 	0 	0
0.027327327 	3.9267228e-14 	-2.6555301e-05 	1.0034346 	0.0012429577 	0 	0 	0 	0
0.027427427 	4.1221524e-14 	-2.6510328e-05 	1.0035906 	0.0012439272 	0 	0 	0 	0
0.027527528 	4.317582e-14 	-2.6465355e-05 	1.0037467 	0.0012448966 	0 	0 	0 	0
0.027627628 	4.5130116e-14 	-2.6420382e-05 	1.0039027 	0.001245866 	0 	0 	0 	0
0.027727728 	4.7084412e-14 	-2.6375409e-05 	1.0040588 	0.0012468355 	0 	0 	0 	0
0.027827828 	4.9038708e-14 	-2.6330436e-05 	1.0042148 	0.0012478049 	0 	0 	0 	0
0.027927928 	5.0993004e-14 	-2.6285463e-05 	1.0043709 	0.0012487743 	0 	0 	0 	0
0.028028028 	5.29473e-14 	-2.624049e-05 	1.0045269 	0.0012497437 	0 	0 	0 	0
0.028128128 	5.4901596e-14 	-2.6195517e-05 	1.004683 	0.0012507132 	0 	0 	0 	0
0.028228228 	5.6855892e-14 	-2.6150543e-05 	1.0048391 	0.0012516826 	0 	0 	0 	0
0.028328328 	6.0474218e-14 	-2.6092617e-05 	1.0049854 	0.0012526093 	0 	0 	0 	0
0.028428428 	6.4253608e-14 	-2.6033436e-05 	1.0051308 	0.0012535319 	0 	0 	0 	0
0.028528529 	6.8032998e-14 	-2.5974256e-05 	1.0052762 	0.0012544545 	0 	0 	0 	0
0.028628629 	7.1812389e-14 	-2.5915075e-05 	1.0054216 	0.0012553771 	0 	0 	0 	0
0.028728729 	7.5591779e-14 	-2.5855895e-05 	1.005567 	0.0012562997 	0 	0 	0 	0
0.028828829 	7.9371169e-14 	-2.5796714e-05 	1.0057124 	0.0012572223 	0 	0 	0 	0
0.028928929 	8.3150559e-14 	-2.5737534e-05 	1.0058578 	0.0012581449 	0 	0 	0 	0
0.029029029 	8.6929949e-14 	-2.5678353e-05 	1.0060032 	0.0012590674 	0 	0 	0 	0
0.029129129 	1.1000168e-13 	-2.5627414e-05 	1.0060941 	0.0012596932 	-6.3926185e-38 	0 	0 	0
0.029229229 	1.4762522e-13 	-2.5582691e-05 	1.0061438 	0.001260095 	-1.7607053e-37 	0 	0 	0
0.029329329 	1.8524875e-13 	-2.5537968e-05 	1.0061935 	0.0012604968 	-2.8821487e-37 	0 	0 	0
0.029429429 	2.2287228e-13 	-2.5493245e-05 	1.0062433 	0.0012608987 	-4.0035921e-37 	0 	0 	0
0.02952953 	2.6049582e-13 	-2.5448522e-05 	1.006293 	0.0012613005 	-5.1250356e-37 	0 	0 	0
0.02962963 	2.9811935e-13 	-2.5403799e-05 	1.0063428 	0.0012617023 	-6.246479e-37 	0 	0 	0
0.02972973 	3.3574289e-13 	-2.5359076e-05 	1.0063925 	0.0012621042 	-7.3679224e-37 	0 	0 	0
0.02982983 	3.7336642e-13 	-2.5314353e-05 	1.0064422 	0.001262506 	-8.4893659e-37 	0 	0 	0
0.02992993 	4.1098996e-13 	-2.526963e-05 	1.006492 	0.0012629078 	-9.6108093e-37 	0 	0 	0
0.03003003 	4.4861349e-13 	-2.5224907e-05 	1.0065417 	0.0012633097 	-1.0732253e-36 	0 	0 	0
0.03013013 	4.8623703e-13 	-2.5180184e-05 	1.0065914 	0.0012637115 	-1.1853696e-36 	0 	0 	0
0.03023023 	5.2386056e-13 	-2.5135461e-05 	1.0066412 	0.0012641133 	-1.297514e-36 	0 	0 	0
0.03033033 	5.6148409e-13 	-2.5090738e-05 	1.0066909 	0.0012645152 	-1.4096583e-36 	0 	0 	0
0.03043043 	5.9910763e-13 	-2.5046015e-05 	1.0067406 	0.001264917 	-1.5218026e-36 	0 	0 	0
0.030530531 	6.3673116e-13 	-2.5001292e-05 	1.0067904 	0.0012653188 	-1.633947e-36 	0 	0 	0
0.030630631 	6.743547e-13 	-2.4956569e-05 	1.0068401 	0.0012657207 	-1.7460913e-36 	0 	0 	0
0.030730731 	7.1197823e-13 	-2.4911846e-05 	1.0068898 	0.0012661225 	-1.8582357e-36 	0 	0 	0
0.030830831 	7.4960177e-13 	-2.4867123e-05 	1.0069396 	0.0012665243 	-1.97038e-36 	0 	0 	0
0.030930931 	7.872253e-13 	-2.48224e-05 	1.0069893 	0.0012669262 	-2.0825244e-36 	0 	0 	0
0.031031031 	8.2484883e-13 	-2.4777677e-05 	1.007039 	0.001267328 	-2.1946687e-36 	0 	0 	0
0.031131131 	8.6247237e-13 	-2.4732954e-05 	1.0070888 	0.0012677298 	-2.3068131e-36 	0 	0 	0
0.031231231 	9.000959e-13 	-2.4688231e-05 	1.0071385 	0.0012681317 	-2.4189574e-36 	0 	0 	0
0.031331331 	9.3771944e-13 	-2.4643508e-05 	1.0071883 	0.0012685335 	-2.5311017e-36 	0 	0 	0
0.031431431 	9.7534297e-13 	-2.4598785e-05 	1.007238 	0.0012689353 	-2.6432461e-36 	0 	0 	0
0.031531532 	1.0129665e-12 	-2.4554062e-05 	1.0072877 	0.0012693372 	-2.7553904e-36 	0 	0 	0
0.031631632 	1.05059e-12 	-2.4509339e-05 	1.0073375 	0.001269739 	-2.8675348e-36 	0 	0 	0
0.031731732 	1.0882136e-12 	-2.4464616e-05 	1.0073872 	0.0012701408 	-2.9796791e-36 	0 	0 	0
0.031831832 	1.1258371e-12 	-2.4419893e-05 	1.0074369 	0.0012705427 	-3.0918235e-36 	0 	0 	0
0.031931932 	1.1758453e-12 	-2.4370696e-05 	1.0074852 	0.0012709354 	-3.2039678e-36 	0 	0 	0
0.032032032 	1.2534342e-12 	-2.4311535e-05 	1.0075304 	0.0012713077 	-3.3161121e-36 	0 	0 	0
0.032132132 	1.3310231e-12 	-2.4252375e-05 	1.0075755 	0.00127168 	-3.4282565e-36 	0 	0 	0
0.032232232 	1.408612e-12 	-2.4193214e-05 	1.0076206 	0.0012720523 	-3.5404008e-36 	0 	0 	0
0.032332332 	1.4862009e-12 	-2.4134054e-05 	1.0076658 	0.0012724246 	-3.6525452e-36 	0 	0 	0
0.032432432 	1.5637897e-12 	-2.4074893e-05 	1.0077109 	0.0012727969 	-3.7646895e-36 	0 	0 	0
0.032532533 	1.6413786e-12 	-2.4015733e-05 	1.007756 	0.0012731692 	-3.8768339e-36 	0 	0 	0
0.032632633 	1.7189675e-12 	-2.3956572e-05 	1.0078012 	0.0012735415 	-3.9889782e-36 	0 	0 	0
0.032732733 	1.7965564e-12 	-2.3897412e-05 	1.0078463 	0.0012739139 	-4.1011225e-36 	0 	0 	0
0.032832833 	1.8741452e-12 	-2.3838251e-05 	1.0078915 	0.0012742862 	-4.2132669e-36 	0 	0 	0
0.032932933 	1.9417527e-12 	-2.3793009e-05 	1.0079071 	0.0012744829 	-4.1482289e-36 	0 	0 	0
0.033033033 	2.0080734e-12 	-2.374956e-05 	1.007919 	0.0012746569 	-4.0603496e-36 	0 	0 	0
0.033133133 	2.0743942e-12 	-2.3706112e-05 	1.0079309 	0.001274831 	-3.9724702e-36 	0 	0 	0
0.033233233 	2.1407149e-12 	-2.3662663e-05 	1.0079427 	0.0012750051 	-3.8845908e-36 	0 	0 	0
0.033333333 	2.2070356e-12 	-2.3619215e-05 	1.0079546 	0.0012751791 	-3.7967115e-36 	0 	0 	0
0.033433433 	2.2733564e-12 	-2.3575766e-05 	1.0079665 	0.0012753532 	-3.7088321e-36 	0 	0 	0
0.033533534 	2.3396771e-12 	-2.3532318e-05 	1.0079783 	0.0012755273 	-3.6209527e-36 	0 	0 	0
0.033633634 	2.4059978e-12 	-2.348887e-05 	1.0079902 	0.0012757014 	-3.5330733e-36 	0 	0 	0
0.033733734 	2.4723185e-12 	-2.3445421e-05 	1.0080021 	0.0012758754 	-3.445194e-36 	0 	0 	0
0.033833834 	2.5386393e-12 	-2.3401973e-05 	1.0080139 	0.0012760495 	-3.3573146e-36 	0 	0 	0
0.033933934 	2.60496e-12 	-2.3358524e-05 	1.0080258 	0.0012762236 	-3.2694352e-36 	0 	0 	0
0.034034034 	2.6712807e-12 	-2.3315076e-05 	1.0080377 	0.0012763976 	-3.1815559e-36 	0 	0 	0
0.034134134 	2.7376014e-12 	-2.3271627e-05 	1.0080495 	0.0012765717 	-3.0936765e-36 	0 	0 	0
0.034234234 	2.8039222e-12 	-2.3228179e-05 	1.0080614 	0.0012767458 	-3.0057971e-36 	0 	0 	0
0.034334334 	2.8702429e-12 	-2.3184731e-05 	1.0080733 	0.0012769198 	-2.9179178e-36 	0 	0 	0
0.034434434 	2.9365636e-12 	-2.3141282e-05 	1.0080852 	0.0012770939 	-2.8300384e-36 	0 	0 	0
0.034534535 	3.0028843e-12 	-2.3097834e-05 	1.008097 	0.001277268 	-2.742159e-36 	0 	0 	0
0.034634635 	3.0692051e-12 	-2.3054385e-05 	1.0081089 	0.001277442 	-2.6542796e-36 	0 	0 	0
0.034734735 	3.1355258e-12 	-2.3010937e-05 	1.0081208 	0.0012776161 	-2.5664003e-36 	0 	0 	0
0.034834835 	3.2018465e-12 	-2.2967488e-05 	1.0081326 	0.0012777902 	-2.4785209e-36 	0 	0 	0
0.034934935 	3.2681672e-12 	-2.292404e-05 	1.0081445 	0.0012779642 	-2.3906415e-36 	0 	0 	0
0.035035035 	3.334488e-12 	-2.2880592e-05 	1.0081564 	0.0012781383 	-2.3027622e-36 	0 	0 	0
0.035135135 	3.4008087e-12 	-2.2837143e-05 	1.0081682 	0.0012783124 	-2.2148828e-36 	0 	0 	0