/*--------------------------------*- C++ -*----------------------------------*\
| =========                 |                                                 |
| \\      /  F ield         | OpenFOAM: The Open Source CFD Toolbox           |
|  \\    /   O peration     | Version:  2206                                  |
|   \\  /    A nd           | Website:  www.openfoam.com                      |
|    \\/     M anipulation  |                                                 |
\*---------------------------------------------------------------------------*/
FoamFile
{
    version     2.0;
    format      ascii;
    arch        "LSB;label=32;scalar=64";
    class       volScalarField;
    location    "500";
    object      k;
}
// * * * * * * * * * * * * * * * * * * * * * * * * * * * * * * * * * * * * * //

dimensions      [0 2 -2 0 0 0 0];

internalField   nonuniform List<scalar> 
13056
(
0.00012062612
0.00011452324
0.00011394972
0.00011401701
0.00011405774
0.00011406815
0.00011407122
0.00011407321
0.00011407532
0.00011407779
0.00011408076
0.0001140844
0.00011408889
0.0001140945
0.0001141016
0.00011411075
0.00011412285
0.00011413913
0.00011416352
0.00011419387
0.00011428121
0.00011421229
0.00011561586
5.6957542e-05
3.2236752e-07
4.9484519e-08
2.5020865e-08
1.685536e-08
1.2869129e-08
1.044477e-08
8.8061833e-09
7.609734e-09
6.6964791e-09
5.9765644e-09
5.393079e-09
4.9099255e-09
4.503013e-09
4.1554619e-09
3.8550482e-09
3.5926747e-09
3.3615378e-09
3.1561194e-09
2.9725047e-09
2.8072575e-09
2.6577383e-09
2.5217725e-09
2.3975674e-09
2.2836349e-09
2.1787288e-09
2.0818015e-09
1.9919602e-09
1.9084379e-09
1.830577e-09
1.7578083e-09
1.6896375e-09
1.6256358e-09
1.5654246e-09
1.5086692e-09
1.4550749e-09
1.4043802e-09
1.3563524e-09
1.3107849e-09
1.2674948e-09
1.2263176e-09
1.1871029e-09
1.1497164e-09
1.1140381e-09
1.0799609e-09
1.047388e-09
1.0162329e-09
9.8642047e-10
9.5788471e-10
9.3056807e-10
9.0442094e-10
8.7940082e-10
8.5547252e-10
8.3260823e-10
8.1079176e-10
7.900256e-10
7.7032197e-10
7.5170155e-10
7.3419849e-10
7.1785393e-10
7.0272232e-10
6.8889671e-10
6.7648656e-10
6.6563746e-10
6.5678144e-10
6.492471e-10
6.4586428e-10
6.4414806e-10
6.4634867e-10
6.5246134e-10
6.6324905e-10
6.7940162e-10
7.0157555e-10
7.2981669e-10
7.6417952e-10
8.0490139e-10
8.5046623e-10
8.9686283e-10
9.4089852e-10
9.7669662e-10
1.006217e-09
1.028146e-09
1.0443095e-09
1.0560344e-09
1.0643405e-09
1.069999e-09
1.0734278e-09
1.0749443e-09
1.0747883e-09
1.0729453e-09
1.0694548e-09
1.0645464e-09
1.0584177e-09
1.0513162e-09
1.0435207e-09
1.0351986e-09
1.026516e-09
1.0176719e-09
1.0087824e-09
9.9988893e-10
9.9105148e-10
9.8235881e-10
9.7383654e-10
9.6547323e-10
9.5725405e-10
9.4918686e-10
9.4126257e-10
9.3350655e-10
9.2556407e-10
9.1801608e-10
9.0869404e-10
9.0115704e-10
8.9025142e-10
0.00012061546
0.00011450898
0.00011393516
0.00011400247
0.00011404322
0.00011405363
0.0001140567
0.0001140587
0.0001140608
0.00011406327
0.00011406624
0.00011406988
0.00011407438
0.00011407999
0.00011408709
0.00011409624
0.00011410835
0.00011412463
0.00011414903
0.00011417939
0.00011426678
0.00011419777
0.00011560202
5.6946931e-05
4.9848304e-08
7.5993169e-09
3.842436e-09
2.5884633e-09
1.976301e-09
1.6039946e-09
1.3523584e-09
1.1686208e-09
1.0283731e-09
9.1781658e-10
8.2821134e-10
7.54014e-10
6.9152493e-10
6.3815197e-10
5.9201784e-10
5.5172552e-10
5.1623019e-10
4.8468441e-10
4.5648699e-10
4.3111028e-10
4.0814889e-10
3.8726888e-10
3.6819494e-10
3.5069857e-10
3.3458835e-10
3.1970342e-10
3.0590664e-10
2.9308025e-10
2.8112329e-10
2.6994838e-10
2.5947966e-10
2.4965122e-10
2.4040488e-10
2.3168927e-10
2.2345912e-10
2.156743e-10
2.0829903e-10
2.0130161e-10
1.9465396e-10
1.8833082e-10
1.8230907e-10
1.7656808e-10
1.7108942e-10
1.658566e-10
1.6085469e-10
1.5607047e-10
1.5149287e-10
1.4711157e-10
1.429176e-10
1.3890337e-10
1.3506236e-10
1.3138919e-10
1.2787963e-10
1.2453117e-10
1.2134415e-10
1.1832008e-10
1.1546156e-10
1.1277699e-10
1.1027149e-10
1.079531e-10
1.058363e-10
1.0393811e-10
1.0228115e-10
1.0093172e-10
9.9785001e-11
9.9269632e-11
9.9025899e-11
9.9390297e-11
1.003615e-10
1.0205781e-10
1.045862e-10
1.0804798e-10
1.1244942e-10
1.1779678e-10
1.2412105e-10
1.3117978e-10
1.3834925e-10
1.4514099e-10
1.5065699e-10
1.5520642e-10
1.5858858e-10
1.6108581e-10
1.6290229e-10
1.6419424e-10
1.6507895e-10
1.6561964e-10
1.6586456e-10
1.6585025e-10
1.6557419e-10
1.6504222e-10
1.6428967e-10
1.6334733e-10
1.6225374e-10
1.6105215e-10
1.5976868e-10
1.5842913e-10
1.5706433e-10
1.5569224e-10
1.5431939e-10
1.5295508e-10
1.5161301e-10
1.5029717e-10
1.4900582e-10
1.4773671e-10
1.4649107e-10
1.4526751e-10
1.4406987e-10
1.4284381e-10
1.4167818e-10
1.4024053e-10
1.3907695e-10
1.3739319e-10
0.00012058152
0.00011446402
0.00011388926
0.00011395663
0.00011399744
0.00011400787
0.00011401094
0.00011401294
0.00011401504
0.00011401751
0.00011402049
0.00011402413
0.00011402863
0.00011403425
0.00011404136
0.00011405052
0.00011406264
0.00011407895
0.00011410337
0.00011413377
0.00011422127
0.000114152
0.00011555818
5.6893521e-05
1.632023e-08
2.3707745e-09
1.1987153e-09
8.0751409e-10
6.165447e-10
5.0040225e-10
4.2190297e-10
3.6458459e-10
3.2083308e-10
2.8634397e-10
2.5839085e-10
2.3524446e-10
2.1575069e-10
1.9910086e-10
1.8470933e-10
1.7214027e-10
1.6106769e-10
1.5122718e-10
1.4243124e-10
1.3451526e-10
1.273528e-10
1.208397e-10
1.1488997e-10
1.0943236e-10
1.0440716e-10
9.9764135e-11
9.5460457e-11
9.1459364e-11
8.7729503e-11
8.4243995e-11
8.0979364e-11
7.79147e-11
7.5031737e-11
7.2314452e-11
6.9748743e-11
6.7322106e-11
6.50234e-11
6.2842749e-11
6.0771416e-11
5.8801509e-11
5.6925732e-11
5.5137656e-11
5.3431463e-11
5.1801813e-11
5.0243662e-11
4.8753234e-11
4.7329903e-11
4.5969404e-11
4.4668164e-11
4.3423961e-11
4.2234885e-11
4.1099438e-11
4.00165e-11
3.8985375e-11
3.8005888e-11
3.7076568e-11
3.6194966e-11
3.5381849e-11
3.4632273e-11
3.3947064e-11
3.3332167e-11
3.2794628e-11
3.2343459e-11
3.2000156e-11
3.1724555e-11
3.1619484e-11
3.1688763e-11
3.1992676e-11
3.2530394e-11
3.3347655e-11
3.4486428e-11
3.5984162e-11
3.7841145e-11
4.0051351e-11
4.2597361e-11
4.534717e-11
4.805085e-11
5.0541476e-11
5.2548539e-11
5.4202921e-11
5.5454279e-11
5.6406343e-11
5.7130701e-11
5.7678336e-11
5.8083202e-11
5.8362088e-11
5.8529616e-11
5.8596352e-11
5.8559956e-11
5.8420704e-11
5.8190437e-11
5.7882258e-11
5.7512207e-11
5.7097401e-11
5.6649063e-11
5.6177713e-11
5.5694845e-11
5.5207482e-11
5.4718733e-11
5.423228e-11
5.3752926e-11
5.328228e-11
5.2820087e-11
5.2365789e-11
5.1919829e-11
5.1481896e-11
5.1052818e-11
5.0616271e-11
5.0197853e-11
4.9696055e-11
4.9280896e-11
4.8679339e-11
0.00012052323
0.00011438691
0.00011381057
0.00011387805
0.00011391895
0.0001139294
0.00011393248
0.00011393448
0.00011393659
0.00011393906
0.00011394204
0.00011394569
0.0001139502
0.00011395583
0.00011396295
0.00011397213
0.00011398427
0.00011400061
0.00011402508
0.00011405552
0.00011414323
0.00011407352
0.00011548293
5.6796131e-05
8.6531752e-09
1.0460967e-09
5.2887757e-10
3.5627193e-10
2.7203434e-10
2.2080916e-10
1.8618535e-10
1.6090236e-10
1.4160317e-10
1.263896e-10
1.1405923e-10
1.0384943e-10
9.5251198e-11
8.7907795e-11
8.1560798e-11
7.601795e-11
7.1135258e-11
6.6796019e-11
6.2917567e-11
5.9427375e-11
5.6269704e-11
5.3398625e-11
5.0775995e-11
4.8370407e-11
4.6155528e-11
4.4109127e-11
4.2212096e-11
4.0448159e-11
3.8803906e-11
3.7268583e-11
3.5832382e-11
3.4485111e-11
3.3218343e-11
3.2025052e-11
3.089907e-11
2.9834938e-11
2.88278e-11
2.7873359e-11
2.6967826e-11
2.6107722e-11
2.5289565e-11
2.4510566e-11
2.3768003e-11
2.3058996e-11
2.2380273e-11
2.173115e-11
2.1119282e-11
2.0539955e-11
1.9989517e-11
1.9467485e-11
1.8973472e-11
1.8507463e-11
1.8069693e-11
1.7660338e-11
1.727892e-11
1.6920113e-11
1.6574636e-11
1.6298969e-11
1.6074972e-11
1.5899584e-11
1.578033e-11
1.5726417e-11
1.5749222e-11
1.5863835e-11
1.6041501e-11
1.6263363e-11
1.6790386e-11
1.7563257e-11
1.8590846e-11
1.9924598e-11
2.1614954e-11
2.3704122e-11
2.6198145e-11
2.9090783e-11
3.2323918e-11
3.5694256e-11
3.8909426e-11
4.1760232e-11
4.4082709e-11
4.5976976e-11
4.7472918e-11
4.867591e-11
4.9658288e-11
5.0466641e-11
5.1123717e-11
5.1641067e-11
5.2032555e-11
5.230456e-11
5.2452325e-11
5.2471428e-11
5.2370713e-11
5.2168482e-11
5.18862e-11
5.1544544e-11
5.1159417e-11
5.0744336e-11
5.0311338e-11
4.9868666e-11
4.942148e-11
4.8974211e-11
4.8531049e-11
4.8094029e-11
4.7663951e-11
4.7241035e-11
4.68257e-11
4.6418196e-11
4.6017702e-11
4.5618112e-11
4.5225218e-11
4.479535e-11
4.4412834e-11
4.3856234e-11
0.00012043894
0.00011427541
0.00011369678
0.00011376442
0.00011380546
0.00011381595
0.00011381903
0.00011382103
0.00011382315
0.00011382563
0.00011382861
0.00011383227
0.00011383679
0.00011384243
0.00011384958
0.00011385878
0.00011387096
0.00011388734
0.00011391188
0.00011394239
0.00011403038
0.00011396004
0.00011537408
5.6653068e-05
6.9327715e-09
5.5990941e-10
2.8295217e-10
1.9059298e-10
1.4557122e-10
1.1820758e-10
9.9708932e-11
8.6197324e-11
7.5882254e-11
6.7750552e-11
6.1160057e-11
5.5703591e-11
5.1109314e-11
4.718651e-11
4.3796881e-11
4.0837658e-11
3.8231416e-11
3.5915595e-11
3.384613e-11
3.1984436e-11
3.030082e-11
2.8770776e-11
2.7373482e-11
2.6092217e-11
2.4912919e-11
2.3823557e-11
2.2813455e-11
2.1873765e-11
2.0998177e-11
2.0183182e-11
1.942468e-11
1.871529e-11
1.8049786e-11
1.7424512e-11
1.68363e-11
1.6282364e-11
1.5760249e-11
1.5267806e-11
1.4803164e-11
1.436453e-11
1.3949522e-11
1.3556772e-11
1.3184625e-11
1.2830646e-11
1.2491181e-11
1.2167762e-11
1.1879636e-11
1.1619199e-11
1.1380789e-11
1.1165342e-11
1.0973879e-11
1.0808007e-11
1.0669736e-11
1.0560854e-11
1.0481472e-11
1.0422208e-11
1.0365411e-11
1.0420558e-11
1.055468e-11
1.0763492e-11
1.1063066e-11
1.1473706e-11
1.2021485e-11
1.2735939e-11
1.361455e-11
1.460751e-11
1.6113623e-11
1.8069132e-11
2.0529054e-11
2.3597158e-11
2.7378588e-11
3.1960185e-11
3.7362675e-11
4.35812e-11
5.0475767e-11
5.7601508e-11
6.4363459e-11
7.0295189e-11
7.5174509e-11
7.9134035e-11
8.231779e-11
8.4928515e-11
8.7107946e-11
8.8944475e-11
9.0474199e-11
9.1717692e-11
9.270318e-11
9.3439678e-11
9.3916069e-11
9.4119128e-11
9.4062684e-11
9.378723e-11
9.3339531e-11
9.2762883e-11
9.2092628e-11
9.1357775e-11
9.0581919e-11
8.9782114e-11
8.8970381e-11
8.8155991e-11
8.7346311e-11
8.654568e-11
8.5756745e-11
8.4980733e-11
8.4218429e-11
8.3470899e-11
8.2734839e-11
8.200931e-11
8.1284573e-11
8.0537885e-11
7.9840483e-11
7.8823015e-11
0.0001203264
0.00011412649
0.0001135448
0.00011361264
0.00011365387
0.00011366441
0.0001136675
0.00011366951
0.00011367162
0.00011367411
0.00011367711
0.00011368077
0.00011368531
0.00011369097
0.00011369814
0.00011370738
0.0001137196
0.00011373604
0.00011376068
0.00011379128
0.00011387965
0.00011380845
0.00011522865
5.6462272e-05
7.5537751e-09
3.4097348e-10
1.7206627e-10
1.158732e-10
8.8587706e-11
7.2033027e-11
6.0835279e-11
5.2649198e-11
4.6397101e-11
4.1467593e-11
3.7472483e-11
3.4165847e-11
3.1383387e-11
2.9009468e-11
2.6959965e-11
2.5172591e-11
2.3599501e-11
2.2202394e-11
2.0954799e-11
1.9833686e-11
1.8821247e-11
1.7902719e-11
1.7064799e-11
1.6297469e-11
1.5592227e-11
1.4941573e-11
1.4338198e-11
1.3776432e-11
1.3253853e-11
1.2771992e-11
1.2330275e-11
1.1921184e-11
1.1540431e-11
1.1186005e-11
1.085624e-11
1.0549716e-11
1.0265223e-11
1.0001758e-11
9.7585013e-12
9.5346159e-12
9.3278686e-12
9.1376931e-12
8.9630543e-12
8.8014643e-12
8.6481964e-12
8.5070377e-12
8.4117573e-12
8.3511672e-12
8.3171206e-12
8.3125856e-12
8.3409385e-12
8.4065682e-12
8.5147749e-12
8.6711605e-12
8.8798148e-12
9.1332141e-12
9.4126732e-12
9.8626386e-12
1.0450806e-11
1.11823e-11
1.2091189e-11
1.3220983e-11
1.4628549e-11
1.6378278e-11
1.8511049e-11
2.0969155e-11
2.4366491e-11
2.8668189e-11
3.402094e-11
4.0642263e-11
4.875462e-11
5.8542176e-11
7.0055434e-11
8.3294081e-11
9.7963721e-11
1.1312773e-10
1.2754166e-10
1.4018504e-10
1.5063008e-10
1.5909644e-10
1.6593191e-10
1.7155657e-10
1.7626804e-10
1.8025223e-10
1.8358336e-10
1.8630653e-10
1.8848328e-10
1.9013157e-10
1.9122763e-10
1.9174155e-10
1.9170032e-10
1.9119101e-10
1.9031378e-10
1.8916052e-10
1.8780729e-10
1.86316e-10
1.8473592e-10
1.8310313e-10
1.8144377e-10
1.797775e-10
1.7811924e-10
1.7647826e-10
1.7486064e-10
1.7326941e-10
1.7170616e-10
1.7017344e-10
1.6866343e-10
1.6718016e-10
1.6569185e-10
1.6418514e-10
1.6275769e-10
1.6067356e-10
0.00012018282
0.00011393633
0.00011335072
0.00011341883
0.00011346029
0.00011347088
0.00011347399
0.000113476
0.00011347813
0.00011348062
0.00011348363
0.00011348731
0.00011349187
0.00011349755
0.00011350476
0.00011351404
0.00011352632
0.00011354283
0.00011356759
0.0001135983
0.00011368716
0.00011361488
0.00011504291
5.6221492e-05
9.6095113e-09
2.3276084e-10
1.1701884e-10
7.8752309e-11
6.0362961e-11
4.9258751e-11
4.1736727e-11
3.6224953e-11
3.2010479e-11
2.8685934e-11
2.5991459e-11
2.3762866e-11
2.1890302e-11
2.0295847e-11
1.8922348e-11
1.7727883e-11
1.6678567e-11
1.5747898e-11
1.4918438e-11
1.4175293e-11
1.3506796e-11
1.2903154e-11
1.235456e-11
1.185444e-11
1.1397089e-11
1.0977272e-11
1.058873e-11
1.0227092e-11
9.8926114e-12
9.591242e-12
9.3252592e-12
9.0857608e-12
8.8685071e-12
8.6725191e-12
8.4971248e-12
8.3418472e-12
8.2063725e-12
8.0905629e-12
7.9944381e-12
7.9181335e-12
7.8592527e-12
7.8179423e-12
7.794259e-12
7.7864245e-12
7.7896602e-12
7.8098035e-12
7.8912968e-12
8.0223316e-12
8.1948778e-12
8.4152338e-12
8.6907318e-12
9.0305187e-12
9.4456192e-12
9.9484414e-12
1.0550597e-11
1.1249559e-11
1.2028165e-11
1.3083079e-11
1.4386763e-11
1.5963087e-11
1.7878738e-11
2.0219248e-11
2.30973e-11
2.6642307e-11
3.0971204e-11
3.6040383e-11
4.2814934e-11
5.1329016e-11
6.1895153e-11
7.4938988e-11
9.0897233e-11
1.1013272e-10
1.3275081e-10
1.587624e-10
1.876035e-10
2.1745551e-10
2.4589119e-10
2.7087008e-10
2.9155255e-10
3.0831343e-10
3.2185853e-10
3.3300766e-10
3.4234642e-10
3.5024297e-10
3.5684604e-10
3.6224868e-10
3.6657516e-10
3.6986131e-10
3.7206082e-10
3.7311404e-10
3.7307296e-10
3.721094e-10
3.704209e-10
3.6818822e-10
3.6556147e-10
3.6266264e-10
3.5958824e-10
3.5640919e-10
3.5317721e-10
3.4993101e-10
3.4669957e-10
3.435011e-10
3.4034789e-10
3.3724601e-10
3.3419863e-10
3.3121088e-10
3.2826698e-10
3.253779e-10
3.2247549e-10
3.1955119e-10
3.1676994e-10
3.127084e-10
0.00012000484
0.00011370035
0.00011310986
0.00011317829
0.00011322005
0.00011323072
0.00011323384
0.00011323586
0.00011323799
0.0001132405
0.00011324352
0.00011324722
0.0001132518
0.00011325751
0.00011326476
0.00011327409
0.00011328644
0.00011330305
0.00011332795
0.0001133588
0.00011344826
0.00011337464
0.00011481238
5.5928511e-05
1.2906723e-08
1.8183834e-10
9.0707548e-11
6.0963109e-11
4.6980394e-11
3.8625008e-11
3.2947515e-11
2.8766356e-11
2.5561178e-11
2.3029792e-11
2.0977452e-11
1.9281906e-11
1.7861193e-11
1.6656278e-11
1.5623156e-11
1.4730149e-11
1.3948869e-11
1.3258029e-11
1.2645006e-11
1.2099484e-11
1.1613125e-11
1.1178744e-11
1.0788267e-11
1.0436937e-11
1.012046e-11
9.8349421e-12
9.5738258e-12
9.332914e-12
9.114242e-12
8.9270403e-12
8.7757554e-12
8.6506273e-12
8.5475733e-12
8.4664836e-12
8.4075727e-12
8.3712501e-12
8.3580872e-12
8.3688521e-12
8.404491e-12
8.4663713e-12
8.5515064e-12
8.6609174e-12
8.7963386e-12
8.9572577e-12
9.1392045e-12
9.3510706e-12
9.6515715e-12
1.0028914e-11
1.0476223e-11
1.1005274e-11
1.1629941e-11
1.2367297e-11
1.3237962e-11
1.4265829e-11
1.5475444e-11
1.6873774e-11
1.844885e-11
2.04797e-11
2.2948184e-11
2.5910955e-11
2.9490064e-11
3.3842379e-11
3.9175483e-11
4.5730739e-11
5.3757151e-11
6.3263438e-11
7.5757409e-11
9.1412319e-11
1.1082536e-10
1.3477698e-10
1.6406908e-10
1.9936999e-10
2.4088006e-10
2.8863356e-10
3.4161838e-10
3.9652813e-10
4.4892478e-10
4.9501667e-10
5.332358e-10
5.6420818e-10
5.8924391e-10
6.0984516e-10
6.2709114e-10
6.416642e-10
6.5384408e-10
6.638088e-10
6.7179144e-10
6.7785962e-10
6.8192897e-10
6.838896e-10
6.8383654e-10
6.820861e-10
6.7900178e-10
6.7491603e-10
6.7010519e-10
6.6479371e-10
6.5915882e-10
6.5333094e-10
6.4740536e-10
6.4145325e-10
6.3552771e-10
6.2966226e-10
6.238796e-10
6.1819105e-10
6.1260241e-10
6.0712318e-10
6.0172414e-10
5.9642713e-10
5.9110373e-10
5.8574798e-10
5.8064817e-10
5.7320031e-10
0.00011978861
0.00011341322
0.00011281676
0.0001128856
0.00011292772
0.00011293847
0.00011294161
0.00011294364
0.00011294579
0.0001129483
0.00011295134
0.00011295506
0.00011295967
0.00011296542
0.00011297272
0.00011298211
0.00011299455
0.00011301128
0.00011303634
0.00011306736
0.00011315755
0.0001130823
0.00011453185
5.55814e-05
1.7522559e-08
1.6873557e-10
8.3155646e-11
5.5769848e-11
4.3344671e-11
3.605152e-11
3.107106e-11
2.7372429e-11
2.4524915e-11
2.2270869e-11
2.0441305e-11
1.8931473e-11
1.7671082e-11
1.6608365e-11
1.5703808e-11
1.4929775e-11
1.4257293e-11
1.3665773e-11
1.3144884e-11
1.2686884e-11
1.2285118e-11
1.1933566e-11
1.1624602e-11
1.1354316e-11
1.1118966e-11
1.0915456e-11
1.0735597e-11
1.0574425e-11
1.0435665e-11
1.0332254e-11
1.0271031e-11
1.0240999e-11
1.0238112e-11
1.0263206e-11
1.0317516e-11
1.0402522e-11
1.0519903e-11
1.0671606e-11
1.0859824e-11
1.1087703e-11
1.1351116e-11
1.1652348e-11
1.1995778e-11
1.2383005e-11
1.281034e-11
1.3291585e-11
1.3906688e-11
1.4644269e-11
1.5499813e-11
1.6493934e-11
1.7651093e-11
1.9001228e-11
2.0580567e-11
2.2431795e-11
2.4600946e-11
2.7112153e-11
2.9965705e-11
3.3564462e-11
3.7908658e-11
4.3110162e-11
4.9381449e-11
5.6995952e-11
6.6316551e-11
7.7769277e-11
9.1825898e-11
1.0861508e-10
1.3045531e-10
1.5777835e-10
1.9165229e-10
2.3343861e-10
2.8453744e-10
3.4611859e-10
4.1854034e-10
5.0188083e-10
5.944069e-10
6.9039276e-10
7.8211413e-10
8.6289375e-10
9.2994538e-10
9.8428571e-10
1.0282122e-09
1.064345e-09
1.0945745e-09
1.1201018e-09
1.1414253e-09
1.1588658e-09
1.1728371e-09
1.1834601e-09
1.1905886e-09
1.1940306e-09
1.1939519e-09
1.1909056e-09
1.1855274e-09
1.1783981e-09
1.1700012e-09
1.160729e-09
1.1508912e-09
1.1407156e-09
1.130369e-09
1.1199758e-09
1.1096287e-09
1.0993862e-09
1.0892882e-09
1.0793546e-09
1.0695953e-09
1.0600272e-09
1.0505989e-09
1.0413497e-09
1.0320532e-09
1.022705e-09
1.0137998e-09
1.0007942e-09
0.00011952975
0.00011306889
0.00011246522
0.00011253455
0.00011257709
0.00011258795
0.00011259112
0.00011259316
0.00011259531
0.00011259784
0.0001126009
0.00011260465
0.00011260929
0.00011261509
0.00011262244
0.00011263191
0.00011264445
0.00011266132
0.00011268658
0.00011271781
0.00011280885
0.00011273166
0.00011419538
5.5178803e-05
2.3686796e-08
1.8831359e-10
9.1591014e-11
6.1285207e-11
4.8078491e-11
4.0492988e-11
3.5282273e-11
3.1373786e-11
2.8349204e-11
2.5948122e-11
2.3995929e-11
2.2386196e-11
2.1047552e-11
1.9926102e-11
1.897961e-11
1.8179499e-11
1.7490355e-11
1.6888188e-11
1.6363097e-11
1.5908611e-11
1.5518579e-11
1.5187051e-11
1.490572e-11
1.4670796e-11
1.4478421e-11
1.4325972e-11
1.4202017e-11
1.4099786e-11
1.4025028e-11
1.3995655e-11
1.4021636e-11
1.4090033e-11
1.419671e-11
1.4343729e-11
1.4533706e-11
1.4769602e-11
1.5054663e-11
1.539254e-11
1.5787256e-11
1.624466e-11
1.6758739e-11
1.7333719e-11
1.7978194e-11
1.8697307e-11
1.9489088e-11
2.0375106e-11
2.1466379e-11
2.2752867e-11
2.4234537e-11
2.5946008e-11
2.7928543e-11
3.0232525e-11
3.2919023e-11
3.606078e-11
3.9738674e-11
4.4006777e-11
4.889032e-11
5.497228e-11
6.2287668e-11
7.1038976e-11
8.1582697e-11
9.4378003e-11
1.1003555e-10
1.2927776e-10
1.5294195e-10
1.8139138e-10
2.1813356e-10
2.640546e-10
3.209812e-10
3.9120197e-10
4.77072e-10
5.805629e-10
7.0228833e-10
8.4240354e-10
9.9804019e-10
1.1596324e-09
1.31422e-09
1.4504976e-09
1.5637061e-09
1.6554579e-09
1.7296254e-09
1.7906132e-09
1.84161e-09
1.8846489e-09
1.9205827e-09
1.9499647e-09
1.9734998e-09
1.9913954e-09
2.0034072e-09
2.0092124e-09
2.0090899e-09
2.0039711e-09
1.994926e-09
1.9829328e-09
1.9688053e-09
1.953204e-09
1.9366501e-09
1.9195274e-09
1.9021167e-09
1.8846273e-09
1.8672152e-09
1.849979e-09
1.8329859e-09
1.8162692e-09
1.799846e-09
1.7837445e-09
1.7678782e-09
1.7523138e-09
1.7366692e-09
1.7209403e-09
1.7059547e-09
1.6840687e-09
0.0001192234
0.00011266055
0.00011204827
0.00011211818
0.00011216123
0.00011217222
0.00011217541
0.00011217747
0.00011217963
0.00011218218
0.00011218526
0.00011218904
0.00011219372
0.00011219957
0.00011220699
0.00011221656
0.00011222921
0.00011224624
0.00011227175
0.0001123032
0.00011239526
0.00011231577
0.0001137963
5.4720252e-05
3.1755656e-08
2.4369151e-10
1.1732315e-10
7.8360831e-11
6.1930552e-11
5.266979e-11
4.6276317e-11
4.1439411e-11
3.7679936e-11
3.4687889e-11
3.2251201e-11
3.0242658e-11
2.857712e-11
2.7188947e-11
2.6025588e-11
2.5052477e-11
2.4220758e-11
2.3498368e-11
2.28741e-11
2.2341725e-11
2.1894555e-11
2.152565e-11
2.1224822e-11
2.0987719e-11
2.0809706e-11
2.0688441e-11
2.0607074e-11
2.0555689e-11
2.0542708e-11
2.0593005e-11
2.0720871e-11
2.0910571e-11
2.1157821e-11
2.1466434e-11
2.184103e-11
2.2286752e-11
2.2809175e-11
2.3414504e-11
2.4109529e-11
2.4904271e-11
2.5789782e-11
2.67733e-11
2.7870131e-11
2.909132e-11
3.0438347e-11
3.1944826e-11
3.3766212e-11
3.5895827e-11
3.834185e-11
4.1160758e-11
4.4420087e-11
4.8202185e-11
5.2607026e-11
5.7754619e-11
6.3781298e-11
7.0791697e-11
7.885749e-11
8.8818952e-11
1.007739e-10
1.1507052e-10
1.3229072e-10
1.5318453e-10
1.7875103e-10
2.1017943e-10
2.4889402e-10
2.9568064e-10
3.5577398e-10
4.3082755e-10
5.2386705e-10
6.3863439e-10
7.7898211e-10
9.4814086e-10
1.1471291e-09
1.3762321e-09
1.6308213e-09
1.895337e-09
2.1486215e-09
2.3720839e-09
2.5578378e-09
2.7083923e-09
2.83009e-09
2.9301328e-09
3.0137491e-09
3.0842825e-09
3.1431477e-09
3.1912676e-09
3.2298074e-09
3.2591123e-09
3.2787844e-09
3.2882961e-09
3.2881041e-09
3.2797328e-09
3.264934e-09
3.245309e-09
3.2221898e-09
3.1966579e-09
3.1695665e-09
3.1415436e-09
3.113049e-09
3.0844254e-09
3.0559281e-09
3.0277187e-09
2.9999069e-09
2.9725475e-09
2.9456684e-09
2.9193157e-09
2.893348e-09
2.8678748e-09
2.8422696e-09
2.8165288e-09
2.7920026e-09
2.7561828e-09
0.00011886425
0.00011218067
0.00011155818
0.00011162879
0.00011167243
0.00011168357
0.00011168679
0.00011168886
0.00011169105
0.00011169362
0.00011169673
0.00011170054
0.00011170527
0.00011171118
0.00011171868
0.00011172835
0.00011174114
0.00011175835
0.00011178414
0.00011181587
0.00011190911
0.00011182692
0.00011332726
5.4206491e-05
4.2220361e-08
3.4499509e-10
1.6507089e-10
1.101299e-10
8.7441508e-11
7.4814076e-11
6.6067841e-11
5.9413469e-11
5.4226423e-11
5.009105e-11
4.671906e-11
4.3939501e-11
4.1638245e-11
3.9726163e-11
3.813094e-11
3.680589e-11
3.5679264e-11
3.4704781e-11
3.3867944e-11
3.3161783e-11
3.2577918e-11
3.2107186e-11
3.1736051e-11
3.1458812e-11
3.1269267e-11
3.1165281e-11
3.1121484e-11
3.112292e-11
3.1181691e-11
3.1332439e-11
3.1595514e-11
3.195142e-11
3.2395807e-11
3.2935087e-11
3.3576875e-11
3.4329593e-11
3.5202334e-11
3.6205176e-11
3.7349125e-11
3.8650639e-11
4.0096318e-11
4.1698081e-11
4.3481815e-11
4.5468251e-11
4.7665325e-11
5.0125038e-11
5.3065486e-11
5.6487175e-11
6.0412768e-11
6.4932463e-11
7.0154409e-11
7.621035e-11
8.3260438e-11
9.1498084e-11
1.0114662e-10
1.1239385e-10
1.2539307e-10
1.4134872e-10
1.6046746e-10
1.833279e-10
2.1086044e-10
2.442649e-10
2.8514156e-10
3.3540505e-10
3.9740646e-10
4.7265584e-10
5.688841e-10
6.8900447e-10
8.3791124e-10
1.0215958e-09
1.246229e-09
1.5169933e-09
1.8355394e-09
2.2023658e-09
2.610144e-09
3.0340702e-09
3.4403114e-09
3.7989606e-09
4.097247e-09
4.3390197e-09
4.5344464e-09
4.6950595e-09
4.8292499e-09
4.9423974e-09
5.0367942e-09
5.113943e-09
5.1757259e-09
5.2227034e-09
5.2542412e-09
5.2694946e-09
5.2691955e-09
5.2557872e-09
5.232077e-09
5.2006316e-09
5.1635857e-09
5.1226726e-09
5.0792599e-09
5.0343539e-09
4.9886917e-09
4.9428226e-09
4.8971557e-09
4.8519498e-09
4.807381e-09
4.7635372e-09
4.7204629e-09
4.6782322e-09
4.6366183e-09
4.5957973e-09
4.5547642e-09
4.5135153e-09
4.4742115e-09
4.4168095e-09
0.00011844655
0.000111621
0.00011098649
0.00011105791
0.00011110224
0.00011111356
0.00011111682
0.00011111891
0.00011112111
0.00011112371
0.00011112685
0.00011113071
0.00011113549
0.00011114147
0.00011114906
0.00011115885
0.00011117181
0.00011118924
0.00011121534
0.00011124738
0.00011134198
0.00011125664
0.00011278015
5.3639817e-05
5.5735181e-08
5.1030497e-10
2.4337973e-10
1.6228124e-10
1.2917709e-10
1.1088619e-10
9.819465e-11
8.8507798e-11
8.0944618e-11
7.4908615e-11
6.9982757e-11
6.5921517e-11
6.2561359e-11
5.9773753e-11
5.7453691e-11
5.5534093e-11
5.3906814e-11
5.2502661e-11
5.1301272e-11
5.0293793e-11
4.9468696e-11
4.881295e-11
4.8307733e-11
4.7944947e-11
4.7715789e-11
4.7618357e-11
4.7614248e-11
4.7680717e-11
4.7834985e-11
4.8125355e-11
4.8580703e-11
4.9176733e-11
4.9909334e-11
5.0788824e-11
5.1827335e-11
5.3038247e-11
5.4435983e-11
5.6036503e-11
5.785722e-11
5.9924486e-11
6.2218243e-11
6.4757632e-11
6.7585075e-11
7.0736938e-11
7.4232593e-11
7.8151838e-11
8.2800372e-11
8.8192573e-11
9.4375782e-11
1.0149179e-10
1.0971095e-10
1.1924068e-10
1.3033339e-10
1.4329537e-10
1.5848492e-10
1.7622388e-10
1.9680345e-10
2.2194132e-10
2.5202665e-10
2.8799798e-10
3.3131953e-10
3.8388036e-10
4.4820277e-10
5.2731735e-10
6.2502044e-10
7.4402248e-10
8.9565344e-10
1.0848515e-09
1.3193932e-09
1.6087192e-09
1.9625568e-09
2.3890848e-09
2.8909317e-09
3.468938e-09
4.1116669e-09
4.7801821e-09
5.4212295e-09
5.9874978e-09
6.4586697e-09
6.8405869e-09
7.1492853e-09
7.4029384e-09
7.6147949e-09
7.7933667e-09
7.9423018e-09
8.0640011e-09
8.1614524e-09
8.2355495e-09
8.2852964e-09
8.3093622e-09
8.308901e-09
8.287766e-09
8.2503844e-09
8.2008037e-09
8.1423905e-09
8.0778783e-09
8.0094235e-09
7.9386136e-09
7.8666107e-09
7.7942812e-09
7.7222702e-09
7.6509861e-09
7.5807064e-09
7.5115696e-09
7.4436464e-09
7.3770532e-09
7.3114326e-09
7.2470625e-09
7.1823577e-09
7.1173137e-09
7.0553358e-09
6.964819e-09
0.00011796416
0.00011097259
0.00011032397
0.00011039635
0.00011044149
0.00011045301
0.00011045632
0.00011045843
0.00011046065
0.00011046327
0.00011046645
0.00011047036
0.0001104752
0.00011048127
0.00011048896
0.00011049889
0.00011051204
0.00011052971
0.00011055618
0.00011058857
0.00011068473
0.00011059572
0.0001121462
5.3024414e-05
7.3162039e-08
7.6828202e-10
3.6585621e-10
2.4388018e-10
1.9439073e-10
1.671535e-10
1.4823775e-10
1.3377623e-10
1.2247538e-10
1.1345107e-10
1.060825e-10
1.0000573e-10
9.4978836e-11
9.0811193e-11
8.7346574e-11
8.4485738e-11
8.2064349e-11
7.9977643e-11
7.8195774e-11
7.6706526e-11
7.54932e-11
7.4536588e-11
7.3809886e-11
7.3301125e-11
7.2997435e-11
7.2897329e-11
7.2942723e-11
7.3099026e-11
7.339062e-11
7.3884855e-11
7.4622621e-11
7.5573745e-11
7.6735022e-11
7.8122668e-11
7.9755626e-11
8.1654772e-11
8.3842592e-11
8.6343955e-11
8.9185993e-11
9.241017e-11
9.5986551e-11
9.9945344e-11
1.0435459e-10
1.0927552e-10
1.14747e-10
1.2089057e-10
1.2813398e-10
1.3651667e-10
1.4612689e-10
1.5718484e-10
1.6995556e-10
1.8476157e-10
2.0199574e-10
2.2213673e-10
2.457504e-10
2.7337125e-10
3.0551701e-10
3.4462762e-10
3.9139096e-10
4.4730217e-10
5.1463766e-10
5.9633544e-10
6.9632192e-10
8.1933184e-10
9.7139347e-10
1.157161e-09
1.3931491e-09
1.6875008e-09
2.052403e-09
2.5025495e-09
3.0530847e-09
3.7167556e-09
4.4976902e-09
5.3972697e-09
6.3978424e-09
7.4390069e-09
8.4379549e-09
9.320804e-09
1.0055671e-08
1.065135e-08
1.1132818e-08
1.1528363e-08
1.1858639e-08
1.2136943e-08
1.2369e-08
1.2558591e-08
1.2710394e-08
1.2825817e-08
1.2903312e-08
1.2940809e-08
1.2940105e-08
1.2907202e-08
1.2848994e-08
1.2771785e-08
1.2680819e-08
1.2580354e-08
1.2473747e-08
1.2363472e-08
1.2251338e-08
1.2138695e-08
1.2026547e-08
1.1915532e-08
1.180608e-08
1.1698408e-08
1.1592625e-08
1.1488914e-08
1.1386718e-08
1.1286469e-08
1.1185699e-08
1.1084401e-08
1.0987878e-08
1.0846908e-08
0.0001174106
0.00011022578
0.00010956069
0.0001096342
0.00010968027
0.00010969203
0.00010969539
0.00010969752
0.00010969977
0.00010970242
0.00010970564
0.0001097096
0.00010971451
0.00010972067
0.00010972849
0.00010973858
0.00010975193
0.00010976988
0.00010979677
0.00010982955
0.00010992749
0.00010983423
0.00011141592
5.2366661e-05
9.5633538e-08
1.162638e-09
5.5328993e-10
3.6878246e-10
2.9415655e-10
2.5317112e-10
2.2469593e-10
2.0290752e-10
1.8587345e-10
1.7226609e-10
1.6115122e-10
1.5198253e-10
1.4439747e-10
1.3811019e-10
1.3288616e-10
1.2857681e-10
1.2493233e-10
1.2179367e-10
1.1911627e-10
1.1688249e-10
1.1506755e-10
1.136427e-10
1.1256935e-10
1.1182948e-10
1.1140405e-10
1.1129238e-10
1.1140689e-10
1.1169512e-10
1.121915e-10
1.1298988e-10
1.1414812e-10
1.1562916e-10
1.1743192e-10
1.1958152e-10
1.2210716e-10
1.2504104e-10
1.2841778e-10
1.3227573e-10
1.3665669e-10
1.4162512e-10
1.4713645e-10
1.5323778e-10
1.6003654e-10
1.6763308e-10
1.7609846e-10
1.8561668e-10
1.9678536e-10
2.0968719e-10
2.2447678e-10
2.414929e-10
2.6114396e-10
2.8392669e-10
3.1044671e-10
3.4144436e-10
3.7780257e-10
4.2038913e-10
4.7008634e-10
5.3035077e-10
6.0235002e-10
6.8843346e-10
7.9210681e-10
9.1789615e-10
1.0718548e-09
1.2613052e-09
1.4956966e-09
1.7827769e-09
2.1465316e-09
2.6001151e-09
3.162423e-09
3.8561065e-09
4.7045182e-09
5.7273316e-09
6.930961e-09
8.3176318e-09
9.8603328e-09
1.1466222e-08
1.3007748e-08
1.4370693e-08
1.5505555e-08
1.6425493e-08
1.7169034e-08
1.7779786e-08
1.8289639e-08
1.8719151e-08
1.9077212e-08
1.9369709e-08
1.9603894e-08
1.9781952e-08
1.9901506e-08
1.9959365e-08
1.9958301e-08
1.990757e-08
1.9817806e-08
1.9698734e-08
1.955844e-08
1.9403493e-08
1.9239073e-08
1.9068992e-08
1.8896044e-08
1.8722311e-08
1.8549341e-08
1.8378115e-08
1.8209302e-08
1.8043233e-08
1.7880079e-08
1.772012e-08
1.7562496e-08
1.7407876e-08
1.7252452e-08
1.7096214e-08
1.694734e-08
1.6729913e-08
0.00011677912
0.00010937026
0.00010868604
0.00010876084
0.00010880798
0.00010882001
0.00010882343
0.00010882559
0.00010882786
0.00010883055
0.00010883382
0.00010883784
0.00010884284
0.0001088491
0.00010885706
0.00010886733
0.00010888092
0.00010889918
0.00010892654
0.00010895975
0.00010905969
0.00010896154
0.00011057919
5.1675399e-05
1.2463895e-07
1.7590605e-09
8.3694943e-10
5.5783126e-10
4.4512625e-10
3.8329873e-10
3.4033573e-10
3.0744725e-10
2.8172898e-10
2.6117985e-10
2.4439024e-10
2.3053709e-10
2.1907495e-10
2.0957394e-10
2.0168119e-10
1.9517357e-10
1.896722e-10
1.8493603e-10
1.8089808e-10
1.7753229e-10
1.7480157e-10
1.7266266e-10
1.7105967e-10
1.6996538e-10
1.6935146e-10
1.6921879e-10
1.694357e-10
1.6992298e-10
1.7072912e-10
1.7198493e-10
1.7377223e-10
1.7604628e-10