/*--------------------------------*- C++ -*----------------------------------*\
| =========                 |                                                 |
| \\      /  F ield         | OpenFOAM: The Open Source CFD Toolbox           |
|  \\    /   O peration     | Version:  2206                                  |
|   \\  /    A nd           | Website:  www.openfoam.com                      |
|    \\/     M anipulation  |                                                 |
\*---------------------------------------------------------------------------*/
FoamFile
{
    version     2.0;
    format      ascii;
    arch        "LSB;label=32;scalar=64";
    class       volScalarField;
    location    "500";
    object      nut;
}
// * * * * * * * * * * * * * * * * * * * * * * * * * * * * * * * * * * * * * //

dimensions      [0 2 -1 0 0 0 0];

internalField   nonuniform List<scalar> 
13056
(
1.9700943e-07
1.9665264e-07
1.9667521e-07
1.9673468e-07
1.967668e-07
1.9678151e-07
1.967891e-07
1.9679393e-07
1.9679761e-07
1.9680081e-07
1.9680389e-07
1.9680711e-07
1.9681073e-07
1.9681502e-07
1.9682037e-07
1.9682725e-07
1.9683664e-07
1.9684894e-07
1.9687081e-07
1.9688378e-07
1.9702418e-07
1.9661171e-07
1.9810937e-07
3.0392573e-09
2.6989134e-16
4.1429246e-17
2.0947876e-17
1.4111583e-17
1.0774245e-17
8.744532e-18
7.3726802e-18
6.3709934e-18
5.6064014e-18
5.0036771e-18
4.5151736e-18
4.1106697e-18
3.7699959e-18
3.4790205e-18
3.2275092e-18
3.0078458e-18
2.8143343e-18
2.6423546e-18
2.4886294e-18
2.3502818e-18
2.2251019e-18
2.111269e-18
2.0072825e-18
1.9118964e-18
1.8240673e-18
1.7429182e-18
1.6677015e-18
1.5977753e-18
1.5325889e-18
1.4716657e-18
1.4145921e-18
1.3610088e-18
1.310599e-18
1.2630824e-18
1.2182124e-18
1.17577e-18
1.1355604e-18
1.0974105e-18
1.0611673e-18
1.026693e-18
9.9386192e-19
9.6256135e-19
9.3269089e-19
9.041609e-19
8.7689032e-19
8.5080676e-19
8.258473e-19
8.019567e-19
7.7908676e-19
7.5719596e-19
7.3624871e-19
7.1621554e-19
6.9707319e-19
6.7880808e-19
6.6142231e-19
6.4492611e-19
6.293368e-19
6.1468295e-19
6.0099901e-19
5.8833059e-19
5.7675556e-19
5.6636558e-19
5.5728254e-19
5.4986813e-19
5.4356026e-19
5.407281e-19
5.3929126e-19
5.4113365e-19
5.4625127e-19
5.5528292e-19
5.6880611e-19
5.8737049e-19
6.1101443e-19
6.3978356e-19
6.7387657e-19
7.1202419e-19
7.5086819e-19
7.8773558e-19
8.1770633e-19
8.4242132e-19
8.6078055e-19
8.7431295e-19
8.8412919e-19
8.9108325e-19
8.9582059e-19
8.9869128e-19
8.999609e-19
8.998303e-19
8.9828731e-19
8.9536498e-19
8.912556e-19
8.8612452e-19
8.8017906e-19
8.7365255e-19
8.6668518e-19
8.5941592e-19
8.5201154e-19
8.4456909e-19
8.3712331e-19
8.2972446e-19
8.2244681e-19
8.1531183e-19
8.0830993e-19
8.0142869e-19
7.9467471e-19
7.8804037e-19
7.815469e-19
7.7489733e-19
7.6857803e-19
7.6077346e-19
7.5446337e-19
7.45333e-19
1.9700822e-07
1.9665112e-07
1.966737e-07
1.9673322e-07
1.9676536e-07
1.9678009e-07
1.9678768e-07
1.9679251e-07
1.9679619e-07
1.967994e-07
1.9680248e-07
1.968057e-07
1.9680932e-07
1.9681362e-07
1.9681897e-07
1.9682585e-07
1.9683525e-07
1.9684756e-07
1.9686944e-07
1.9688241e-07
1.970229e-07
1.9661014e-07
1.9810939e-07
3.0863759e-09
2.5449503e-16
3.8718739e-17
1.9577325e-17
1.3188297e-17
1.0069312e-17
8.1723992e-18
6.8903052e-18
5.9541566e-18
5.2395903e-18
4.6763012e-18
4.2197598e-18
3.8417221e-18
3.5233384e-18
3.2514015e-18
3.0163468e-18
2.8110562e-18
2.6302063e-18
2.4694796e-18
2.3258129e-18
2.1965178e-18
2.0795287e-18
1.9731444e-18
1.8759621e-18
1.7868175e-18
1.7047353e-18
1.628896e-18
1.558601e-18
1.49325e-18
1.4323288e-18
1.3753922e-18
1.3220537e-18
1.2719774e-18
1.2248669e-18
1.1804605e-18
1.1385276e-18
1.0988635e-18
1.0612862e-18
1.025634e-18
9.9176385e-19
9.5954702e-19
9.2886583e-19
8.9961508e-19
8.717008e-19
8.4503904e-19
8.1955364e-19
7.9517728e-19
7.718538e-19
7.4953056e-19
7.2816171e-19
7.0770855e-19
6.8813787e-19
6.6942222e-19
6.5153995e-19
6.3447833e-19
6.1823884e-19
6.0282879e-19
5.8826079e-19
5.7458053e-19
5.6181276e-19
5.499978e-19
5.3920928e-19
5.2953377e-19
5.2108599e-19
5.1420286e-19
5.0834646e-19
5.0569074e-19
5.0443477e-19
5.0627625e-19
5.1120501e-19
5.1982249e-19
5.3267188e-19
5.5026695e-19
5.7263614e-19
5.9980508e-19
6.3192221e-19
6.6774464e-19
7.0409854e-19
7.3852199e-19
7.6646122e-19
7.8950994e-19
8.066413e-19
8.1929039e-19
8.2849264e-19
8.3503888e-19
8.3952204e-19
8.4226026e-19
8.4349688e-19
8.4341678e-19
8.4200687e-19
8.3929678e-19
8.3546627e-19
8.3067166e-19
8.251087e-19
8.1899718e-19
8.1246971e-19
8.0565736e-19
7.9871682e-19
7.9173945e-19
7.8475829e-19
7.7782067e-19
7.7099622e-19
7.6430515e-19
7.5773869e-19
7.5128535e-19
7.4495132e-19
7.3872956e-19
7.3263965e-19
7.2640496e-19
7.2047791e-19
7.131663e-19
7.0724939e-19
6.9868745e-19
1.9700437e-07
1.966463e-07
1.9666889e-07
1.9672855e-07
1.9676077e-07
1.9677553e-07
1.9678314e-07
1.9678798e-07
1.9679167e-07
1.9679488e-07
1.9679796e-07
1.9680119e-07
1.9680482e-07
1.9680913e-07
1.9681449e-07
1.9682139e-07
1.968308e-07
1.9684313e-07
1.9686505e-07
1.9687802e-07
1.9701877e-07
1.9660519e-07
1.9810762e-07
3.1404261e-09
2.5438731e-16
3.6915568e-17
1.866533e-17
1.2573893e-17
9.600284e-18
7.7918131e-18
6.5694892e-18
5.6769767e-18
4.9957158e-18
4.4586813e-18
4.0234199e-18
3.6630049e-18
3.3594653e-18
3.1002093e-18
2.8761175e-18
2.6804035e-18
2.5079912e-18
2.3547638e-18
2.2178012e-18
2.0945407e-18
1.9830132e-18
1.8815968e-18
1.7889525e-18
1.7039706e-18
1.6257213e-18
1.5534226e-18
1.4864072e-18
1.4241027e-18
1.3660216e-18
1.3117464e-18
1.2609125e-18
1.2131927e-18
1.1683022e-18
1.1259913e-18
1.0860407e-18
1.0482554e-18
1.0124621e-18
9.7850688e-19
9.4625379e-19
9.1557969e-19
8.8637057e-19
8.5852631e-19
8.3195569e-19
8.065743e-19
7.8230153e-19
7.5908007e-19
7.3691348e-19
7.1572949e-19
6.9546801e-19
6.7609438e-19
6.5757831e-19
6.398962e-19
6.2303006e-19
6.069671e-19
5.9169995e-19
5.7718967e-19
5.6337436e-19
5.5069414e-19
5.3902033e-19
5.2834622e-19
5.1876293e-19
5.103771e-19
5.0332104e-19
4.9790322e-19
4.9337534e-19
4.9099207e-19
4.91948e-19
4.9661984e-19
5.0489943e-19
5.1748171e-19
5.3499031e-19
5.5795257e-19
5.8627124e-19
6.1964934e-19
6.5746801e-19
6.9731004e-19
7.3529032e-19
7.6958851e-19
7.9665887e-19
8.1913915e-19
8.3613668e-19
8.4919171e-19
8.5929027e-19
8.6708302e-19
8.7295817e-19
8.7706009e-19
8.7954171e-19
8.8052977e-19
8.7997573e-19
8.7787905e-19
8.7441617e-19
8.6978341e-19
8.6422153e-19
8.5798757e-19
8.5125007e-19
8.4416698e-19
8.3691098e-19
8.2958757e-19
8.222434e-19
8.1493379e-19
8.0773091e-19
8.0065892e-19
7.9371396e-19
7.8688765e-19
7.8018662e-19
7.7360621e-19
7.6715888e-19
7.6059913e-19
7.5431203e-19
7.467711e-19
7.405328e-19
7.3149368e-19
1.9699774e-07
1.9663801e-07
1.9666063e-07
1.9672053e-07
1.9675287e-07
1.9676769e-07
1.9677533e-07
1.9678019e-07
1.9678389e-07
1.9678711e-07
1.9679021e-07
1.9679345e-07
1.9679709e-07
1.9680141e-07
1.9680679e-07
1.9681371e-07
1.9682315e-07
1.9683551e-07
1.9685749e-07
1.9687047e-07
1.9701167e-07
1.965967e-07
1.9810405e-07
3.1971418e-09
2.9378493e-16
3.565019e-17
1.8023854e-17
1.214156e-17
9.2707561e-18
7.5249946e-18
6.3450086e-18
5.4833619e-18
4.8256449e-18
4.3071685e-18
3.8869539e-18
3.5390104e-18
3.2459906e-18
2.9957356e-18
2.7794377e-18
2.5905441e-18
2.4241475e-18
2.2762709e-18
2.1440971e-18
2.0251544e-18
1.9175432e-18
1.8196982e-18
1.7303161e-18
1.6483267e-18
1.5728326e-18
1.5030747e-18
1.4384002e-18
1.3782544e-18
1.3221862e-18
1.2698437e-18
1.2208998e-18
1.1749922e-18
1.1318276e-18
1.0911663e-18
1.0527982e-18
1.0165372e-18
9.8221766e-19
9.4969318e-19
9.1883443e-19
8.8952067e-19
8.6162872e-19
8.350633e-19
8.0972492e-19
7.8550156e-19
7.6225872e-19
7.3998974e-19
7.1910211e-19
6.9937105e-19
6.806229e-19
6.6284085e-19
6.4600615e-19
6.3011492e-19
6.1516975e-19
6.0115502e-19
5.8800286e-19
5.7535175e-19
5.6261832e-19
5.5303194e-19
5.4540068e-19
5.3940345e-19
5.3528193e-19
5.3331625e-19
5.3380219e-19
5.3693892e-19
5.4024338e-19
5.3887785e-19
5.5524328e-19
5.8076258e-19
6.1468281e-19
6.58688e-19
7.1441615e-19
7.8318951e-19
8.6508896e-19
9.596445e-19
1.0644707e-18
1.1723217e-18
1.2734507e-18
1.3619112e-18
1.4331497e-18
1.4913381e-18
1.5373391e-18
1.5745681e-18
1.6052659e-18
1.6307982e-18
1.6517447e-18
1.6683375e-18
1.6809358e-18
1.6897027e-18
1.6944664e-18
1.6950778e-18
1.6918205e-18
1.6852849e-18
1.6761642e-18
1.6651261e-18
1.6526841e-18
1.6392747e-18
1.6252868e-18
1.6109866e-18
1.5965406e-18
1.582092e-18
1.5677761e-18
1.5536588e-18
1.5397657e-18
1.526104e-18
1.5126872e-18
1.4995233e-18
1.4865859e-18
1.4736775e-18
1.4609858e-18
1.4470983e-18
1.4347415e-18
1.4167612e-18
1.9698815e-07
1.9662601e-07
1.9664866e-07
1.9670892e-07
1.9674144e-07
1.9675634e-07
1.9676402e-07
1.9676891e-07
1.9677263e-07
1.9677587e-07
1.9677898e-07
1.9678224e-07
1.9678589e-07
1.9679023e-07
1.9679564e-07
1.9680258e-07
1.9681206e-07
1.9682447e-07
1.9684654e-07
1.9685954e-07
1.9700137e-07
1.9658441e-07
1.9809865e-07
3.2560007e-09
4.2065443e-16
3.4863171e-17
1.7618806e-17
1.1867864e-17
9.0642586e-18
7.3601708e-18
6.2081478e-18
5.3667089e-18
4.7243454e-18
4.2179635e-18
3.807574e-18
3.4678179e-18
3.1817621e-18
2.9375241e-18
2.7264858e-18
2.5422441e-18
2.3799775e-18
2.2357908e-18
2.1069406e-18
1.9910242e-18
1.8861925e-18
1.7909196e-18
1.7038868e-18
1.6240543e-18
1.5505472e-18
1.4826057e-18
1.4195558e-18
1.360847e-18
1.3061214e-18
1.2552526e-18
1.2080288e-18
1.163898e-18
1.1224966e-18
1.0835961e-18
1.046999e-18
1.0125317e-18
9.8004091e-19
9.4939239e-19
9.2046875e-19
8.9314422e-19
8.672423e-19
8.4267564e-19
8.1929821e-19
7.9686952e-19
7.750144e-19
7.539329e-19
7.3575473e-19
7.196018e-19
7.0480911e-19
6.9143229e-19
6.7949807e-19
6.6908305e-19
6.6027375e-19
6.5304922e-19
6.4703892e-19
6.4039208e-19
6.301263e-19
6.3199765e-19
6.4010421e-19
6.5272473e-19
6.7081893e-19
6.9558172e-19
7.2848979e-19
7.7096248e-19
8.2099806e-19
8.6998408e-19
9.5823838e-19
1.0744729e-18
1.2206615e-18
1.4029392e-18
1.6274923e-18
1.8993261e-18
2.2193974e-18
2.5868051e-18
2.9921137e-18
3.407548e-18
3.7973962e-18
4.1361427e-18
4.4126622e-18
4.6370307e-18
4.817562e-18
4.9661957e-18
5.0910259e-18
5.1969071e-18
5.2855877e-18
5.3579347e-18
5.4153835e-18
5.458357e-18
5.4861615e-18
5.4980091e-18
5.4947026e-18
5.4786057e-18
5.452449e-18
5.4187614e-18
5.3796067e-18
5.3366793e-18
5.2913573e-18
5.2446368e-18
5.1972197e-18
5.1496476e-18
5.1023508e-18
5.0555828e-18
5.009498e-18
4.9641682e-18
4.9196391e-18
4.875973e-18
4.832977e-18
4.7905955e-18
4.7482611e-18
4.7046413e-18
4.663903e-18
4.6044686e-18
1.9697532e-07
1.9660996e-07
1.9663266e-07
1.9669339e-07
1.9672616e-07
1.9674116e-07
1.967489e-07
1.9675382e-07
1.9675757e-07
1.9676083e-07
1.9676396e-07
1.9676724e-07
1.9677092e-07
1.9677529e-07
1.9678072e-07
1.9678771e-07
1.9679724e-07
1.9680971e-07
1.968319e-07
1.9684491e-07
1.9698759e-07
1.9656796e-07
1.9809143e-07
3.3173581e-09
7.4138602e-16
3.4811027e-17
1.7569241e-17
1.1831769e-17
9.0448531e-18
7.3535623e-18
6.2095186e-18
5.3732137e-18
4.7345325e-18
4.2310213e-18
3.8230295e-18
3.4854246e-18
3.2014035e-18
2.9591275e-18
2.7499774e-18
2.5675755e-18
2.4070339e-18
2.2644443e-18
2.1371046e-18
2.022663e-18
1.9193007e-18
1.8255095e-18
1.7398311e-18
1.6612478e-18
1.5888938e-18
1.521954e-18
1.4596389e-18
1.4013715e-18
1.347064e-18
1.2972958e-18
1.2522104e-18
1.2106169e-18
1.1719019e-18
1.1358557e-18
1.1023075e-18
1.0711112e-18
1.0421415e-18
1.015293e-18
9.9047776e-19
9.6754219e-19
9.4611921e-19
9.2613538e-19
9.0726843e-19
8.8881455e-19
8.6954339e-19
8.5034257e-19
8.3925692e-19
8.3318784e-19
8.2976526e-19
8.2928e-19
8.3203267e-19
8.3843501e-19
8.4897088e-19
8.6404917e-19
8.8363936e-19
9.0548276e-19
9.2525972e-19
9.6768567e-19
1.025359e-18
1.0970702e-18
1.1861366e-18
1.2967653e-18
1.4343532e-18
1.6045522e-18
1.8079669e-18
2.0278532e-18
2.3535756e-18
2.7689668e-18
3.2857799e-18
3.9249352e-18
4.707753e-18
5.6516219e-18
6.7607107e-18
8.0334106e-18
9.4383916e-18
1.0881681e-17
1.2242073e-17
1.3426684e-17
1.4399654e-17
1.5188046e-17
1.5824855e-17
1.6350403e-17
1.6792589e-17
1.7168334e-17
1.7483774e-17
1.7742332e-17
1.7949309e-17
1.8106144e-17
1.8210458e-17
1.825936e-17
1.8255409e-17
1.8206891e-17
1.8123343e-17
1.8013513e-17
1.7884642e-17
1.7742627e-17
1.7592157e-17
1.7436669e-17
1.7278651e-17
1.7119976e-17
1.6962065e-17
1.6805798e-17
1.6651758e-17
1.6500229e-17
1.6351366e-17
1.6205409e-17
1.6061616e-17
1.5920367e-17
1.5778641e-17
1.5635154e-17
1.5499221e-17
1.5300755e-17
1.9695894e-07
1.9658942e-07
1.9661218e-07
1.9667353e-07
1.9670661e-07
1.9672175e-07
1.9672956e-07
1.9673452e-07
1.9673831e-07
1.967416e-07
1.9674476e-07
1.9674806e-07
1.9675177e-07
1.9675617e-07
1.9676165e-07
1.9676869e-07
1.9677829e-07
1.9679084e-07
1.9681318e-07
1.968262e-07
1.9696997e-07
1.9654693e-07
1.9808241e-07
3.3818849e-09
1.4303225e-15
3.6280496e-17
1.8248553e-17
1.2281974e-17
9.4111319e-18
7.6760814e-18
6.5005895e-18
5.6393982e-18
4.9810599e-18
4.4619608e-18
4.0415304e-18
3.6940868e-18
3.4023982e-18
3.1541953e-18
2.9404544e-18
2.7545689e-18
2.5912449e-18
2.4463575e-18
2.3171905e-18
2.2014206e-18
2.0972255e-18
2.0030747e-18
1.9170436e-18
1.8381203e-18
1.7654218e-18
1.6979283e-18
1.6344853e-18
1.574413e-18
1.5183871e-18
1.4690301e-18
1.4275247e-18
1.3908035e-18
1.3575009e-18
1.327448e-18
1.3005404e-18
1.2767029e-18
1.2558844e-18
1.2380598e-18
1.2232266e-18
1.2113336e-18
1.2018635e-18
1.1948099e-18
1.189933e-18
1.1864369e-18
1.1826934e-18
1.1800515e-18
1.190551e-18
1.2102917e-18
1.2362914e-18
1.2694934e-18
1.310956e-18
1.3620187e-18
1.4242731e-18
1.4993596e-18
1.5883402e-18
1.6884069e-18
1.7926801e-18
1.946934e-18
2.1408784e-18
2.3753468e-18
2.660212e-18
3.0080745e-18
3.4353246e-18
3.9598231e-18
4.5917179e-18
5.3000797e-18
6.2901819e-18
7.5407822e-18
9.0926266e-18
1.1008035e-17
1.3350768e-17
1.6173176e-17
1.9489033e-17
2.329615e-17
2.7504682e-17
3.183894e-17
3.5939762e-17
3.9520998e-17
4.247248e-17
4.4863543e-17
4.6796493e-17
4.8391212e-17
4.9731711e-17
5.0869575e-17
5.1824159e-17
5.260687e-17
5.3234402e-17
5.37113e-17
5.4030557e-17
5.4183414e-17
5.4177389e-17
5.4037423e-17
5.3792193e-17
5.3467948e-17
5.3086484e-17
5.2665514e-17
5.221905e-17
5.1757393e-17
5.1288052e-17
5.0816645e-17
5.0347384e-17
4.9882912e-17
4.9425011e-17
4.8974566e-17
4.8532035e-17
4.8098163e-17
4.767066e-17
4.7251113e-17
4.6829636e-17
4.6404959e-17
4.6001073e-17
4.5411267e-17
1.9693861e-07
1.965639e-07
1.9658673e-07
1.9664884e-07
1.9668231e-07
1.9669763e-07
1.9670552e-07
1.9671054e-07
1.9671437e-07
1.967177e-07
1.9672089e-07
1.9672423e-07
1.9672798e-07
1.9673242e-07
1.9673795e-07
1.9674505e-07
1.9675473e-07
1.9676738e-07
1.967899e-07
1.9680295e-07
1.9694807e-07
1.9652078e-07
1.9807166e-07
3.450451e-09
2.7883014e-15
4.1059936e-17
2.0510072e-17
1.3787372e-17
1.0615804e-17
8.7154977e-18
7.4235691e-18
6.4725876e-18
5.7440911e-18
5.1695099e-18
4.7046842e-18
4.3217276e-18
4.001773e-18
3.7310651e-18
3.4992634e-18
3.2989645e-18
3.1237049e-18
2.9686981e-18
2.8311099e-18
2.7086196e-18
2.5993499e-18
2.501681e-18
2.4133794e-18
2.3333805e-18
2.2607121e-18
2.1942647e-18
2.1323508e-18
2.0740039e-18
2.0203598e-18
1.9753772e-18
1.9410316e-18
1.9132885e-18
1.8904415e-18
1.8724445e-18
1.8593427e-18
1.8512234e-18
1.8482086e-18
1.8504622e-18
1.8581851e-18
1.8715846e-18
1.8897958e-18
1.9129874e-18
1.941181e-18
1.9734897e-18
2.0075585e-18
2.0458366e-18
2.1088998e-18
2.1913074e-18
2.2889951e-18
2.4045244e-18
2.5408476e-18
2.7016221e-18
2.8912188e-18
3.1144363e-18
3.3753628e-18
3.6709746e-18
3.9902428e-18
4.423862e-18
4.9569668e-18
5.5967438e-18
6.3694512e-18
7.3087073e-18
8.4585565e-18
9.868184e-18
1.1575961e-17
1.3531041e-17
1.6190101e-17
1.9535166e-17
2.3682864e-17
2.8799512e-17
3.5055601e-17
4.2591849e-17
5.1447294e-17
6.1620854e-17
7.2880721e-17
8.450132e-17
9.552836e-17
1.0518168e-16
1.131555e-16
1.1961549e-16
1.2483861e-16
1.2914472e-16
1.3275996e-16
1.3582461e-16
1.3839289e-16
1.4049778e-16
1.4218562e-16
1.4346925e-16
1.4433018e-16
1.4474495e-16
1.4473358e-16
1.4436301e-16
1.4371016e-16
1.4284538e-16
1.4182714e-16
1.4070296e-16
1.3951034e-16
1.3827688e-16
1.3702274e-16
1.3576299e-16
1.3450887e-16
1.3326747e-16
1.3204359e-16
1.3083962e-16
1.2965681e-16
1.2849715e-16
1.2735446e-16
1.2623336e-16
1.2510668e-16
1.2397312e-16
1.2289376e-16
1.2131744e-16
1.9691387e-07
1.9653277e-07
1.9655569e-07
1.9661873e-07
1.9665269e-07
1.9666822e-07
1.9667622e-07
1.9668131e-07
1.9668519e-07
1.9668856e-07
1.9669179e-07
1.9669517e-07
1.9669897e-07
1.9670346e-07
1.9670905e-07
1.9671623e-07
1.9672601e-07
1.9673878e-07
1.9676153e-07
1.9677459e-07
1.9692136e-07
1.9648887e-07
1.9805933e-07
3.5241067e-09
5.3265948e-15
5.3258596e-17
2.6277332e-17
1.762652e-17
1.368931e-17
1.1372312e-17
9.7891041e-18
8.6137654e-18
7.7093522e-18
6.9942173e-18
6.4148538e-18
5.9379059e-18
5.5407917e-18
5.2066901e-18
4.9226617e-18
4.6796841e-18
4.468552e-18
4.2827887e-18
4.1191464e-18
3.9751858e-18
3.848807e-18
3.7381081e-18
3.6401506e-18
3.5536947e-18
3.4775329e-18
3.4103608e-18
3.3492888e-18
3.2926855e-18
3.2426024e-18
3.2056781e-18
3.1854777e-18
3.1760693e-18
3.1750967e-18
3.1827886e-18
3.1995244e-18
3.2257572e-18
3.2620006e-18
3.308848e-18
3.3669652e-18
3.4371767e-18
3.5178723e-18
3.6096474e-18
3.7132455e-18
3.827837e-18
3.9498887e-18
4.0842953e-18
4.2687186e-18
4.4950478e-18
4.7575701e-18
5.0625929e-18
5.4174794e-18
5.8312786e-18
6.3148518e-18
6.8804907e-18
7.5398654e-18
8.291554e-18
9.118948e-18
1.0203129e-17
1.1523473e-17
1.3104225e-17
1.5009759e-17
1.7322653e-17
2.0151597e-17
2.3620077e-17
2.783997e-17
3.2741772e-17
3.9298409e-17
4.7528093e-17
5.7730105e-17
7.0313594e-17
8.5698504e-17
1.0423284e-16
1.260167e-16
1.5105611e-16
1.7879673e-16
2.0747417e-16
2.347492e-16
2.5867298e-16
2.7846723e-16
2.9450482e-16
3.0747169e-16
3.1815473e-16
3.2711415e-16
3.3470009e-16
3.4105117e-16
3.4625346e-16
3.5042432e-16
3.5359681e-16
3.5572595e-16
3.5675393e-16
3.5673015e-16
3.558198e-16
3.5421275e-16
3.520826e-16
3.4957372e-16
3.4680334e-16
3.4386397e-16
3.408237e-16
3.3773236e-16
3.3462709e-16
3.3153559e-16
3.2847538e-16
3.2545833e-16
3.2249037e-16
3.1957452e-16
3.1671577e-16
3.1389882e-16
3.1113535e-16
3.0835779e-16
3.0556465e-16
3.0290398e-16
2.990182e-16
1.9688419e-07
1.9649533e-07
1.9651835e-07
1.9658253e-07
1.9661707e-07
1.9663287e-07
1.96641e-07
1.9664617e-07
1.9665011e-07
1.9665353e-07
1.9665682e-07
1.9666025e-07
1.9666409e-07
1.9666865e-07
1.9667432e-07
1.9668158e-07
1.9669148e-07
1.967044e-07
1.9672742e-07
1.967405e-07
1.9688925e-07
1.9645048e-07
1.9804567e-07
3.6041027e-09
9.9062965e-15
8.1343839e-17
3.9603755e-17
2.6503697e-17
2.077907e-17
1.7482693e-17
1.5216795e-17
1.3517567e-17
1.2203095e-17
1.1160534e-17
1.0314286e-17
9.618018e-18
9.0403842e-18
8.5574525e-18
8.1503322e-18
7.806255e-18
7.5098399e-18
7.2507534e-18
7.0247293e-18
6.8289691e-18
6.6608109e-18
6.5176748e-18
6.3951623e-18
6.2916087e-18
6.2052781e-18
6.134503e-18
6.0738355e-18
6.0202043e-18
5.9774242e-18
5.9572861e-18
5.9664187e-18
5.995371e-18
6.0406363e-18
6.1030438e-18
6.1836994e-18
6.283853e-18
6.4048728e-18
6.5482931e-18
6.7157995e-18
6.9096174e-18
7.1266083e-18
7.3683494e-18
7.6373892e-18
7.9335088e-18
8.2514841e-18
8.6014116e-18
9.053785e-18
9.5962456e-18
1.0220996e-17
1.0942599e-17
1.1778187e-17
1.274874e-17
1.387952e-17
1.5199654e-17
1.6738539e-17
1.850199e-17
2.04682e-17
2.299335e-17
2.6052721e-17
2.9712305e-17
3.4120789e-17
3.9469168e-17
4.6009685e-17
5.4032688e-17
6.38264e-17
7.5328378e-17
9.0533554e-17
1.0959029e-16
1.3321263e-16
1.6234849e-16
1.9797169e-16
2.4089186e-16
2.9134814e-16
3.4937035e-16
4.1370408e-16
4.8030067e-16
5.4375639e-16
5.9950299e-16
6.4568631e-16
6.8310788e-16
7.1336289e-16
7.3827475e-16
7.5914851e-16
7.7680495e-16
7.9157506e-16
8.0366744e-16
8.1336017e-16
8.2073275e-16
8.2568185e-16
8.2807355e-16
8.2802253e-16
8.2591251e-16
8.2218443e-16
8.1724145e-16
8.1141885e-16
8.0498891e-16
7.9816643e-16
7.9110954e-16
7.8393394e-16
7.7672593e-16
7.6954979e-16
7.6244619e-16
7.5544274e-16
7.4855323e-16
7.4178468e-16
7.3514867e-16
7.2860964e-16
7.2219501e-16
7.1574732e-16
7.0926478e-16
7.0308866e-16
6.9406868e-16
1.9684898e-07
1.9645078e-07
1.9647392e-07
1.9653947e-07
1.9657472e-07
1.9659082e-07
1.9659911e-07
1.9660438e-07
1.966084e-07
1.9661188e-07
1.9661522e-07
1.9661872e-07
1.9662262e-07
1.9662725e-07
1.9663301e-07
1.9664038e-07
1.9665043e-07
1.9666352e-07
1.9668686e-07
1.9669995e-07
1.9685107e-07
1.9640476e-07
1.980311e-07
3.6919333e-09
1.7969207e-14
1.4181547e-16
6.8337003e-17
4.5648905e-17
3.605773e-17
3.06386e-17
2.6894717e-17
2.4062784e-17
2.1862249e-17
2.0112233e-17
1.8689121e-17
1.7518367e-17
1.6549646e-17
1.5743751e-17
1.5069088e-17
1.4504863e-17
1.4022512e-17
1.3603421e-17
1.3241078e-17
1.2931844e-17
1.2671809e-17
1.2456914e-17
1.2279871e-17
1.2138087e-17
1.2028716e-17
1.1949466e-17
1.1889631e-17
1.1843141e-17
1.1817127e-17
1.1833016e-17
1.1903187e-17
1.2011899e-17
1.2153711e-17
1.2330729e-17
1.2545594e-17
1.2801243e-17
1.3100854e-17
1.3447956e-17
1.3846402e-17
1.4301475e-17
1.4806987e-17
1.536668e-17
1.5987316e-17
1.6670826e-17
1.7409967e-17
1.8225564e-17
1.9249523e-17
2.0463328e-17
2.1857454e-17
2.3464023e-17
2.5321034e-17
2.7474928e-17
2.9981762e-17
3.2907041e-17
3.6319618e-17
4.0247131e-17
4.4669015e-17
5.0272039e-17
5.7037761e-17
6.5128138e-17
7.4871736e-17
8.669105e-17
1.0114553e-16
1.1888581e-16
1.4060008e-16
1.6632436e-16
2.0002675e-16
2.4221991e-16
2.9452126e-16
3.5903091e-16
4.3790796e-16
5.3295223e-16
6.4470664e-16
7.7326551e-16
9.1590437e-16
1.0637251e-15
1.2047845e-15
1.3288665e-15
1.4317685e-15
1.5151547e-15
1.5825681e-15
1.6380492e-15
1.6845025e-15
1.7237638e-15
1.7565846e-15
1.7834435e-15
1.8049679e-15
1.8213392e-15
1.8323301e-15
1.8376441e-15
1.8375357e-15
1.8328568e-15
1.8245861e-15
1.8136185e-15
1.8006983e-15
1.7864299e-15
1.77129e-15
1.7556297e-15
1.7397057e-15
1.7237097e-15
1.7077843e-15
1.6920198e-15
1.6764774e-15
1.6611879e-15
1.6461669e-15
1.6314399e-15
1.6169282e-15
1.6026927e-15
1.5883836e-15
1.5739983e-15
1.560292e-15
1.5402745e-15
1.9680759e-07
1.9639822e-07
1.9642148e-07
1.9648867e-07
1.9652476e-07
1.9654123e-07
1.965497e-07
1.965551e-07
1.965592e-07
1.9656276e-07
1.9656618e-07
1.9656974e-07
1.9657372e-07
1.9657844e-07
1.965843e-07
1.965918e-07
1.9660201e-07
1.966153e-07
1.9663902e-07
1.9665213e-07
1.9680603e-07
1.9635075e-07
1.9801626e-07
3.7893981e-09
3.1920203e-14
2.6729944e-16
1.2799865e-16
8.5406886e-17
6.7779586e-17
5.7946759e-17
5.1131574e-17
4.5947029e-17
4.1906519e-17
3.8687293e-17
3.6065715e-17
3.3908514e-17
3.2125983e-17
3.0647391e-17
2.9415004e-17
2.83915e-17
2.752107e-17
2.6767926e-17
2.6120846e-17
2.5574394e-17
2.5122044e-17
2.4756652e-17
2.4465362e-17
2.4243639e-17
2.4086395e-17
2.3990318e-17
2.3934142e-17
2.390571e-17
2.3918284e-17
2.4010975e-17
2.4206775e-17
2.4478989e-17
2.481906e-17
2.5231753e-17
2.5722879e-17
2.6298857e-17
2.696661e-17
2.7733797e-17
2.860876e-17
2.9603252e-17
3.070512e-17
3.1922725e-17
3.3272211e-17
3.4761414e-17
3.6381634e-17
3.8175337e-17
4.0387195e-17
4.2990926e-17
4.597806e-17
4.9417113e-17
5.3389472e-17
5.7994479e-17
6.33523e-17
6.9604779e-17
7.6905548e-17
8.53385e-17
9.490673e-17
1.0691017e-16
1.2136921e-16
1.3865694e-16
1.5947558e-16
1.8472889e-16
2.156161e-16
2.5354371e-16
3.0007132e-16
3.555824e-16
4.2778906e-16
5.1810929e-16
6.3006882e-16
7.6816615e-16
9.3702889e-16
1.1405232e-15
1.3798355e-15
1.6552178e-15
1.9609323e-15
2.2780482e-15
2.5810345e-15
2.8478405e-15
3.0692926e-15
3.2487572e-15
3.3938379e-15
3.5131908e-15
3.6130608e-15
3.6974115e-15
3.7678844e-15
3.825535e-15
3.8717271e-15
3.9068583e-15
3.9304453e-15
3.9418526e-15
3.9416269e-15
3.9315955e-15
3.9138582e-15
3.8903349e-15
3.8626224e-15
3.8320172e-15
3.7995422e-15
3.7659503e-15
3.7317928e-15
3.6974805e-15
3.6633195e-15
3.6295035e-15
3.596164e-15
3.5633668e-15
3.5311453e-15
3.4995548e-15
3.4684257e-15
3.4378896e-15
3.4071951e-15
3.3763385e-15
3.3469374e-15
3.303998e-15
1.9675929e-07
1.9633662e-07
1.9636003e-07
1.9642916e-07
1.9646624e-07
1.9648315e-07
1.9649185e-07
1.9649738e-07
1.9650159e-07
1.9650524e-07
1.9650874e-07
1.9651239e-07
1.9651646e-07
1.9652128e-07
1.9652726e-07
1.9653491e-07
1.9654532e-07
1.9655884e-07
1.96583e-07
1.9659611e-07
1.9675328e-07
1.9628736e-07
1.9800202e-07
3.8986839e-09
5.576103e-14
5.2167287e-16
2.4898594e-16
1.6603767e-16
1.3211263e-16
1.1332971e-16
1.0028862e-16
9.0335939e-17
8.2566475e-17
7.6369297e-17
7.1317656e-17
6.7159178e-17
6.3724492e-17
6.0879316e-17
5.8513355e-17
5.655604e-17
5.4896436e-17
5.3463928e-17
5.2237708e-17
5.1208659e-17
5.0364926e-17
4.969311e-17
4.9169781e-17
4.878647e-17
4.8533636e-17
4.8406387e-17
4.8362591e-17
4.8377947e-17
4.8476917e-17
4.8730657e-17
4.9181504e-17
4.9784089e-17
5.0525049e-17
5.1414573e-17
5.2464898e-17
5.3689512e-17
5.5102936e-17
5.6721216e-17
5.8561823e-17
6.0649889e-17
6.2961744e-17
6.5515361e-17
6.8347053e-17
7.1479159e-17
7.4904637e-17
7.8708922e-17
8.3341116e-17
8.8767713e-17
9.4990284e-17
1.0215131e-16
1.1042059e-16
1.2000523e-16
1.3115615e-16
1.4417197e-16
1.5938375e-16
1.7700851e-16
1.9713337e-16
2.2218162e-16
2.522967e-16
2.8830165e-16
3.3165959e-16
3.8425484e-16
4.4859216e-16
5.276299e-16
6.2477133e-16
7.4135086e-16
8.9209957e-16
1.0805328e-15
1.314116e-15
1.6022402e-15
1.9545705e-15
2.3791975e-15
2.8786391e-15
3.4535092e-15
4.0920038e-15
4.7548331e-15
5.3887914e-15
5.9475529e-15
6.4116623e-15
6.7877981e-15
7.091856e-15
7.3419087e-15
7.551034e-15
7.7275612e-15
7.8749744e-15
7.9955288e-15
8.0921067e-15
8.1655552e-15
8.21487e-15
8.2387259e-15
8.2382651e-15
8.2173074e-15
8.180242e-15
8.1310818e-15
8.0731646e-15
8.0092005e-15
7.9413277e-15
7.8711199e-15
7.7997293e-15
7.728015e-15
7.6566166e-15
7.5859389e-15
7.5162571e-15
7.4477085e-15
7.3803632e-15
7.3143365e-15
7.2492743e-15
7.1854516e-15
7.1212974e-15
7.0568056e-15
6.995355e-15
6.9056081e-15
1.9670329e-07
1.9626483e-07
1.9628841e-07
1.9635983e-07
1.9639809e-07
1.9641552e-07
1.9642449e-07
1.9643019e-07
1.9643452e-07
1.9643828e-07
1.9644187e-07
1.9644562e-07
1.964498e-07
1.9645473e-07
1.9646085e-07
1.9646868e-07
1.9647931e-07
1.964931e-07
1.9651776e-07
1.9653087e-07
1.9669186e-07
1.9621334e-07
1.9798957e-07
4.0224724e-09
9.6142428e-14
1.0290913e-15
4.9039893e-16
3.2693411e-16
2.6049723e-16
2.2386559e-16
1.9841114e-16
1.789522e-16
1.6374825e-16
1.51613e-16
1.4171421e-16
1.33562e-16
1.2682849e-16
1.2125333e-16
1.1662209e-16
1.1279837e-16
1.0956138e-16
1.0677099e-16
1.0438722e-16
1.0239359e-16
1.007676e-16
9.9483383e-17
9.8497642e-17
9.7794039e-17
9.7354339e-17
9.717134e-17
9.7162136e-17
9.7278516e-17
9.7565229e-17
9.8150978e-17
9.9113109e-17
1.0037495e-16
1.0191611e-16
1.0375768e-16
1.0592474e-16
1.0844492e-16
1.1134793e-16
1.1466662e-16
1.1843674e-16
1.227106e-16
1.2744251e-16
1.3267007e-16
1.3847186e-16
1.4490348e-16
1.5196908e-16
1.5983837e-16
1.6932778e-16
1.8040398e-16
1.9310198e-16
2.0771236e-16
2.2458241e-16
2.4413535e-16
2.668848e-16
2.9344603e-16
3.2451407e-16
3.6060444e-16
4.0203363e-16
4.5326545e-16
5.1476507e-16
5.8829181e-16
6.7683486e-16
7.8424629e-16
9.1565402e-16
1.0771504e-15
1.275954e-15
1.5157202e-15
1.8242301e-15
2.2096376e-15
2.6874016e-15
3.2767402e-15
3.9974424e-15
4.8660994e-15
5.8879376e-15
7.0643661e-15
8.3715327e-15
9.729437e-15
1.1029354e-14
1.2175968e-14
1.3128927e-14
1.3901288e-14
1.452562e-14
1.5038912e-14
1.5468001e-14
1.5830028e-14
1.6132223e-14
1.6379293e-14
1.6577198e-14
1.67277e-14
1.6828755e-14
1.6877649e-14
1.6876725e-14
1.6833808e-14
1.6757889e-14
1.665719e-14
1.653855e-14
1.640752e-14
1.6268482e-14
1.6124659e-14
1.5978412e-14
1.5831502e-14
1.5685238e-14
1.554045e-14
1.5397701e-14
1.5257274e-14
1.5119312e-14
1.4984051e-14
1.4850766e-14
1.472002e-14
1.4588594e-14
1.4456478e-14
1.4330591e-14
1.4146737e-14
1.9663874e-07
1.961816e-07
1.9620535e-07
1.9627949e-07
1.9631913e-07
1.9633718e-07
1.9634645e-07
1.9635234e-07
1.9635683e-07
1.9636071e-07
1.9636441e-07
1.9636827e-07
1.9637257e-07
1.9637765e-07
1.9638393e-07
1.9639196e-07
1.9640285e-07
1.9641695e-07
1.964422e-07
1.9645528e-07
1.9662071e-07
1.9612731e-07
1.9798051e-07
4.1640791e-09
1.6411383e-13
2.029537e-15
9.6651376e-16
6.4427118e-16
5.1373758e-16
4.4192969e-16
3.9201473e-16
3.5382372e-16
3.2396967e-16
3.0013146e-16
2.8067698e-16
2.6464835e-16
2.5140599e-16
2.4044214e-16
2.313384e-16
2.2382938e-16
2.1747777e-16
2.1200627e-16
2.073371e-16
2.0343922e-16
2.0026917e-16
1.977765e-16
1.9588083e-16
1.9455029e-16
1.9374981e-16
1.9346908e-16
1.9354619e-16
1.9388629e-16
1.9457067e-16
1.9583077e-16
1.9780696e-16
2.0037095e-16
2.0349279e-16
2.0721521e-16
2.115887e-16
2.1666886e-16
2.2251546e-16
2.2919457e-16
2.3677815e-16
2.4537306e-16
2.5489166e-16
2.6541111e-16
2.7709683e-16
2.9007742e-16
3.0439253e-16
3.2037562e-16
3.3949925e-16
3.6175529e-16
3.8726749e-16
4.166196e-16
4.5051097e-16
4.8979336e-16
5.3550178e-16
5.8888306e-16
6.5136751e-16
7.2411573e-16
8.080016e-16
9.111746e-16
1.0348648e-15
1.1827446e-15
1.3608285e-15
1.5768714e-15
1.8412093e-15
2.1661844e-15
2.5667776e-15
3.051946e-15
3.6736013e-15
4.4498251e-15
5.4120784e-15
6.5990873e-15
8.0507436e-15
9.8005408e-15
1.185914e-14
1.4229644e-14
1.6864521e-14
1.9603272e-14
2.2227088e-14
2.4543009e-14
2.6468793e-14
2.8029684e-14
2.9291376e-14
3.0328413e-14
3.1194998e-14
3.1925841e-14
3.2535686e-14
3.3034173e-14
3.343342e-14
3.3737028e-14
3.3940892e-14
3.4039551e-14
3.4037725e-14
3.3951198e-14
3.3798106e-14
3.3595032e-14
3.3355768e-14
3.3091514e-14
3.2811104e-14
3.2521042e-14
3.222609e-14
3.1929799e-14
3.163481e-14
3.1342796e-14
3.1054896e-14
3.0771678e-14
3.0493429e-14
3.0220629e-14
2.9951812e-14
2.9688118e-14
2.9423052e-14
2.9156597e-14
2.8902701e-14
2.8531894e-14
1.9656471e-07
1.9608548e-07
1.9610944e-07
1.9618676e-07
1.9622804e-07
1.962468e-07
1.9625644e-07
1.9626256e-07
1.9626722e-07
1.9627124e-07
1.9627508e-07
1.9627907e-07
1.9628352e-07
1.9628875e-07
1.9629522e-07
1.9630347e-07
1.9631466e-07
1.9632912e-07
1.9635503e-07
1.9636807e-07
1.9653863e-07
1.9602769e-07
1.979769e-07
4.3276357e-09
2.7803865e-13
3.9848745e-15
1.8973557e-15
1.2647254e-15
1.0089265e-15
8.6839622e-16
7.7069903e-16
6.9591515e-16
6.3744116e-16
5.9073745e-16
5.5260804e-16
5.2118099e-16
4.952089e-16
4.737026e-16
4.5584707e-16
4.4112627e-16
4.2867978e-16
4.1796201e-16
4.0882119e-16
4.0119789e-16
3.9500768e-16
3.901521e-16
3.8648187e-16
3.8393465e-16
3.8244305e-16
3.8199311e-16
3.8227085e-16
3.8309103e-16
3.8460056e-16
3.8721352e-16
3.9118351e-16