/*--------------------------------*- C++ -*----------------------------------*\
| =========                 |                                                 |
| \\      /  F ield         | OpenFOAM: The Open Source CFD Toolbox           |
|  \\    /   O peration     | Version:  2206                                  |
|   \\  /    A nd           | Website:  www.openfoam.com                      |
|    \\/     M anipulation  |                                                 |
\*---------------------------------------------------------------------------*/
FoamFile
{
    version     2.0;
    format      ascii;
    arch        "LSB;label=32;scalar=64";
    class       volScalarField;
    location    "500";
    object      omega;
}
// * * * * * * * * * * * * * * * * * * * * * * * * * * * * * * * * * * * * * //

dimensions      [0 0 -1 0 0 0 0];

internalField   nonuniform List<scalar> 
13056
(
612.28601
582.3631
579.38019
579.54709
579.6595
579.66905
579.66228
579.6582
579.65805
579.66116
579.66721
579.67621
579.68838
579.70424
579.72456
579.75075
579.78456
579.83103
579.8905
580.00647
580.03647
580.90279
583.59613
18740.612
1.1944345e+09
1.1944345e+09
1.1944345e+09
1.1944345e+09
1.1944345e+09
1.1944345e+09
1.1944345e+09
1.1944345e+09
1.1944345e+09
1.1944345e+09
1.1944345e+09
1.1944345e+09
1.1944345e+09
1.1944345e+09
1.1944345e+09
1.1944345e+09
1.1944345e+09
1.1944345e+09
1.1944345e+09
1.1944345e+09
1.1944345e+09
1.1944345e+09
1.1944345e+09
1.1944345e+09
1.1944345e+09
1.1944345e+09
1.1944345e+09
1.1944345e+09
1.1944345e+09
1.1944345e+09
1.1944345e+09
1.1944345e+09
1.1944345e+09
1.1944345e+09
1.1944345e+09
1.1944345e+09
1.1944345e+09
1.1944345e+09
1.1944345e+09
1.1944345e+09
1.1944345e+09
1.1944345e+09
1.1944345e+09
1.1944345e+09
1.1944345e+09
1.1944345e+09
1.1944345e+09
1.1944345e+09
1.1944345e+09
1.1944345e+09
1.1944345e+09
1.1944345e+09
1.1944345e+09
1.1944345e+09
1.1944345e+09
1.1944345e+09
1.1944345e+09
1.1944345e+09
1.1944345e+09
1.1944345e+09
1.1944345e+09
1.1944345e+09
1.1944345e+09
1.1944345e+09
1.1944345e+09
1.1944345e+09
1.1944345e+09
1.1944345e+09
1.1944345e+09
1.1944345e+09
1.1944345e+09
1.1944345e+09
1.1944345e+09
1.1944345e+09
1.1944345e+09
1.1944345e+09
1.1944345e+09
1.1944345e+09
1.1944345e+09
1.1944345e+09
1.1944345e+09
1.1944345e+09
1.1944345e+09
1.1944345e+09
1.1944345e+09
1.1944345e+09
1.1944345e+09
1.1944345e+09
1.1944345e+09
1.1944345e+09
1.1944345e+09
1.1944345e+09
1.1944345e+09
1.1944345e+09
1.1944345e+09
1.1944345e+09
1.1944345e+09
1.1944345e+09
1.1944345e+09
1.1944345e+09
1.1944345e+09
1.1944345e+09
1.1944345e+09
1.1944345e+09
1.1944345e+09
1.1944345e+09
1.1944345e+09
1.1944345e+09
1.1944345e+09
1.1944345e+09
1.1944345e+09
1.1944345e+09
612.23567
582.29509
579.31058
579.47747
579.58992
579.59947
579.59269
579.5886
579.58845
579.59156
579.59761
579.6066
579.61878
579.63464
579.65497
579.68117
579.715
579.76148
579.82098
579.937
579.96699
580.83357
583.52623
18451.068
1.9587142e+08
1.9626974e+08
1.9626971e+08
1.9626971e+08
1.9626972e+08
1.9626973e+08
1.9626974e+08
1.9626975e+08
1.9626976e+08
1.9626977e+08
1.9626978e+08
1.9626979e+08
1.962698e+08
1.9626981e+08
1.9626982e+08
1.9626983e+08
1.9626984e+08
1.9626986e+08
1.9626987e+08
1.9626988e+08
1.962699e+08
1.9626991e+08
1.9626993e+08
1.9626995e+08
1.9626997e+08
1.9626999e+08
1.9627002e+08
1.9627005e+08
1.9627008e+08
1.9627011e+08
1.9627014e+08
1.9627017e+08
1.962702e+08
1.9627024e+08
1.9627028e+08
1.9627032e+08
1.9627037e+08
1.9627042e+08
1.9627048e+08
1.9627054e+08
1.9627062e+08
1.962707e+08
1.9627081e+08
1.9627093e+08
1.962711e+08
1.9627129e+08
1.9627145e+08
1.9627161e+08
1.9627179e+08
1.96272e+08
1.9627224e+08
1.9627253e+08
1.9627289e+08
1.9627333e+08
1.962739e+08
1.9627477e+08
1.9627615e+08
1.9627708e+08
1.9627802e+08
1.9627915e+08
1.9628056e+08
1.9628231e+08
1.9628459e+08
1.9628775e+08
1.9629329e+08
1.9630502e+08
1.9631061e+08
1.9631633e+08
1.9632339e+08
1.9633204e+08
1.9634262e+08
1.9635556e+08
1.963715e+08
1.9639176e+08
1.9641824e+08
1.9645202e+08
1.9649132e+08
1.96529e+08
1.9656179e+08
1.9658577e+08
1.966036e+08
1.9661626e+08
1.9662491e+08
1.9663065e+08
1.9663445e+08
1.9663713e+08
1.9663921e+08
1.9664092e+08
1.9664233e+08
1.9664345e+08
1.9664429e+08
1.9664488e+08
1.9664529e+08
1.9664555e+08
1.9664571e+08
1.966458e+08
1.9664582e+08
1.966458e+08
1.9664576e+08
1.9664569e+08
1.966456e+08
1.966455e+08
1.9664538e+08
1.9664527e+08
1.9664516e+08
1.9664504e+08
1.9664492e+08
1.9664487e+08
1.9664472e+08
1.9664493e+08
1.9664485e+08
1.9664471e+08
612.07535
582.08071
579.09138
579.25823
579.37079
579.38033
579.37352
579.36942
579.36925
579.37236
579.37841
579.38741
579.39959
579.41546
579.43581
579.46204
579.4959
579.54244
579.60199
579.71816
579.74814
580.61539
583.31013
18116.497
64155048
64221538
64221491
64221484
64221506
64221542
64221578
64221612
64221644
64221672
64221697
64221718
64221734
64221748
64221762
64221776
64221791
64221807
64221824
64221843
64221864
64221887
64221925
64221979
64222050
64222147
64222278
64222448
64222635
64222775
64222828
64222856
64222886
64222920
64222957
64223000
64223049
64223104
64223168
64223257
64223401
64223607
64223929
64224477
64225443
64226735
64227219
64227344
64227489
64227662
64227916
64228289
64228843
64229800
64231691
64236368
64246740
64249546
64250401
64251550
64253177
64255681
64260097
64269832
64301056
64399176
64414865
64420858
64429454
64442191
64461779
64493229
64545457
64635510
64790013
65031575
65349493
65673376
65961154
66170591
66322026
66423568
66485917
66519970
66536065
66542861
66545583
66546701
66547240
66547555
66547760
66547898
66547991
66548051
66548086
66548106
66548112
66548107
66548096
66548081
66548062
66548038
66548013
66547987
66547961
66547936
66547908
66547895
66547862
66547909
66547891
66547860
611.80007
581.71311
578.71556
578.88236
578.9951
579.00463
578.99778
578.99365
578.99346
578.99656
579.00261
579.01161
579.0238
579.03969
579.06007
579.08634
579.12026
579.16689
579.22656
579.34297
579.37294
580.24127
582.9408
17764.658
29454115
29343370
29343202
29343176
29343274
29343432
29343592
29343744
29343885
29344011
29344117
29344200
29344262
29344310
29344352
29344395
29344442
29344494
29344551
29344615
29344687
29344770
29344925
29345158
29345479
29345931
29346560
29347382
29348292
29348953
29349158
29349225
29349296
29349377
29349470
29349579
29349706
29349857
29350038
29350327
29350884
29351746
29353182
29355760
29360468
29366826
29368961
29369181
29369445
29369772
29370421
29371567
29373507
29377344
29385776
29408293
29459822
29472021
29473693
29476238
29480409
29487976
29503854
29544953
29693100
30180054
30239692
30241715
30244617
30248916
30255410
30266139
30283758
30314124
30366187
30447493
30554326
30662962
30759319
30829345
30879926
30913817
30934618
30945976
30951343
30953609
30954517
30954890
30955069
30955174
30955243
30955289
30955320
30955340
30955352
30955358
30955360
30955358
30955355
30955350
30955343
30955335
30955327
30955318
30955310
30955301
30955292
30955288
30955277
30955292
30955286
30955276
611.40196
581.18158
578.17217
578.33888
578.45189
578.4614
578.45449
578.45031
578.45009
578.45317
578.45922
578.46822
578.48044
578.49636
578.51678
578.54311
578.57712
578.62388
578.68369
578.80047
578.83041
579.70029
582.40718
17399.587
16480919
16060197
16059667
16059586
16059915
16060440
16060979
16061487
16061962
16062385
16062736
16063009
16063210
16063361
16063491
16063626
16063772
16063933
16064112
16064313
16064542
16064806
16065317
16066099
16067178
16068707
16070841
16073640
16076742
16078981
16079649
16079836
16080036
16080265
16080531
16080844
16081215
16081660
16082202
16083102
16084918
16087771
16092584
16101314
16117354
16139052
16146190
16146707
16147335
16148135
16149978
16153461
16159564
16171604
16199137
16274730
16449736
16488286
16489002
16490093
16491881
16495123
16501927
16519531
16582926
16790549
16815881
16816741
16817974
16819801
16822560
16827118
16834603
16847500
16869602
16904093
16949366
16995349
17036089
17065670
17087022
17101323
17110097
17114887
17117150
17118106
17118488
17118646
17118721
17118766
17118794
17118814
17118827
17118835
17118840
17118843
17118844
17118843
17118842
17118840
17118837
17118833
17118830
17118826
17118823
17118819
17118815
17118813
17118809
17118815
17118813
17118808
610.87044
580.47159
577.44632
577.61292
577.72628
577.73576
577.72876
577.72453
577.72427
577.72733
577.73337
577.74239
577.75462
577.77058
577.79106
577.81747
577.85159
577.89852
577.95854
578.07579
578.1057
578.97763
581.69425
17020.253
10188721
9794984.6
9793608.2
9793396.3
9794267
9795664.3
9797100.7
9798455.9
9799721.9
9800847.1
9801777.2
9802491.9
9803008.8
9803385.9
9803704.3
9804031.7
9804390.8
9804787
9805228.7
9805729.5
9806304.4
9806971.4
9808307.7
9810378.7
9813259.4
9817361.5
9823112.4
9830678
9839066.9
9845088.5
9846807.8
9847197.5
9847608.3
9848086.7
9848649.6
9849319
9850124.4
9851105.5
9852317.4
9854470.4
9859083.8
9866476.6
9879164.7
9902475.5
9945675.5
10004248
10022863
10023151
10023462
10023859
10024773
10026499
10029525
10035494
10049139
10086569
10173007
10191986
10192339
10192876
10193757
10195355
10198708
10207382
10238599
10340569
10352967
10353388
10353993
10354888
10356240
10358473
10362141
10368458
10379281
10396163
10418306
10440779
10460673
10475109
10485525
10492498
10496775
10499110
10500213
10500679
10500866
10500942
10500979
10501001
10501015
10501024
10501031
10501035
10501037
10501038
10501039
10501039
10501038
10501037
10501035
10501034
10501032
10501030
10501029
10501027
10501025
10501024
10501022
10501025
10501024
10501022
610.19225
579.5649
576.51932
576.68578
576.79959
576.80903
576.80193
576.79761
576.79731
576.80035
576.80638
576.8154
576.82766
576.84367
576.86422
576.89074
576.92501
576.97215
577.03243
577.15029
577.18015
578.0547
580.78306
16624.307
6718422.7
6415591.3
6412499.5
6412023.7
6413995.9
6417174.1
6420452.6
6423549.4
6426439.2
6428997.4
6431093.4
6432676.7
6433785.9
6434556.2
6435178.3
6435810.2
6436507.3
6437283.7
6438157.4
6439157.3
6440316.3
6441674
6444590.2
6449218.5
6455731.7
6465097.3
6478326.6
6495813
6515210.4
6528962.3
6532468
6532742.1
6532966
6533226.8
6533533.7
6533898.6
6534337.6
6534872.4
6535533
6536707.5
6539222.5
6543252.1
6550166.5
6562864.2
6586373.4
6618188.7
6628272.5
6628428.3
6628597.3
6628812.6
6629308.8
6630245.8
6631887.8
6635126.8
6642529.7
6662824.6
6709599.2
6719837.2
6720028
6720318.5
6720794.5
6721658
6723469.5
6728155.9
6745014.5
6799969.9
6806629
6806855.7
6807180.8
6807662.5
6808390
6809591.7
6811564.7
6814963.2
6820784.2
6829860.3
6841759.1
6853827
6864504.9
6872248.9
6877834.4
6881572.9
6883865.7
6885117
6885708.2
6885957.7
6886057.6
6886098.7
6886118.5
6886130.1
6886137.6
6886142.7
6886146.1
6886148.3
6886149.6
6886150.3
6886150.5
6886150.3
6886149.9
6886149.4
6886148.7
6886147.8
6886146.9
6886145.9
6886145
6886144
6886143
6886142.5
6886141.3
6886143
6886142.4
6886141.2
609.35154
578.43964
575.36874
575.53503
575.64938
575.65878
575.65154
575.64713
575.64677
575.64977
575.65579
575.66483
575.67713
575.6932
575.71384
575.74049
575.77493
575.82234
575.88293
576.00155
576.03134
576.90917
579.65072
16209.044
4628883.8
4428607.5
4422585.6
4421662.6
4425514.4
4431761.6
4438231.1
4444336.4
4449995.3
4454927.5
4458843.8
4461620
4463319.9
4464215.3
4464698.5
4465082.6
4465488.8
4465940.3
4466448.3
4467029.8
4467703.6
4468493.1
4470191
4472882.5
4476669.3
4482112.9
4489798.7
4499949.9
4511197.4
4519157.4
4521181.2
4521339.7
4521469.4
4521620.5
4521798.3
4522009.8
4522264.1
4522574
4522956.8
4523638
4525095.5
4527430.5
4531436.7
4538791.2
4552397.5
4570780.8
4576590.9
4576680.7
4576778.3
4576902.6
4577189.3
4577730.4
4578678.7
4580549.3
4584824
4596537.9
4623490.6
4629371.3
4629481.1
4629648.3
4629922.3
4630419.3
4631462
4634159.5
4643860.7
4675430.3
4679242.5
4679372.5
4679559.1
4679835.4
4680252.9
4680942.4
4682074.3
4684024
4687362.8
4692567.3
4699387.5
4706301.3
4712416
4716848.9
4720045.3
4722184.3
4723495.8
4724211.5
4724549.6
4724692.3
4724749.5
4724773
4724784.3
4724790.9
4724795.2
4724798.1
4724800.1
4724801.3
4724802.1
4724802.5
4724802.6
4724802.5
4724802.3
4724802
4724801.6
4724801.1
4724800.5
4724800
4724799.4
4724798.9
4724798.3
4724798
4724797.3
4724798.3
4724798
4724797.3
608.32999
577.07031
573.96846
574.13454
574.24954
574.25888
574.25148
574.24695
574.24652
574.24948
574.25549
574.26454
574.27688
574.29302
574.31377
574.34058
574.37524
574.42297
574.48395
574.60347
574.63317
575.51503
578.27042
15771.77
3289636.1
3168231.7
3164539.2
3163973.8
3166315.3
3170113.5
3174045.4
3177754.2
3181190.1
3184183.1
3186558.2
3188240.7
3189270.3
3189812.4
3190105.1
3190338.2
3190584.6
3190858.6
3191167
3191519.8
3191928.8
3192407.8
3193439.9
3195073.5
3197371.8
3200674.8
3205336.4
3211489.4
3218299.3
3223110.3
3224330
3224425.6
3224504.1
3224595.6
3224703.2
3224831.1
3224985.1
3225172.6
3225404.3
3225817
3226699.2
3228112.7
3230537.4
3234987.6
3243215.5
3254315.4
3257813.2
3257867.3
3257926.2
3258001.3
3258174.4
3258501.1
3259073.5
3260202.7
3262783.1
3269851.8
3286092.3
3289624.3
3289690.4
3289791.1
3289956.1
3290255.3
3290883.2
3292507.3
3298347.5
3317324.5
3319608
3319686.1
3319798.1
3319964.1
3320214.8
3320628.9
3321308.6
3322479.4
3324484.1
3327608.3
3331701
3335848.1
3339514.6
3342171.8
3344087.3
3345368.9
3346154.7
3346583.4
3346785.9
3346871.3
3346905.6
3346919.6
3346926.4
3346930.4
3346932.9
3346934.7
3346935.9
3346936.6
3346937.1
3346937.3
3346937.4
3346937.3
3346937.2
3346937
3346936.7
3346936.4
3346936.1
3346935.8
3346935.5
3346935.1
3346934.8
3346934.6
3346934.2
3346934.8
3346934.6
3346934.2
607.10689
575.42787
572.28867
572.45449
572.57027
572.57953
572.57194
572.56726
572.56674
572.56965
572.57564
572.58471
572.5971
572.61333
572.63421
572.66121
572.69613
572.74425
572.80568
572.9263
572.95586
573.84264
576.61133
15309.998
2391084.9
2315032
2312685.1
2312326.7
2313794.2
2316175.7
2318640.2
2320964
2323115.9
2324989.3
2326475.1
2327526.9
2328170.1
2328508.7
2328691.6
2328837.4
2328991.7
2329163.2
2329356.3
2329577.2
2329833.3
2330133.2
2330780.5
2331803.7
2333242.9
2335311
2338228.7
2342077.6
2346333.1
2349334
2350092.5
2350152
2350201.1
2350258.2
2350325.4
2350405.4
2350501.5
2350618.7
2350763.4
2351021.6
2351572.9
2352456.1
2353971.2
2356751.3
2361888.8
2368809.6
2370983.9
2371017.6
2371054.3
2371101.1
2371209.1
2371412.7
2371769.7
2372473.7
2374082.6
2378488.9
2388598.9
2390790.4
2390831.6
2390894.2
2390996.8
2391183
2391573.6
2392584.2
2396217.7
2408008.6
2409422.3
2409470.8
2409540.3
2409643.4
2409799
2410056.1
2410478.2
2411205
2412449.5
2414388.5
2416927.9
2419500.1
2421773.7
2423420.8
2424608
2425402.1
2425889
2426154.5
2426280
2426332.9
2426354.1
2426362.8
2426367
2426369.5
2426371.1
2426372.1
2426372.9
2426373.3
2426373.6
2426373.8
2426373.8
2426373.8
2426373.7
2426373.6
2426373.4
2426373.2
2426373
2426372.8
2426372.6
2426372.4
2426372.2
2426372.1
2426371.8
2426372.2
2426372.1
2426371.8
605.65921
573.47976
570.29591
570.46141
570.5781
570.58728
570.57945
570.5746
570.57397
570.57682
570.5828
570.59188
570.60433
570.62066
570.6417
570.66892
570.70414
570.75272
570.81468
570.9366
570.96599
571.85871
574.63854
14821.571
1767226.3
1718370.4
1716832
1716598.3
1717538.9
1719066.5
1720647.1
1722137
1723516
1724716
1725667.1
1726340
1726751.2
1726967.5
1727084.5
1727177.9
1727276.7
1727386.6
1727510.3
1727651.9
1727816
1728008.2
1728423.8
1729079.7
1730002.2
1731327.7
1733197.2
1735661.9
1738384.3
1740300.6
1740783.5
1740821.4
1740852.8
1740889.3
1740932.3
1740983.4
1741045
1741119.9
1741212.5
1741377.8
1741730.6
1742295.7
1743265.1
1745043.7
1748328.9
1752748.3
1754132.4
1754153.9
1754177.3
1754207.2
1754276.2
1754406.2
1754634.2
1755083.9
1756111.5
1758925.3
1765373.4
1766766.5
1766792.7
1766832.6
1766898
1767016.7
1767265.8
1767910.1
1770226.8
1777735.1
1778632
1778662.9
1778707.1
1778772.7
1778871.8
1779035.4
1779304
1779766.5
1780558.4
1781792.1
1783407.4
1785043
1786488.4
1787535.2
1788289.6
1788794.2
1789103.4
1789272.1
1789351.7
1789385.4
1789398.8
1789404.4
1789407
1789408.6
1789409.6
1789410.3
1789410.8
1789411
1789411.2
1789411.3
1789411.3
1789411.3
1789411.3
1789411.2
1789411.1
1789411
1789410.8
1789410.7
1789410.6
1789410.5
1789410.3
1789410.3
1789410.1
1789410.3
1789410.2
1789410.1
603.9617
571.18984
567.95307
568.11819
568.23594
568.245
568.23689
568.23184
568.23107
568.23386
568.23981
568.24892
568.26143
568.27789
568.2991
568.32658
568.36216
568.41127
568.47386
568.5973
568.62644
569.52631
572.3129
14304.776
1322684.6
1290668.9
1289629.9
1289473.4
1290086.2
1291083
1292114.4
1293086.2
1293985.4
1294767.5
1295387
1295825
1296092.5
1296233.1
1296309.2
1296370
1296434.5
1296506.1
1296586.8
1296679.1
1296786.1
1296911.5
1297183
1297610.9
1298212.8
1299077.4
1300296.6
1301903.2
1303676
1304921.5
1305234.3
1305259
1305279.4
1305303.2
1305331.2
1305364.4
1305404.5
1305453.3
1305513.6
1305621.4
1305851.2
1306219.3
1306850.8
1308009.2
1310148
1313021.5
1313918.6
1313932.5
1313947.7
1313967.2
1314012
1314096.6
1314244.9
1314537.4
1315205.8
1317035.7
1321224.2
1322126
1322143
1322169
1322211.4
1322288.5
1322450.3
1322868.8
1324373.4
1329244.2
1329823.9
1329843.9
1329872.6
1329915.1
1329979.3
1330085.4
1330259.6
1330559.5
1331073
1331872.7
1332919.6
1333979.4
1334915.7
1335593.7
1336082.2
1336408.9
1336609.1
1336718.3
1336769.8
1336791.6
1336800.3
1336803.9
1336805.6
1336806.6
1336807.3
1336807.7
1336808
1336808.2
1336808.3
1336808.4
1336808.4
1336808.4
1336808.3
1336808.3
1336808.2
1336808.1
1336808.1
1336808
1336807.9
1336807.8
1336807.7
1336807.7
1336807.6
1336807.7
1336807.7
1336807.6
601.98706
568.51852
565.21935
565.38404
565.50299
565.51191
565.50348
565.49818
565.49726
565.49996
565.50588
565.51502
565.52761
565.5442
565.56563
565.59341
565.6294
565.67914
565.74244
565.86764
565.89646
566.8049
569.59093
13758.442
999536.42
978208.76
977483.82
977376.05
977780.03
978438.8
979120.55
979762.86
980356.95
980873.45
981282.35
981571.23
981747.48
981840.09
981890.22
981930.37
981972.92
982020.26
982073.55
982134.55
982205.26
982288.1
982467.93
982750.9
983148.88
983720.53
984526.41
985587.85
986757.99
987578.61
987784.01
987800.19
987813.66
987829.35
987847.83
987869.8
987896.23
987928.44
987968.23
988039.5
988191.23
988434.34
988851.34
989616.27
991028
992922.23
993511.68
993520.85
993530.89
993543.69
993573.3
993629.08
993726.85
993919.74
994360.55
995567.3
998326.41
998918.42
998929.63
998946.7
998974.67
999025.44
999131.97
999407.63
1000398.7
1003603.7
1003983.7
1003996.9
1004015.7
1004043.7
1004086
1004155.7
1004270.3
1004467.6
1004805.3
1005331.2
1006019.5
1006716.2
1007331.5
1007777
1008097.9
1008312.5
1008444
1008515.7
1008549.5
1008563.8
1008569.5
1008571.9
1008573
1008573.7
1008574.1
1008574.4
1008574.6
1008574.7
1008574.8
1008574.9
1008574.9
1008574.9
1008574.8
1008574.8
1008574.8
1008574.7
1008574.6
1008574.6
1008574.5
1008574.5
1008574.4
1008574.4
1008574.3
1008574.4
1008574.4
1008574.3
599.70606
565.42269
562.05035
562.21453
562.33485
562.34361
562.33478
562.3292
562.3281
562.3307
562.33659
562.34575
562.35843
562.37518
562.39685
562.42498
562.46145
562.51189
562.57602
562.70327
562.73164
563.65034
566.42477
13182.045
760975.57
746563.51
746037.93
745961.25
746229.56
746669.05
747124.11
747552.84
747949.29
748293.82
748566.42
748758.86
748876.17
748937.75
748971.1
748997.84
749026.21
749057.79
749093.35
749134.06
749181.26
749236.56
749356.89
749545.94
749811.82
750193.71
750731.98
751440.6
752221.06
752767.38
752903.65
752914.39
752923.36
752933.83
752946.14
752960.79
752978.42
752999.9
753026.44
753074.04
753175.29
753337.53
753615.82
754126.29
755068.04
756330.08
756721.52
756727.61
756734.3
756742.82
756762.56
756799.74
756864.91
756993.48
757287.34
758091.75
759928.99
760321.83
760329.29
760340.65
760359.27
760393.07
760464
760647.56
761307.57
763439.71
763691.53
763700.28
763712.83
763731.43
763759.52
763805.93
763882.11
764013.31
764237.88
764587.6
765045.23
765508.28
765917.22
766213.19
766426.39
766568.92
766656.24
766703.85
766726.33
766735.82
766739.62
766741.18
766741.93
766742.37
766742.66
766742.85
766742.98
766743.06
766743.11
766743.14
766743.15
766743.14
766743.12
766743.1
766743.07
766743.03
766743
766742.96
766742.92
766742.88
766742.84
766742.82
766742.78
766742.84
766742.82
766742.77
597.08783
561.85586
558.39808
558.56168
558.68354
558.69209
558.68281
558.6769
558.67559
558.67806
558.68391
558.69309
558.70588
558.72281
558.74475
558.77328
558.81029
558.86155
558.92661
559.05621
559.084
560.01496
562.76206
12575.808
582726.86
572858.75
572459.44
572402.55
572581.34
572876.45
573182.38
573470.66
573737.21
573968.77
574151.88
574281.05
574359.7
574400.94
574423.26
574441.19
574460.24
574481.45
574505.35
574532.72
574564.46
574601.67
574682.82
574810.13
574989.2
575246.38
575608.8
576085.72
576610.51
576977.17
577068.29
577075.48
577081.5
577088.53
577096.8
577106.64
577118.49
577132.93
577150.77
577182.83
577250.95
577360.1
577547.35
577890.81
578524.25
579372.06
579634.15
579638.23
579642.72
579648.44
579661.71
579686.69
579730.49
579816.91
580014.45
580555.17
581788.87
582051.74
582056.75
582064.37
582076.87
582099.56
582147.19
582270.46
582713.74
584144.31
584312.62
584318.48
584326.9
584339.37
584358.21
584389.34
584440.45
584528.46
584679.1
584913.66
585220.54
585531
585805.14
586003.5
586146.37
586241.87
586300.38
586332.27
586347.33
586353.68
586356.23
586357.27
586357.78
586358.07
586358.26
586358.39
586358.48
586358.53
586358.57
586358.58
586358.59
586358.58
586358.57
586358.55
586358.53
586358.51
586358.48
586358.45
586358.43
586358.4
586358.37
586358.36
586358.33
586358.37
586358.35
586358.32
594.10014
557.7683
554.21114
554.37403
554.49762
554.50592
554.49611
554.4898
554.48824
554.49058
554.49637
554.50559
554.51848
554.53561
554.55786
554.58685
554.62448
554.67667
554.74278
554.87507
554.90207
555.8477
558.54591
11940.792
448279.24
441434.35
441113.62
441069.09
441188.01
441386.92
441593.56
441788.42
441968.6
442125.1
442248.79
442335.95
442388.96
442416.7
442431.7
442443.76
442456.59
442470.9
442487.04
442505.54
442527.01
442552.18
442607.24
442693.51
442814.85
442989.13
443234.69
443557.71
443912.82
444160.45
444221.77
444226.59
444230.66
444235.4
444240.99
444247.64
444255.64
444265.41
444277.48
444299.2
444345.32
444419.23
444546.03
444778.6
445207.42
445780.66
445957.28
445960.02
445963.05
445966.92
445975.89
445992.79
446022.41
446080.88
446214.54
446580.39
447414.3
447591.36
447594.73
447599.88
447608.33
447623.66
447655.85
447739.19
448038.89
449005.19
449118.43
449122.39
449128.07
449136.49
449149.21
449170.23
449204.75
449264.18
449365.92
449524.31
449731.52
449941.09
450126.12
450259.98
450356.38
450420.81
450460.27
450481.79
450491.94
450496.23
450497.94
450498.65
450498.99
450499.19
450499.32
450499.41
450499.46
450499.5
450499.52
450499.53
450499.53
450499.52
450499.51
450499.5
450499.49
450499.47
450499.45
450499.43
450499.41
450499.39
450499.37
450499.36
450499.34
450499.37
450499.36
450499.33
590.70987
553.10727
549.43492
549.59695
549.72244
549.73044
549.72001
549.71324
549.71139
549.71355
549.71928
549.72853
549.74155
549.75891
549.78151
549.81101
549.84933
549.90257
549.96986
550.10521
550.13118
551.09435
553.71499
11278.974
346112.85
341300.81
341026.78
340989.59
341067.96
341202.11
341342.02
341474.13
341596.36
341702.52
341786.37
341845.4
341881.23
341899.92
341910
341918.11
341926.77
341936.44
341947.37
341959.91
341974.47
341991.57
342029.1
342087.82
342170.44
342289.12
342456.32
342676.17
342917.66
343085.74
343127.19
343130.44
343133.19
343136.4
343140.18
343144.69
343150.12
343156.75
343164.95
343179.74
343211.12
343261.41
343347.71
343505.99
343797.76
344187.33
344306.95
344308.81
344310.86
344313.48
344319.58
344331.06
344351.2
344390.95
344481.85
344730.67
345297.27
345417.15
345419.44
345422.93
345428.66
345439.08
345460.95
345517.58
345721.28
346377.43
346454.03
346456.71
346460.56
346466.28
346474.91
346489.19
346512.62
346552.98
346622.05
346729.59
346870.25
347012.49
347138.05
347228.87
347294.27
347337.98
347364.75
347379.34
347386.23
347389.13
347390.3
347390.78
347391.01
347391.14
347391.23
347391.29
347391.33
347391.35
347391.36
347391.37
347391.36
347391.36
347391.35
347391.34
347391.33
347391.32
347391.3
347391.29
347391.27
347391.26
347391.24
347391.23
347391.22
347391.23
347391.23
347391.2
586.88365
547.81745
544.01201
544.17292
544.30049
544.30812
544.29696
544.28966
544.28746
544.28943
544.29508
544.30435
544.3175
544.33512
544.35812
544.38819
544.42729
544.48172
544.55031
544.68912
544.71374
545.69792
548.20371
10593.299
268019.33
264587.27
264338.14
264304.78
264355.28
264445.43
264540.12
264629.76
264712.78
264784.91
264841.86
264881.89
264906.12
264918.7
264925.44
264930.86
264936.68
264943.21
264950.6
264959.1
264969
264980.63
265006.29
265046.4
265102.86
265183.97
265298.25
265448.47
265613.32
265727.84
265755.96
265758.15
265760
265762.18
265764.74
265767.8
265771.5
265776.01
265781.59
265791.7
265813.12
265847.48
265906.44
266014.59
266213.91
266479.72
266561.06
266562.31
266563.71
266565.48
266569.64
266577.47
266591.22
266618.36
266680.42
266850.34
267236.9
267318.4
267319.95
267322.33
267326.23
267333.33
267348.25
267386.89
267525.92
267973.34
268025.37
268027.19
268029.81
268033.71
268039.59
268049.32
268065.3
268092.82
268139.93
268213.25
268309.15
268406.11
268491.69
268553.58
268598.15
268627.92
268646.16
268656.1
268660.79
268662.77
268663.57
268663.89
268664.05
268664.14
268664.2
268664.24
268664.27
268664.28
268664.29
268664.29
268664.29
268664.28
268664.27
268664.26
268664.25
268664.24
268664.23
268664.22
268664.21
268664.19
268664.18
268664.17
268664.16
268664.17
268664.16
268664.14
582.58858
541.84144
537.88267
538.0421
538.17189
538.17907
538.16708
538.15916
538.15656
538.15829
538.16383
538.17313
538.18643
538.20433
538.22776
538.25848
538.29844
538.35419
538.42423
538.56693
538.58979
539.59916
541.94274
9887.6994
208047.65
205561.17
205321.65
205289.53
205320.56
205380.52
205444.3
205504.97
205561.3
205610.27
205648.91
205676.02
205692.36
205700.77
205705.21
205708.8
205712.67
205717.03
205722.01
205727.76
205734.47
205742.38
205759.95
205787.41
205826.09
205881.68
205960.01
206062.95
206175.83
206254.09
206273.21
206274.68
206275.92
206277.38
206279.12
206281.19
206283.7
206286.77
206290.58
206297.5
206312.17
206335.7
206376.11
206450.24
206586.82
206768.77
206824.25
206825.1
206826.04
206827.25
206830.09
206835.44
206844.84
206863.43
206905.94
207022.35
207286.95
207342.53
207343.58
207345.2
207347.87
207352.72
207362.93
207389.38
207484.57
207790.69
207826.14
207827.39
207829.18
207831.84
207835.86
207842.52
207853.45
207872.29
207904.52
207954.7
208020.31
208086.63
208145.17
208187.5
208217.98
208238.34
208250.81
208257.6
208260.81
208262.17
208262.71
208262.94
208263.04
208263.11
208263.15
208263.17
208263.19
208263.19
208263.19
208263.19
208263.19
208263.18
208263.17
208263.17
208263.16
208263.15
208263.13
208263.12
208263.11
208263.1
208263.09
208263.08
208263.07
208263.08
208263.07
208263.05
577.79333
535.12059
530.98564
531.14303
531.27519
531.2818
531.26884
531.26019
531.25713
531.25858
531.264
531.27332
531.28677
531.30499
531.3289
531.36032
531.40124
531.45846
531.53008
531.67715
531.69772
532.73736
534.85964
9167.0728
161821.43
159989.68
159748.66
159715.79
159732.88
159771.89
159814.36
159855.11
159893.12
159926.22
159952.33
159970.59
159981.51
159987.04
159989.9
159992.19
159994.7
159997.58
160000.89
160004.74
160009.26
160014.61
160026.64
160045.46
160072
160110.17
160163.97
160234.67
160312.14
160365.73
160378.75
160379.72
160380.54
160381.51
160382.67
160384.07
160385.77
160387.85
160390.45
160395.18
160405.24
160421.4
160449.15
160500.08
160593.91
160718.77
160756.7
160757.27
160757.9
160758.71
160760.65
160764.31
160770.76
160783.51
160812.71
160892.66
161074.24
161112.24
161112.96
161114.06
161115.88
161119.2
161126.2
161144.35
161209.71
161419.7
161443.93
161444.77
161446
161447.82
161450.58
161455.14
161462.65
161475.58
161497.7
161532.14
161577.16
161622.67
161662.83
161691.86
161712.77
161726.74
161735.29
161739.95
161742.15
161743.09
161743.46
161743.61
161743.69
161743.73
161743.76
161743.77
161743.78
161743.78
161743.78
161743.77
161743.77
161743.76
161743.75
161743.74
161743.73
161743.72
161743.71
161743.7
161743.69
161743.68
161743.67
161743.66
161743.65
161743.65
161743.64
161743.62
572.46933
527.59595
523.25913
523.41365
523.54825
523.55417
523.54008
523.5306
523.52698
523.52811
523.53338
523.5427
523.55632
523.57487
523.59931
523.63151
523.67349
523.73233
523.80565
523.95759
523.97522
525.05128
526.87999
8437.2056
126084.51
124712.11
124461.31
124425.99
124432.77
124457
124484.6
124511.54
124536.88
124559.02
124576.47
124588.62
124595.78
124599.3
124601.02
124602.4
124603.95
124605.77
124607.91
124610.44
124613.45
124617.03
124625.25
124638.13
124656.34
124682.57
124719.57
124768.2
124821.44
124858.19
124867.06
124867.68
124868.2
124868.83
124869.6
124870.52
124871.66
124873.07
124874.82
124878.06
124884.96
124896.06
124915.15
124950.2
125014.79
125100.63
125126.61
125126.98
125127.4
125127.94
125129.26
125131.76
125136.19
125144.95
125165.03
125220.06
125344.93
125370.96
125371.44
125372.18
125373.42
125375.7
125380.5
125392.98
125437.94
125582.31
125598.89
125599.47
125600.3
125601.55
125603.45
125606.59
125611.76
125620.66
125635.89
125659.58
125690.56
125721.86
125749.49
125769.46
125783.84
125793.45
125799.33
125802.54
125804.06
125804.7
125804.96
125805.06
125805.11
125805.14
125805.16
125805.17
125805.17
125805.17
125805.16
125805.15
125805.15
125805.14
125805.12
125805.11
125805.1
125805.09
125805.08
125805.07
125805.06
125805.05
125805.04
125805.03
125805.02
125805.01
125805
125804.98
566.59244
519.20965
514.64215
514.79255
514.92959
514.93466
514.91925
514.9088
514.90454
514.90527
514.91036
514.91967
514.93346
514.95237
514.97739
515.01044
515.05357
515.11418
515.18934
515.3467
515.36056
516.48048
517.92882
7704.6468
98390.937
97346.852
97079.87
97040.553
97039.317
97052.886
97069.954
97087.176
97103.642
97118.133
97129.549
97137.418
97141.94
97144.016
97144.912
97145.609
97146.464