/*--------------------------------*- C++ -*----------------------------------*\
| =========                 |                                                 |
| \\      /  F ield         | OpenFOAM: The Open Source CFD Toolbox           |
|  \\    /   O peration     | Version:  2206                                  |
|   \\  /    A nd           | Website:  www.openfoam.com                      |
|    \\/     M anipulation  |                                                 |
\*---------------------------------------------------------------------------*/
FoamFile
{
    version     2.0;
    format      ascii;
    arch        "LSB;label=32;scalar=64";
    class       volScalarField;
    location    "500";
    object      p;
}
// * * * * * * * * * * * * * * * * * * * * * * * * * * * * * * * * * * * * * //

dimensions      [0 2 -2 0 0 0 0];

internalField   nonuniform List<scalar> 
13056
(
0.012029278
0.012132503
0.012351552
0.012631327
0.012970245
0.013368573
0.01382446
0.014337097
0.014907789
0.01553974
0.016237927
0.017009442
0.017864106
0.018815788
0.019883411
0.021095983
0.022490632
0.024141671
0.026113548
0.028685915
0.031812356
0.037178587
0.042374647
0.081656296
0.051701776
0.0023687877
0.0010710609
0.0019509763
0.0025095739
0.0029495341
0.0032127439
0.003398806
0.0035401188
0.0036394836
0.0037092942
0.0037591683
0.0037946582
0.003819464
0.0038359264
0.0038459384
0.0038509293
0.0038517662
0.0038492002
0.0038438927
0.003836238
0.0038265322
0.003815052
0.0038020013
0.0037875568
0.0037718507
0.0037549455
0.003736919
0.0037178317
0.0036977209
0.0036766301
0.0036545664
0.0036315105
0.003607463
0.0035824102
0.0035563311
0.003529198
0.0035009844
0.0034716365
0.0034410751
0.003409225
0.0033760051
0.0033413377
0.0033051379
0.0032673123
0.0032277794
0.0031864449
0.0031431965
0.0030979258
0.0030505263
0.0030009076
0.00294901
0.00289482
0.0028384174
0.0027799276
0.0027194314
0.0026572361
0.0025937259
0.0025293674
0.0024651838
0.002402741
0.0023439925
0.0022924112
0.0022530081
0.0022225699
0.0022207126
0.0022514798
0.0023077483
0.0024059598
0.0025500163
0.0027430729
0.0029838633
0.0032634046
0.0035802817
0.0039140766
0.004214571
0.0044357591
0.0045672734
0.0045971488
0.0045386061
0.0044362567
0.0043071731
0.0041627616
0.0040140614
0.0038638219
0.0037104712
0.0035570727
0.0034012948
0.0032399477
0.0030766026
0.0029130875
0.0027510922
0.0025927977
0.002436495
0.0022817749
0.0021313598
0.0019847764
0.0018404299
0.001698979
0.0015621243
0.0014295327
0.0012995683
0.0011733178
0.0010514015
0.00093586635
0.00082621482
0.0007251388
0.00062913751
0.00056712848
0.00048080635
0.00066638592
-0.00051308498
0.012029278
0.012132503
0.012351552
0.012631327
0.012970245
0.013368573
0.01382446
0.014337097
0.01490779
0.015539741
0.016237928
0.017009443
0.017864107
0.018815789
0.019883413
0.021095986
0.022490636
0.024141677
0.026113556
0.028685928
0.031812372
0.037178622
0.042374702
0.081651464
0.05171327
0.0023760945
0.0010729306
0.0019518217
0.0025100914
0.0029498978
0.003213019
0.0033990247
0.0035402977
0.0036396334
0.003709422
0.003759279
0.0037947551
0.0038195497
0.0038360028
0.003846007
0.0038509914
0.0038518225
0.0038492516
0.0038439398
0.0038362814
0.0038265723
0.0038150891
0.0038020357
0.0037875888
0.0037718806
0.0037549735
0.0037369452
0.0037178562
0.003697744
0.0036766518
0.0036545868
0.0036315298
0.0036074812
0.0035824274
0.0035563474
0.0035292134
0.003500999
0.0034716503
0.0034410882
0.0034092375
0.003376017
0.003341349
0.0033051485
0.0032673224
0.003227789
0.003186454
0.0031432052
0.003097934
0.0030505341
0.003000915
0.002949017
0.0028948265
0.0028384236
0.0027799333
0.0027194368
0.0026572411
0.0025937305
0.0025293716
0.0024651876
0.0024027443
0.0023439954
0.0022924136
0.00225301
0.0022225711
0.0022207132
0.0022514798
0.0023077474
0.0024059581
0.0025500137
0.0027430694
0.002983859
0.0032633995
0.003580276
0.0039140705
0.004214565
0.0044357536
0.0045672688
0.0045971452
0.0045386035
0.0044362549
0.0043071719
0.0041627607
0.0040140608
0.0038638216
0.0037104711
0.0035570727
0.0034012948
0.0032399479
0.0030766029
0.0029130878
0.0027510926
0.0025927981
0.0024364955
0.0022817754
0.0021313603
0.0019847769
0.0018404304
0.0016989795
0.0015621248
0.0014295332
0.0012995688
0.0011733183
0.001051402
0.00093586682
0.00082621528
0.00072513927
0.00062913797
0.00056712898
0.00048080689
0.00066638647
-0.00051308463
0.012029278
0.012132503
0.012351553
0.012631328
0.012970246
0.013368573
0.01382446
0.014337097
0.01490779
0.015539742
0.016237929
0.017009444
0.017864109
0.018815791
0.019883415
0.021095989
0.02249064
0.024141683
0.026113564
0.028685942
0.031812391
0.037178661
0.042374746
0.081646568
0.051729114
0.0023831639
0.001075148
0.0019528325
0.0025107101
0.0029503328
0.003213348
0.0033992861
0.0035405116
0.0036398125
0.0037095748
0.0037594113
0.003794871
0.0038196522
0.0038360942
0.0038460891
0.0038510655
0.0038518899
0.0038493131
0.0038439962
0.0038363333
0.0038266201
0.0038151334
0.0038020769
0.0037876271
0.0037719163
0.0037550069
0.0037369765
0.0037178856
0.0036977715
0.0036766778
0.0036546113
0.0036315528
0.003607503
0.003582448
0.0035563669
0.0035292319
0.0035010165
0.0034716669
0.0034411039
0.0034092524
0.0033760311
0.0033413624
0.0033051613
0.0032673345
0.0032278005
0.0031864649
0.0031432156
0.0030979438
0.0030505434
0.0030009238
0.0029490253
0.0028948344
0.002838431
0.0027799403
0.0027194432
0.0026572471
0.002593736
0.0025293766
0.0024651921
0.0024027484
0.0023439989
0.0022924165
0.0022530124
0.0022225727
0.002220714
0.0022514797
0.0023077464
0.0024059561
0.0025500107
0.0027430653
0.0029838539
0.0032633935
0.0035802693
0.0039140633
0.0042145578
0.004435747
0.0045672634
0.0045971408
0.0045386004
0.0044362528
0.0043071704
0.0041627597
0.0040140602
0.0038638212
0.0037104709
0.0035570726
0.0034012949
0.003239948
0.0030766031
0.0029130881
0.002751093
0.0025927986
0.002436496
0.002281776
0.0021313609
0.0019847775
0.0018404311
0.0016989801
0.0015621254
0.0014295338
0.0012995694
0.0011733189
0.0010514026
0.00093586738
0.00082621583
0.00072513982
0.00062913852
0.00056712958
0.00048080752
0.00066638714
-0.00051308421
0.012029278
0.012132503
0.012351553
0.012631328
0.012970246
0.013368574
0.013824461
0.014337098
0.014907791
0.015539742
0.016237929
0.017009445
0.01786411
0.018815793
0.019883418
0.021095993
0.022490645
0.024141689
0.026113572
0.028685956
0.031812409
0.037178699
0.04237479
0.081641771
0.051746776
0.0023884085
0.0010772341
0.0019538227
0.0025113163
0.0029507589
0.0032136703
0.0033995422
0.0035407212
0.003639988
0.0037097245
0.0037595409
0.0037949845
0.0038197526
0.0038361837
0.0038461695
0.0038511382
0.0038519559
0.0038493734
0.0038440514
0.003836384
0.003826667
0.0038151768
0.0038021172
0.0037876646
0.0037719513
0.0037550396
0.0037370071
0.0037179143
0.0036977985
0.0036767032
0.0036546352
0.0036315754
0.0036075243
0.0035824682
0.003556386
0.0035292499
0.0035010336
0.0034716831
0.0034411193
0.003409267
0.003376045
0.0033413756
0.0033051738
0.0032673464
0.0032278118
0.0031864756
0.0031432257
0.0030979534
0.0030505525
0.0030009324
0.0029490335
0.0028948421
0.0028384382
0.002779947
0.0027194496
0.0026572529
0.0025937414
0.0025293816
0.0024651966
0.0024027523
0.0023440023
0.0022924193
0.0022530147
0.0022225741
0.0022207146
0.0022514797
0.0023077454
0.0024059541
0.0025500077
0.0027430613
0.0029838488
0.0032633876
0.0035802626
0.0039140562
0.0042145507
0.0044357405
0.0045672581
0.0045971367
0.0045385974
0.0044362507
0.004307169
0.0041627588
0.0040140595
0.0038638208
0.0037104707
0.0035570726
0.003401295
0.0032399482
0.0030766034
0.0029130885
0.0027510935
0.0025927991
0.0024364965
0.0022817766
0.0021313614
0.0019847781
0.0018404316
0.0016989807
0.001562126
0.0014295344
0.00129957
0.0011733195
0.0010514031
0.00093586793
0.00082621637
0.00072514036
0.00062913906
0.00056713017
0.00048080812
0.00066638779
-0.00051308382
0.012029278
0.012132503
0.012351553
0.012631328
0.012970246
0.013368574
0.013824461
0.014337098
0.014907791
0.015539743
0.01623793
0.017009446
0.017864112
0.018815795
0.01988342
0.021095996
0.022490649
0.024141696
0.026113581
0.02868597
0.031812428
0.037178738
0.04237484
0.081636631
0.051765527
0.0023942688
0.001079344
0.0019548364
0.0025119371
0.0029511952
0.0032140003
0.0033998045
0.0035409359
0.0036401677
0.0037098779
0.0037596736
0.0037951008
0.0038198554
0.0038362754
0.0038462518
0.0038512126
0.0038520235
0.003849435
0.0038441079
0.0038364361
0.003826715
0.0038152213
0.0038021584
0.0037877031
0.0037719871
0.0037550731
0.0037370385
0.0037179437
0.0036978262
0.0036767292
0.0036546597
0.0036315985
0.0036075461
0.0035824888
0.0035564055
0.0035292684
0.0035010511
0.0034716997
0.0034411351
0.003409282
0.0033760592
0.003341389
0.0033051866
0.0032673585
0.0032278233
0.0031864866
0.0031432361
0.0030979633
0.0030505619
0.0030009413
0.0029490418
0.0028948499
0.0028384456
0.002779954
0.002719456
0.002657259
0.0025937469
0.0025293866
0.0024652011
0.0024027563
0.0023440058
0.0022924222
0.002253017
0.0022225757
0.0022207153
0.0022514796
0.0023077443
0.0024059521
0.0025500046
0.0027430571
0.0029838437
0.0032633816
0.0035802559
0.0039140489
0.0042145435
0.0044357339
0.0045672526
0.0045971325
0.0045385943
0.0044362486
0.0043071675
0.0041627578
0.0040140589
0.0038638204
0.0037104704
0.0035570725
0.003401295
0.0032399484
0.0030766037
0.0029130889
0.0027510939
0.0025927996
0.0024364971
0.0022817771
0.002131362
0.0019847787
0.0018404323
0.0016989813
0.0015621266
0.001429535
0.0012995706
0.00117332
0.0010514037
0.0009358685
0.00082621693
0.00072514092
0.00062913961
0.00056713077
0.00048080872
0.00066638845
-0.00051308343
0.012029278
0.012132503
0.012351553
0.012631328
0.012970246
0.013368574
0.013824461
0.014337099
0.014907792
0.015539744
0.016237931
0.017009447
0.017864113
0.018815797
0.019883423
0.021096
0.022490654
0.024141703
0.026113591
0.028685986
0.031812449
0.037178779
0.042374899
0.081630926
0.051785067
0.0024015569
0.0010815876
0.001955913
0.0025125964
0.0029516587
0.0032143509
0.0034000831
0.0035411638
0.0036403585
0.0037100407
0.0037598146
0.0037952242
0.0038199646
0.0038363728
0.0038463392
0.0038512916
0.0038520952
0.0038495005
0.003844168
0.0038364913
0.003826766
0.0038152685
0.0038022023
0.0037877439
0.0037720252
0.0037551086
0.0037370718
0.003717975
0.0036978555
0.0036767568
0.0036546857
0.0036316231
0.0036075693
0.0035825107
0.0035564262
0.0035292881
0.0035010697
0.0034717173
0.0034411518
0.0034092978
0.0033760742
0.0033414033
0.0033052002
0.0032673715
0.0032278356
0.0031864982
0.0031432472
0.0030979738
0.0030505718
0.0030009507
0.0029490507
0.0028948583
0.0028384535
0.0027799613
0.0027194629
0.0026572653
0.0025937528
0.002529392
0.0024652059
0.0024027606
0.0023440095
0.0022924253
0.0022530195
0.0022225773
0.0022207161
0.0022514796
0.0023077432
0.00240595
0.0025500013
0.0027430527
0.0029838382
0.0032633752
0.0035802487
0.0039140412
0.0042145358
0.0044357269
0.0045672468
0.0045971281
0.004538591
0.0044362463
0.0043071659
0.0041627567
0.0040140582
0.00386382
0.0037104702
0.0035570725
0.0034012951
0.0032399486
0.003076604
0.0029130892
0.0027510944
0.0025928001
0.0024364977
0.0022817777
0.0021313627
0.0019847793
0.0018404329
0.001698982
0.0015621273
0.0014295356
0.0012995712
0.0011733207
0.0010514043
0.00093586909
0.00082621752
0.00072514151
0.0006291402
0.00056713141
0.00048080937
0.00066638916
-0.00051308301
0.012029278
0.012132503
0.012351553
0.012631328
0.012970246
0.013368574
0.013824462
0.014337099
0.014907793
0.015539745
0.016237932
0.017009449
0.017864115
0.0188158
0.019883426
0.021096004
0.02249066
0.024141711
0.026113601
0.028686004
0.031812473
0.037178825
0.042374968
0.081624539
0.051805633
0.0024095925
0.0010840053
0.0019570717
0.0025133062
0.0029521577
0.0032147282
0.0034003829
0.0035414092
0.0036405639
0.003710216
0.0037599663
0.0037953571
0.0038200822
0.0038364776
0.0038464333
0.0038513766
0.0038521725
0.003849571
0.0038442326
0.0038365507
0.0038268209
0.0038153193
0.0038022495
0.0037877878
0.0037720661
0.0037551469
0.0037371076
0.0037180086
0.0036978871
0.0036767865
0.0036547138
0.0036316495
0.0036075943
0.0035825343
0.0035564485
0.0035293092
0.0035010897
0.0034717363
0.0034411698
0.0034093149
0.0033760905
0.0033414188
0.0033052148
0.0032673854
0.0032278488
0.0031865108
0.003143259
0.003097985
0.0030505825
0.0030009608
0.0029490602
0.0028948673
0.0028384619
0.0027799693
0.0027194703
0.0026572722
0.0025937591
0.0025293977
0.0024652111
0.0024027652
0.0023440135
0.0022924286
0.0022530222
0.002222579
0.0022207169
0.0022514795
0.0023077421
0.0024059477
0.0025499978
0.002743048
0.0029838323
0.0032633683
0.0035802409
0.0039140329
0.0042145276
0.0044357193
0.0045672406
0.0045971233
0.0045385875
0.0044362438
0.0043071642
0.0041627556
0.0040140574
0.0038638195
0.00371047
0.0035570724
0.0034012952
0.0032399488
0.0030766043
0.0029130897
0.0027510949
0.0025928007
0.0024364983
0.0022817784
0.0021313633
0.00198478
0.0018404336
0.0016989827
0.001562128
0.0014295363
0.0012995718
0.0011733213
0.0010514049
0.00093586974
0.00082621815
0.00072514215
0.00062914083
0.0005671321
0.00048081006
0.00066638992
-0.00051308256
0.012029278
0.012132503
0.012351553
0.012631328
0.012970247
0.013368575
0.013824462
0.0143371
0.014907793
0.015539746
0.016237934
0.01700945
0.017864117
0.018815802
0.01988343
0.021096009
0.022490666
0.02414172
0.026113614
0.028686024
0.031812499
0.037178877
0.042375048
0.081617333
0.0518275
0.002418219
0.0010866266
0.0019583281
0.0025140759
0.0029526987
0.0032151375
0.0034007081
0.0035416753
0.0036407867
0.003710406
0.0037601309
0.0037955012
0.0038202096
0.0038365912
0.0038465353
0.0038514688
0.0038522563
0.0038496475
0.0038443027
0.0038366152
0.0038268804
0.0038153744
0.0038023006
0.0037878354
0.0037721106
0.0037551884
0.0037371465
0.0037180451
0.0036979214
0.0036768188
0.0036547441
0.0036316781
0.0036076213
0.0035825599
0.0035564727
0.0035293321
0.0035011115
0.0034717569
0.0034411893
0.0034093335
0.0033761081
0.0033414355
0.0033052307
0.0032674004
0.0032278631
0.0031865243
0.0031432719
0.0030979973
0.0030505941
0.0030009717
0.0029490706
0.0028948771
0.0028384711
0.0027799779
0.0027194783
0.0026572796
0.002593766
0.002529404
0.0024652168
0.0024027703
0.0023440178
0.0022924322
0.0022530251
0.0022225809
0.0022207177
0.0022514794
0.0023077408
0.0024059452
0.002549994
0.0027430428
0.0029838259
0.0032633608
0.0035802325
0.0039140238
0.0042145186
0.0044357111
0.0045672338
0.0045971182
0.0045385837
0.0044362412
0.0043071624
0.0041627543
0.0040140566
0.003863819
0.0037104697
0.0035570723
0.0034012953
0.003239949
0.0030766047
0.0029130901
0.0027510954
0.0025928013
0.0024364989
0.0022817791
0.0021313641
0.0019847807
0.0018404343
0.0016989834
0.0015621287
0.0014295371
0.0012995726
0.001173322
0.0010514057
0.00093587043
0.00082621883
0.00072514284
0.00062914151
0.00056713285
0.00048081081
0.00066639075
-0.00051308207
0.012029278
0.012132503
0.012351553
0.012631329
0.012970247
0.013368575
0.013824463
0.0143371
0.014907794
0.015539747
0.016237935
0.017009452
0.01786412
0.018815806
0.019883434
0.021096014
0.022490674
0.024141731
0.026113628
0.028686046
0.031812529
0.037178937
0.042375142
0.081609129
0.0518509
0.0024275741
0.0010894881
0.0019597001
0.0025149167
0.0029532898
0.0032155844
0.0034010632
0.0035419659
0.00364103
0.0037106136
0.0037603106
0.0037956586
0.0038203488
0.0038367153
0.0038466468
0.0038515695
0.0038523478
0.003849731
0.0038443792
0.0038366856
0.0038269454
0.0038154346
0.0038023565
0.0037878874
0.0037721591
0.0037552338
0.003737189
0.0037180849
0.0036979588
0.003676854
0.0036547773
0.0036317094
0.0036076509
0.0035825878
0.0035564992
0.0035293571
0.0035011352
0.0034717794
0.0034412107
0.0034093537
0.0033761273
0.0033414537
0.003305248
0.0032674169
0.0032278787
0.0031865392
0.003143286
0.0030980106
0.0030506067
0.0030009837
0.0029490819
0.0028948877
0.0028384811
0.0027799873
0.0027194871
0.0026572877
0.0025937735
0.0025294108
0.0024652229
0.0024027757
0.0023440226
0.0022924361
0.0022530283
0.002222583
0.0022207186
0.0022514793
0.0023077394
0.0024059424
0.0025499899
0.0027430372
0.0029838189
0.0032633526
0.0035802233
0.003914014
0.0042145088
0.0044357021
0.0045672264
0.0045971125
0.0045385795
0.0044362383
0.0043071604
0.004162753
0.0040140557
0.0038638185
0.0037104695
0.0035570723
0.0034012954
0.0032399493
0.003076605
0.0029130906
0.002751096
0.002592802
0.0024364997
0.0022817799
0.0021313649
0.0019847815
0.0018404352
0.0016989843
0.0015621295
0.0014295379
0.0012995734
0.0011733228
0.0010514064
0.0009358712
0.00082621958
0.00072514359
0.00062914226
0.00056713367
0.00048081163
0.00066639165
-0.00051308153
0.012029278
0.012132503
0.012351554
0.012631329
0.012970247
0.013368576
0.013824463
0.014337101
0.014907795
0.015539748
0.016237937
0.017009454
0.017864123
0.018815809
0.019883439
0.021096021
0.022490682
0.024141743
0.026113644
0.028686073
0.031812564
0.037179005
0.042375251
0.081599712
0.051876043
0.0024378225
0.0010926324
0.0019612081
0.002515841
0.0029539395
0.0032160759
0.0034014537
0.0035422855
0.0036412975
0.0037108418
0.0037605082
0.0037958317
0.0038205018
0.0038368518
0.0038467693
0.0038516803
0.0038524484
0.0038498228
0.0038444633
0.003836763
0.0038270168
0.0038155007
0.0038024179
0.0037879445
0.0037722124
0.0037552836
0.0037372357
0.0037181287
0.003698
0.0036768927
0.0036548138
0.0036317439
0.0036076834
0.0035826186
0.0035565282
0.0035293847
0.0035011612
0.0034718041
0.0034412341
0.003409376
0.0033761484
0.0033414738
0.0033052671
0.003267435
0.0032278959
0.0031865555
0.0031433015
0.0030980253
0.0030506206
0.0030009968
0.0029490943
0.0028948994
0.0028384922
0.0027799976
0.0027194967
0.0026572967
0.0025937817
0.0025294183
0.0024652297
0.0024027817
0.0023440278
0.0022924404
0.0022530317
0.0022225852
0.0022207197
0.0022514793
0.0023077378
0.0024059394
0.0025499853
0.002743031
0.0029838112
0.0032633436
0.0035802132
0.0039140032
0.0042144981
0.0044356923
0.0045672183
0.0045971063
0.0045385749
0.0044362351
0.0043071582
0.0041627515
0.0040140547
0.0038638179
0.0037104691
0.0035570722
0.0034012955
0.0032399495
0.0030766055
0.0029130912
0.0027510967
0.0025928027
0.0024365005
0.0022817807
0.0021313658
0.0019847824
0.0018404361
0.0016989852
0.0015621304
0.0014295388
0.0012995742
0.0011733237
0.0010514073
0.00093587203
0.00082622041
0.00072514442
0.00062914308
0.00056713456
0.00048081253
0.00066639264
-0.00051308094
0.012029278
0.012132504
0.012351554
0.012631329
0.012970248
0.013368576
0.013824464
0.014337102
0.014907796
0.015539749
0.016237939
0.017009457
0.017864126
0.018815813
0.019883445
0.021096028
0.022490692
0.024141757
0.026113662
0.028686103
0.031812604
0.037179084
0.042375379
0.081588824
0.05190313
0.0024491172
0.0010961062
0.0019628746
0.0025168627
0.0029546578
0.003216619
0.0034018853
0.0035426386
0.0036415932
0.0037110941
0.0037607265
0.0037960229
0.0038206709
0.0038370026
0.0038469047
0.0038518026
0.0038525596
0.0038499243
0.0038445563
0.0038368486
0.0038270958
0.0038155738
0.0038024858
0.0037880077
0.0037722713
0.0037553387
0.0037372873
0.0037181771
0.0036980455
0.0036769355
0.0036548541
0.0036317819
0.0036077193
0.0035826525
0.0035565603
0.0035294151
0.0035011901
0.0034718314
0.00344126
0.0034094005
0.0033761717
0.0033414959
0.0033052881
0.003267455
0.0032279149
0.0031865735
0.0031433186
0.0030980415
0.003050636
0.0030010114
0.002949108
0.0028949124
0.0028385043
0.002780009
0.0027195073
0.0026573066
0.0025937908
0.0025294266
0.0024652372
0.0024027884
0.0023440335
0.0022924452
0.0022530356
0.0022225877
0.0022207208
0.0022514792
0.0023077361
0.0024059361
0.0025499802
0.0027430242
0.0029838027
0.0032633337
0.0035802021
0.0039139912
0.0042144862
0.0044356814
0.0045672093
0.0045970994
0.0045385699
0.0044362315
0.0043071558
0.0041627498
0.0040140537
0.0038638172
0.0037104688
0.0035570721
0.0034012956
0.0032399498
0.0030766059
0.0029130918
0.0027510974
0.0025928036
0.0024365014
0.0022817817
0.0021313667
0.0019847834
0.0018404371
0.0016989862
0.0015621314
0.0014295397
0.0012995752
0.0011733246
0.0010514082
0.00093587296
0.00082622132
0.00072514534
0.00062914399
0.00056713556
0.00048081352
0.00066639374
-0.00051308029
0.012029278
0.012132504
0.012351554
0.01263133
0.012970248
0.013368577
0.013824465
0.014337103
0.014907798
0.015539751
0.016237941
0.01700946
0.01786413
0.018815818
0.019883451
0.021096037
0.022490704
0.024141773
0.026113683
0.028686138
0.031812651
0.037179174
0.042375528
0.081576158
0.051932345
0.0024616196
0.0010999609
0.0019647245
0.0025179971
0.0029554552
0.0032172221
0.0034023644
0.0035430307
0.0036419214
0.0037113741
0.003760969
0.0037962352
0.0038208587
0.00383717
0.0038470551
0.0038519385
0.003852683
0.0038500369
0.0038446596
0.0038369436
0.0038271835
0.003815655
0.0038025612
0.0037880779
0.0037723368
0.0037553999
0.0037373445
0.0037182308
0.003698096
0.003676983
0.0036548989
0.0036318241
0.0036077592
0.0035826902
0.003556596
0.0035294488
0.0035012221
0.0034718618
0.0034412888
0.0034094278
0.0033761977
0.0033415205
0.0033053115
0.0032674772
0.003227936
0.0031865935
0.0031433376
0.0030980595
0.003050653
0.0030010275
0.0029491233
0.0028949268
0.0028385179
0.0027800217
0.0027195192
0.0026573175
0.0025938009
0.0025294359
0.0024652455
0.0024027957
0.0023440399
0.0022924505
0.0022530398
0.0022225905
0.002220722
0.002251479
0.0023077342
0.0024059324
0.0025499746
0.0027430166
0.0029837933
0.0032633227
0.0035801897
0.0039139779
0.004214473
0.0044356694
0.0045671993
0.0045970918
0.0045385642
0.0044362276
0.0043071531
0.004162748
0.0040140525
0.0038638165
0.0037104684
0.003557072
0.0034012957
0.0032399502
0.0030766064
0.0029130924
0.0027510982
0.0025928045
0.0024365024
0.0022817827
0.0021313678
0.0019847845
0.0018404382
0.0016989873
0.0015621325
0.0014295408
0.0012995763
0.0011733257
0.0010514093
0.00093587398
0.00082622233
0.00072514635
0.00062914499
0.00056713666
0.00048081463
0.00066639495
-0.00051307957
0.012029278
0.012132504
0.012351555
0.01263133
0.012970249
0.013368578
0.013824466
0.014337104
0.014907799
0.015539753
0.016237944
0.017009463
0.017864134
0.018815824
0.019883459
0.021096047
0.022490717
0.024141791
0.026113708
0.028686177
0.031812704
0.037179278
0.042375701
0.081561344
0.051963849
0.0024755108
0.0011042532
0.0019667851
0.0025192612
0.0029563438
0.0032178942
0.0034028983
0.0035434676
0.0036422871
0.0037116861
0.0037612391
0.0037964718
0.0038210679
0.0038373565
0.0038472226
0.0038520898
0.0038528205
0.0038501624
0.0038447746
0.0038370494
0.0038272812
0.0038157455
0.0038026451
0.003788156
0.0037724097
0.003755468
0.0037374083
0.0037182907
0.0036981522
0.003677036
0.0036549487
0.0036318711
0.0036078036
0.0035827322
0.0035566357
0.0035294864
0.0035012577
0.0034718955
0.0034413208
0.0034094583
0.0033762265
0.003341548
0.0033053375
0.0032675019
0.0032279595
0.0031866158
0.0031433587
0.0030980796
0.003050672
0.0030010455
0.0029491403
0.0028949428
0.0028385329
0.0027800358
0.0027195323
0.0026573297
0.0025938121
0.0025294461
0.0024652548
0.002402804
0.002344047
0.0022924564
0.0022530446
0.0022225936
0.0022207234
0.0022514789
0.0023077321
0.0024059283
0.0025499684
0.0027430081
0.0029837827
0.0032633104
0.0035801759
0.0039139632
0.0042144583
0.0044356559
0.0045671883
0.0045970833
0.004538558
0.0044362233
0.0043071501
0.004162746
0.0040140511
0.0038638157
0.003710468
0.0035570719
0.0034012959
0.0032399505
0.003076607
0.0029130932
0.0027510991
0.0025928055
0.0024365035
0.0022817839
0.002131369
0.0019847858
0.0018404394
0.0016989885
0.0015621337
0.001429542
0.0012995775
0.0011733269
0.0010514104
0.00093587513
0.00082622346
0.00072514749
0.00062914612
0.00056713788
0.00048081586
0.00066639631
-0.00051307876
0.012029278
0.012132504
0.012351555
0.012631331
0.01297025
0.013368578
0.013824467
0.014337106
0.014907801
0.015539756
0.016237947
0.017009467
0.017864139
0.018815831
0.019883467
0.021096058
0.022490732
0.024141813
0.026113736
0.028686223
0.031812765
0.037179396
0.042375902
0.081543938
0.051997765
0.0024909954
0.0011090467
0.0019690871
0.0025206739
0.0029573369
0.0032186452
0.0034034949
0.0035439558
0.0036426958
0.0037120347
0.0037615409
0.0037967361
0.0038213017
0.003837565
0.0038474097
0.003852259
0.0038529741
0.0038503026
0.0038449031
0.0038371676
0.0038273903
0.0038158465
0.0038027389
0.0037882433
0.0037724911
0.0037555441
0.0037374796
0.0037183576
0.0036982151
0.0036770951
0.0036550044
0.0036319237
0.0036078532
0.0035827791
0.0035566801
0.0035295285
0.0035012975
0.0034719333
0.0034413566
0.0034094922
0.0033762588
0.0033415786
0.0033053666
0.0032675295
0.0032279857
0.0031866407
0.0031433824
0.003098102
0.0030506933
0.0030010656
0.0029491593
0.0028949607
0.0028385498
0.0027800516
0.002719547
0.0026573434
0.0025938247
0.0025294576
0.0024652651
0.0024028131
0.002344055
0.0022924629
0.0022530499
0.0022225971
0.002220725
0.0022514788
0.0023077298
0.0024059237
0.0025499614
0.0027429987
0.002983771
0.0032632967
0.0035801605
0.0039139466
0.0042144419
0.0044356409
0.0045671759
0.0045970739
0.004538551
0.0044362184
0.0043071467
0.0041627437
0.0040140496
0.0038638147
0.0037104675
0.0035570717
0.003401296
0.0032399509
0.0030766076
0.002913094
0.0027511001
0.0025928066
0.0024365047
0.0022817852
0.0021313704
0.0019847871
0.0018404408
0.0016989899
0.0015621351
0.0014295434
0.0012995788
0.0011733282
0.0010514117
0.00093587641
0.00082622472
0.00072514875
0.00062914737
0.00056713925
0.00048081723
0.00066639782
-0.00051307786
0.012029278
0.012132505
0.012351555
0.012631331
0.01297025
0.013368579
0.013824468
0.014337107
0.014907803
0.015539758
0.01623795
0.017009472
0.017864145
0.018815838
0.019883477
0.021096072
0.02249075
0.024141837
0.026113769
0.028686275
0.031812834
0.03717953
0.042376136
0.081523406
0.052034162
0.0025083063
0.0011144118
0.0019716647
0.0025222562
0.0029584493
0.0032194863
0.0034041631
0.0035445025
0.0036431535
0.0037124252
0.0037618789
0.0037970322
0.0038215634
0.0038377984
0.0038476193
0.0038524484
0.0038531462
0.0038504596
0.003845047
0.0038373
0.0038275125
0.0038159597
0.003802844
0.0037883411
0.0037725823
0.0037556294
0.0037375595
0.0037184325
0.0036982854
0.0036771613
0.0036550668
0.0036319826
0.0036079088
0.0035828316
0.0035567298
0.0035295755
0.0035013421
0.0034719756
0.0034413967
0.0034095303
0.0033762949
0.0033416129
0.0033053992
0.0032675605
0.0032280151
0.0031866686
0.0031434089
0.0030981271
0.0030507171
0.0030010881
0.0029491805
0.0028949807
0.0028385686
0.0027800692
0.0027195635
0.0026573586
0.0025938388
0.0025294704
0.0024652767
0.0024028234
0.0023440639
0.0022924703
0.0022530559
0.0022226009
0.0022207267
0.0022514786
0.0023077271
0.0024059185
0.0025499535
0.0027429881
0.0029837578
0.0032632813
0.0035801433
0.0039139281
0.0042144236
0.0044356241
0.004567162
0.0045970632
0.0045385431
0.0044362129
0.0043071429
0.0041627412
0.004014048
0.0038638137
0.003710467
0.0035570716
0.0034012962
0.0032399514
0.0030766083
0.002913095
0.0027511012
0.0025928079
0.0024365061
0.0022817866
0.0021313719
0.0019847887
0.0018404423
0.0016989914
0.0015621366
0.0014295449
0.0012995803
0.0011733297
0.0010514132
0.00093587784
0.00082622613
0.00072515017
0.00062914877
0.00056714078
0.00048081877
0.00066639951
-0.00051307685
0.012029278
0.012132505
0.012351556
0.012631332
0.012970251
0.013368581
0.01382447
0.014337109
0.014907806
0.015539762
0.016237954
0.017009477
0.017864152
0.018815847
0.019883489
0.021096087
0.02249077
0.024141865
0.026113805
0.028686333
0.031812913
0.037179679
0.042376408
0.081499104
0.052073039
0.0025277103
0.0011204277
0.0019745562
0.002524032
0.0029596976
0.0032204303
0.0034049129
0.0035451161
0.0036436671
0.0037128634
0.0037622581
0.0037973643
0.0038218572
0.0038380603
0.0038478545
0.0038526609
0.0038533393
0.0038506358
0.0038452085
0.0038374486
0.0038276497
0.0038160866
0.0038029619
0.0037884508
0.0037726847
0.0037557251
0.0037376491
0.0037185166
0.0036983644
0.0036772356
0.0036551369
0.0036320486
0.0036079712
0.0035828906
0.0035567856
0.0035296283
0.0035013921
0.003472023
0.0034414417
0.003409573
0.0033763355
0.0033416514
0.0033054358
0.0032675952
0.0032280481
0.0031866999
0.0031434386
0.0030981553
0.0030507437
0.0030011133
0.0029492044
0.0028950032
0.0028385898
0.002780089
0.002719582
0.0026573758
0.0025938545
0.0025294849
0.0024652897
0.0024028349
0.0023440739
0.0022924785
0.0022530625
0.0022226053
0.0022207287
0.0022514784
0.0023077241
0.0024059127
0.0025499447
0.0027429762
0.0029837431
0.0032632641
0.0035801239
0.0039139074
0.0042144029
0.0044356052
0.0045671464
0.0045970513
0.0045385343
0.0044362068
0.0043071387
0.0041627383
0.0040140461
0.0038638126
0.0037104664
0.0035570714
0.0034012964
0.0032399519
0.0030766091
0.002913096
0.0027511025
0.0025928093
0.0024365076
0.0022817883
0.0021313736
0.0019847904
0.0018404441
0.0016989932
0.0015621384
0.0014295466
0.001299582
0.0011733313
0.0010514148
0.00093587944
0.00082622771
0.00072515175
0.00062915035
0.0005671425
0.00048082049
0.00066640141
-0.00051307571
0.012029278
0.012132505
0.012351557
0.012631333
0.012970252
0.013368582
0.013824471
0.014337112
0.014907809
0.015539765
0.016237959
0.017009483
0.017864159
0.018815857
0.019883502
0.021096104
0.022490792
0.024141896
0.026113847
0.028686399
0.031813002
0.037179846
0.042376723
0.08147026
0.052114295
0.0025495165
0.0011271831
0.0019778046
0.0025260277
0.0029611006
0.0032214913
0.0034057555
0.0035458055
0.0036442443
0.0037133557
0.0037626843
0.0037977376
0.0038221872
0.0038383546
0.0038481187
0.0038528996
0.0038535562
0.0038508338
0.00384539
0.0038376155
0.0038278037
0.0038162293
0.0038030943
0.0037885741
0.0037727997
0.0037558326
0.0037377498
0.003718611
0.0036984531
0.0036773191
0.0036552155
0.0036321228
0.0036080412
0.0035829568
0.0035568483
0.0035296877
0.0035014484
0.0034720763
0.0034414923
0.003409621
0.003376381
0.0033416947
0.0033054769
0.0032676342
0.0032280851
0.0031867351
0.0031434719
0.0030981869
0.0030507737
0.0030011417
0.0029492312
0.0028950285
0.0028386135
0.0027801113
0.0027196028
0.0026573951
0.0025938723
0.002529501
0.0024653043
0.0024028479
0.0023440851
0.0022924878
0.00225307
0.0022226101
0.0022207309
0.0022514782
0.0023077208
0.0024059062
0.0025499348
0.0027429629
0.0029837265
0.0032632447
0.0035801021
0.0039138841
0.0042143798
0.004435584
0.0045671289
0.004597038