/*--------------------------------*- C++ -*----------------------------------*\
| =========                 |                                                 |
| \\      /  F ield         | OpenFOAM: The Open Source CFD Toolbox           |
|  \\    /   O peration     | Version:  2206                                  |
|   \\  /    A nd           | Website:  www.openfoam.com                      |
|    \\/     M anipulation  |                                                 |
\*---------------------------------------------------------------------------*/
FoamFile
{
    version     2.0;
    format      ascii;
    arch        "LSB;label=32;scalar=64";
    class       surfaceScalarField;
    location    "500";
    object      phi;
}
// * * * * * * * * * * * * * * * * * * * * * * * * * * * * * * * * * * * * * //

dimensions      [0 3 -1 0 0 0 0];

oriented        oriented;

internalField   nonuniform List<scalar> 
25880
(
2.0046272e-06
2.6971113e-11
2.0045631e-06
6.4057105e-11
2.0044827e-06
8.0437489e-11
2.0043916e-06
9.1038295e-11
2.004287e-06
1.0467351e-10
2.0041666e-06
1.2037093e-10
2.0040286e-06
1.3797876e-10
2.0038704e-06
1.5822847e-10
2.0036884e-06
1.8197429e-10
2.0034783e-06
2.1011983e-10
2.0032345e-06
2.437984e-10
2.0029498e-06
2.8467317e-10
2.0026149e-06
3.3497187e-10
2.0022162e-06
3.9867634e-10
2.0017362e-06
4.7994031e-10
2.0011443e-06
5.919873e-10
2.0004075e-06
7.3677417e-10
1.9994245e-06
9.8297452e-10
1.9981674e-06
1.2570842e-09
1.996134e-06
2.0334569e-09
1.9935745e-06
2.5594918e-09
1.9873434e-06
6.2310882e-09
1.9850515e-06
2.2919124e-09
9.9716132e-07
9.8789015e-07
4.399277e-09
9.9276204e-07
2.1176462e-09
2.2816309e-09
1.6018732e-09
5.1577298e-10
1.3529e-09
2.4897316e-10
1.199176e-09
1.5372407e-10
1.0901374e-09
1.0903858e-10
1.0068918e-09
8.3245625e-11
9.4009661e-10
6.6795149e-11
8.8489383e-10
5.5202774e-11
8.382085e-10
4.6685333e-11
7.9795935e-10
4.024915e-11
7.6274011e-10
3.521924e-11
7.3155393e-10
3.1186185e-11
7.0366331e-10
2.7890616e-11
6.7850634e-10
2.5156976e-11
6.5565005e-10
2.2856285e-11
6.3474423e-10
2.0905825e-11
6.15515e-10
1.9229231e-11
5.9774447e-10
1.7770525e-11
5.8124396e-10
1.6500512e-11
5.6586189e-10
1.5382069e-11
5.5146975e-10
1.4392142e-11
5.3795868e-10
1.351107e-11
5.252359e-10
1.2722777e-11
5.13222e-10
1.2013897e-11
5.0184847e-10
1.137353e-11
4.910554e-10
1.0793074e-11
4.8079035e-10
1.0265053e-11
4.7100737e-10
9.7829803e-12
4.6166594e-10
9.3414268e-12
4.527304e-10
8.935539e-12
4.4416907e-10
8.5613279e-12
4.3595346e-10
8.2156178e-12
4.2805802e-10
7.8954347e-12
4.2045994e-10
7.5980846e-12
4.1313864e-10
7.3212986e-12
4.0607565e-10
7.062985e-12
3.9925455e-10
6.8210984e-12
3.9266061e-10
6.5939441e-12
3.8628026e-10
6.3803481e-12
3.8010112e-10
6.179146e-12
3.7411212e-10
5.988993e-12
3.6830351e-10
5.8086153e-12
3.6266656e-10
5.6369453e-12
3.5719355e-10
5.4730083e-12
3.5187793e-10
5.3156224e-12
3.4671435e-10
5.1635814e-12
3.4169853e-10
5.0158229e-12
3.3682723e-10
4.8713e-12
3.3209823e-10
4.7289929e-12
3.2751038e-10
4.5878579e-12
3.2306364e-10
4.4467414e-12
3.1875964e-10
4.3039955e-12
3.1460289e-10
4.1567516e-12
3.1060075e-10
4.0021395e-12
3.0676258e-10
3.8381729e-12
3.0310015e-10
3.6624246e-12
2.9962765e-10
3.4724961e-12
2.9636171e-10
3.2659416e-12
2.933247e-10
3.037008e-12
2.9054531e-10
2.779398e-12
2.8805824e-10
2.4870654e-12
2.8593307e-10
2.1251725e-12
2.8415388e-10
1.7791923e-12
2.8295649e-10
1.1973885e-12
2.8239499e-10
5.615003e-13
2.8243946e-10
-4.4478903e-14
2.8333791e-10
-8.9844791e-13
2.8516289e-10
-1.8249798e-12
2.8805236e-10
-2.8894662e-12
2.9211692e-10
-4.0645636e-12
2.9738316e-10
-5.2662421e-12
3.0379891e-10
-6.4157491e-12
3.1132165e-10
-7.5227414e-12
3.197562e-10
-8.4345467e-12
3.2852228e-10
-8.76608e-12
3.3693084e-10
-8.4085529e-12
3.4420258e-10
-7.2717388e-12
3.5003754e-10
-5.8349662e-12
3.5457208e-10
-4.5345341e-12
3.5789223e-10
-3.3201479e-12
3.6030376e-10
-2.4115353e-12
3.6202634e-10
-1.7225726e-12
3.6322299e-10
-1.1966567e-12
3.6400089e-10
-7.77896e-13
3.6442536e-10
-4.2446785e-13
3.6454511e-10
-1.1975243e-13
3.6438028e-10
1.6482525e-13
3.6392592e-10
4.5436407e-13
3.6320787e-10
7.1804599e-13
3.6226719e-10
9.4068074e-13
3.6113641e-10
1.1307774e-12
3.5985899e-10
1.277429e-12
3.584718e-10
1.3871845e-12
3.5700245e-10
1.4693546e-12
3.5548167e-10
1.5207721e-12
3.5393633e-10
1.5453419e-12
3.5237989e-10
1.5564437e-12
3.5082114e-10
1.5587469e-12
3.4927323e-10
1.5479087e-12
3.4774646e-10
1.5267713e-12
3.4624236e-10
1.5041004e-12
3.4475888e-10
1.4834856e-12
3.4329564e-10
1.4632351e-12
3.4185281e-10
1.4428283e-12
3.4043212e-10
1.4206912e-12
3.3900379e-10
1.4283335e-12
3.3758846e-10
1.4153255e-12
3.3604017e-10
1.5482903e-12
3.3448536e-10
1.5548088e-12
3.3278109e-10
1.7042734e-12
1.0212252e-12
2.0345006e-06
5.4481571e-11
2.0344352e-06
1.2941455e-10
2.0343531e-06
1.6252598e-10
2.0342602e-06
1.8394797e-10
2.0341534e-06
2.1149695e-10
2.0340305e-06
2.4321111e-10
2.0338897e-06
2.7878299e-10
2.0337283e-06
3.1968994e-10
2.0335426e-06
3.6765745e-10
2.0333282e-06
4.2451035e-10
2.0330795e-06
4.9253722e-10
2.032789e-06
5.7509652e-10
2.0324473e-06
6.766865e-10
2.0320406e-06
8.0534784e-10
2.0315511e-06
9.6946626e-10
2.0309474e-06
1.1957453e-09
2.030196e-06
1.4881239e-09
2.0291937e-06
1.9852824e-09
2.0279121e-06
2.5387353e-09
2.0258392e-06
4.1062859e-09
2.0232303e-06
5.1684046e-09
2.0168799e-06
1.2581539e-08
2.0145362e-06
4.6355989e-09
1.0183867e-06
1.9840396e-06
1.3422461e-08
1.9977263e-06
6.4794122e-09
9.2246796e-09
4.9015342e-09
2.093651e-09
4.1397194e-09
1.010788e-09
3.6693293e-09
6.2411415e-10
3.3356695e-09
4.4269841e-10
3.0809407e-09
3.3797436e-10
2.8765527e-09
2.7118321e-10
2.7076364e-09
2.2411901e-10
2.5647835e-09
1.8953826e-10
2.4416254e-09
1.6340723e-10
2.3338588e-09
1.4298589e-10
2.2384331e-09
1.266119e-10
2.1530915e-09
1.1323213e-10
2.0761147e-09
1.0213379e-10
2.0061778e-09
9.2793235e-11
1.9422091e-09
8.4874521e-11
1.8833706e-09
7.8067724e-11
1.8289955e-09
7.2145616e-11
1.7785065e-09
6.6989506e-11
1.7314398e-09
6.2448781e-11
1.6874021e-09
5.8429813e-11
1.6460604e-09
5.4852785e-11
1.6071308e-09
5.1652428e-11
1.5703702e-09
4.8774481e-11
1.535569e-09
4.6174687e-11
1.502544e-09
4.3818129e-11
1.4711346e-09
4.1674443e-11
1.4412003e-09
3.9717304e-11
1.412617e-09
3.7924666e-11
1.3852757e-09
3.6276828e-11
1.3590795e-09
3.4757593e-11
1.333941e-09
3.3354067e-11
1.3097823e-09
3.2054177e-11
1.2865334e-09
3.0846985e-11
1.2641314e-09
2.9723281e-11
1.2425198e-09
2.8674572e-11
1.2216483e-09
2.7692555e-11
1.2014719e-09
2.677035e-11
1.1819491e-09
2.5903189e-11
1.1630419e-09
2.5086346e-11
1.1447165e-09
2.431436e-11
1.1269431e-09
2.3582059e-11
1.1096949e-09
2.2885111e-11
1.0929484e-09
2.2219557e-11
1.0766834e-09
2.1580599e-11
1.0608836e-09
2.0963341e-11
1.045536e-09
2.0363469e-11
1.0306306e-09
1.9776733e-11
1.0161606e-09
1.9198991e-11
1.0021224e-09
1.8626005e-11
9.8851607e-10
1.8053092e-11
9.753465e-10
1.7473559e-11
9.6262749e-10
1.6875763e-11
9.5038158e-10
1.6248055e-11
9.3863739e-10
1.5582361e-11
9.2743098e-10
1.4868832e-11
9.1680575e-10
1.4097729e-11
9.0681258e-10
1.3259107e-11
8.9751998e-10
1.2329609e-11
8.8901571e-10
1.128367e-11
8.8140606e-10
1.0096715e-11
8.7490386e-10
8.6273676e-12
8.6946051e-10
7.2225505e-12
8.6579755e-10
4.8603386e-12
8.6408037e-10
2.2786882e-12
8.6421755e-10
-1.8166176e-13
8.6696789e-10
-3.6487898e-12
8.7255337e-10
-7.4104592e-12
8.8139598e-10
-1.1732077e-11
8.9383404e-10
-1.6502621e-11
9.0994875e-10
-2.1380953e-11
9.2958057e-10
-2.6047575e-11
9.5259896e-10
-3.0541125e-11
9.7840611e-10
-3.4241703e-11
1.0052268e-09
-3.5586778e-11
1.0309532e-09
-3.413498e-11
1.0532015e-09
-2.9520033e-11
1.0710541e-09
-2.3687568e-11
1.0849282e-09
-1.8408612e-11
1.095087e-09
-1.347897e-11
1.1024659e-09
-9.7903773e-12
1.1077368e-09
-6.9934723e-12
1.1113985e-09
-4.858381e-12
1.1137789e-09
-3.1582607e-12
1.1150778e-09
-1.7234179e-12
1.1154444e-09
-4.8629242e-13
1.1149401e-09
6.6908381e-13
1.1135499e-09
1.8445749e-12
1.1113528e-09
2.9151159e-12
1.1084745e-09
3.8189831e-12
1.1050146e-09
4.5907293e-12
1.1011059e-09
5.1861243e-12
1.0968613e-09
5.6317162e-12
1.0923654e-09
5.96529e-12
1.0877121e-09
6.1740394e-12
1.0829837e-09
6.2738034e-12
1.0782213e-09
6.3188678e-12
1.0734518e-09
6.3282013e-12
1.0687155e-09
6.2842025e-12
1.0640439e-09
6.1984013e-12
1.0594416e-09
6.1063524e-12
1.0549025e-09
6.0226477e-12
1.0504253e-09
5.9404146e-12
1.0460106e-09
5.857562e-12
1.0416636e-09
5.7676708e-12
1.0372932e-09
5.7986718e-12
1.0329629e-09
5.7457061e-12
1.0282255e-09
6.2856509e-12
1.0234698e-09
6.3104728e-12
1.0182474e-09
6.9267095e-12
4.1336455e-12
2.0946926e-06
8.2963076e-11
2.0946249e-06
1.9710179e-10
2.0945399e-06
2.4756208e-10
2.0944436e-06
2.8019714e-10
2.094333e-06
3.2215796e-10
2.0942057e-06
3.704606e-10
2.0940599e-06
4.2463555e-10
2.0938926e-06
4.8693211e-10
2.0937003e-06
5.5997763e-10
2.0934783e-06
6.4655026e-10
2.0932207e-06
7.5013374e-10
2.0929199e-06
8.758404e-10
2.0925661e-06
1.0305171e-09
2.092145e-06
1.2264037e-09
2.0916382e-06
1.4762615e-09
2.0910132e-06
1.820741e-09
2.0902356e-06
2.2658169e-09
2.0891982e-06
3.0226023e-09
2.087872e-06
3.8649702e-09
2.0857275e-06
6.2508068e-09
2.0830285e-06
7.867351e-09
2.0764599e-06
1.9150163e-08
2.0740278e-06
7.0676614e-09
1.0551731e-06
3.0028943e-06
2.3208135e-08
3.0296913e-06
1.122859e-08
2.1204224e-08
8.49451e-09
4.8277311e-09
7.174301e-09
2.330997e-09
6.3590768e-09
1.4393384e-09
5.7808126e-09
1.0209625e-09
5.3393476e-09
7.7943942e-10
4.9851311e-09
6.2539969e-10
4.6923897e-09
5.1686035e-10
4.4448183e-09
4.3710968e-10
4.23138e-09
3.768455e-10
4.0446164e-09
3.2974953e-10
3.8792405e-09
2.9198783e-10
3.7313411e-09
2.6113157e-10
3.5979381e-09
2.3553673e-10
3.4767355e-09
2.1399584e-10
3.3658762e-09
1.9573377e-10
3.2639079e-09
1.800361e-10
3.1696746e-09
1.6637888e-10
3.0821761e-09
1.5448799e-10
3.0006086e-09
1.4401634e-10
2.9242904e-09
1.3474796e-10
2.8526444e-09
1.2649877e-10
2.7851786e-09
1.1911824e-10
2.7214719e-09
1.1248125e-10
2.6611608e-09
1.0648573e-10
2.6039278e-09
1.0105115e-10
2.5494948e-09
9.6107481e-11
2.497618e-09
9.1594022e-11
2.4480828e-09
8.7459929e-11
2.4006998e-09
8.3659768e-11
2.3553012e-09
8.015619e-11
2.3117359e-09
7.6919452e-11
2.2698683e-09
7.3921714e-11
2.2295775e-09
7.1137754e-11
2.1907545e-09
6.8546328e-11
2.1533012e-09
6.6127852e-11
2.1171306e-09
6.3863182e-11
2.0821645e-09
6.1736449e-11
2.048331e-09
5.9736656e-11
2.0155645e-09
5.7852902e-11
1.9838062e-09
5.6072595e-11
1.9530045e-09
5.4383809e-11
1.923113e-09
5.277655e-11
1.8940909e-09
5.1241689e-11
1.8659034e-09
4.9768164e-11
1.838522e-09
4.8344684e-11
1.8119242e-09
4.6961297e-11
1.7860927e-09
4.5608203e-11
1.7610159e-09
4.4275848e-11
1.7366874e-09
4.2954459e-11
1.7131073e-09
4.163323e-11
1.6902841e-09
4.0296729e-11
1.6682417e-09
3.8918109e-11
1.6470193e-09
3.7470505e-11
1.6266664e-09
3.593529e-11
1.6072454e-09
3.4289755e-11
1.5888317e-09
3.2511436e-11
1.5715135e-09
3.0577371e-11
1.5554094e-09
2.8433699e-11
1.5406716e-09
2.6021457e-11
1.5274844e-09
2.3283927e-11
1.5162165e-09
1.9895219e-11
1.5067842e-09
1.6654904e-11
1.5004372e-09
1.1207347e-11
1.4974622e-09
5.2536209e-12
1.4977016e-09
-4.2098488e-13
1.5024695e-09
-8.4167418e-12
1.512151e-09
-1.7091956e-11
1.5274771e-09
-2.7058218e-11
1.5490341e-09
-3.8059532e-11
1.5769624e-09
-4.9309261e-11
1.6109856e-09
-6.0070838e-11
1.650877e-09
-7.0432468e-11
1.6955998e-09
-7.8964501e-11
1.742078e-09
-8.2064979e-11
1.7866592e-09
-7.8716246e-11
1.8252136e-09
-6.8074376e-11
1.856151e-09
-5.4624957e-11
1.8801939e-09
-4.2451555e-11
1.8977991e-09
-3.1084163e-11
1.9105868e-09
-2.2578071e-11
1.9197216e-09
-1.6128247e-11
1.9260677e-09
-1.1204465e-11
1.9301931e-09
-7.2836908e-12
1.9324444e-09
-3.9747374e-12
1.9330798e-09
-1.1216855e-12
1.932206e-09
1.5428529e-12
1.9297969e-09
4.2537404e-12
1.9259894e-09
6.7226277e-12
1.9210012e-09
8.8070953e-12
1.9150051e-09
1.0586838e-11
1.9082313e-09
1.1959929e-11
1.9008755e-09
1.2987534e-11
1.893084e-09
1.3756769e-11
1.8850199e-09
1.423818e-11
1.8768254e-09
1.4468274e-11
1.8685721e-09
1.4572187e-11
1.8603066e-09
1.4593682e-11
1.8520986e-09
1.4492218e-11
1.8440026e-09
1.4294368e-11
1.8360269e-09
1.4082075e-11
1.8281605e-09
1.3889014e-11
1.8204016e-09
1.3699341e-11
1.8127509e-09
1.3508256e-11
1.8052177e-09
1.3300929e-11
1.797644e-09
1.3372334e-11
1.7901397e-09
1.3250024e-11
1.7819302e-09
1.4495101e-11
1.7736902e-09
1.4550555e-11
1.7646344e-09
1.5982445e-11
9.5191629e-12
2.1861003e-06
1.1287053e-10
2.1860292e-06
2.682051e-10
2.1859399e-06
3.3691537e-10
2.1858387e-06
3.8133677e-10
2.1857224e-06
4.3843929e-10
2.1855887e-06
5.0416862e-10
2.1854355e-06
5.77884e-10
2.1852598e-06
6.6264501e-10
2.1850577e-06
7.6202587e-10
2.1848245e-06
8.7980525e-10
2.1845539e-06
1.0207209e-09
2.184238e-06
1.1917254e-09
2.1838664e-06
1.4021292e-09
2.1834242e-06
1.6685781e-09
2.182892e-06
2.0084217e-09
2.1822358e-06
2.476945e-09
2.1814194e-06
3.0822413e-09
2.1803306e-06
4.1114298e-09
2.1789387e-06
5.2568401e-09
2.1766886e-06
8.5009678e-09
2.1738569e-06
1.0699017e-08
2.1669665e-06
2.6040596e-08
2.1644061e-06
9.6280596e-09
1.1083736e-06
4.0589268e-06
3.4335517e-08
4.1037293e-06
1.664927e-08
3.8890472e-08
1.2595761e-08
8.8812399e-09
1.0638216e-08
4.2885414e-09
9.4293532e-09
2.6482015e-09
8.5718649e-09
1.8784508e-09
7.9172356e-09
1.4340688e-09
7.3919899e-09
1.1506454e-09
6.9579027e-09
9.5094751e-10
6.590796e-09
8.0421636e-10
6.2743045e-09
6.9333703e-10
5.9973677e-09
6.0668631e-10
5.7521456e-09
5.3720994e-10
5.5328383e-09
4.8043887e-10
5.3350269e-09
4.3334817e-10
5.1553063e-09
3.9371641e-10
4.9909234e-09
3.6011672e-10
4.839724e-09
3.3123542e-10
4.6999942e-09
3.0610867e-10
4.570251e-09
2.8423125e-10
4.4493021e-09
2.6496517e-10
4.3361372e-09
2.4791289e-10
4.2299002e-09
2.3273576e-10
4.1298616e-09
2.1915684e-10
4.035397e-09
2.0694591e-10
3.9459675e-09
1.9591518e-10
3.8611022e-09
1.8591649e-10
3.7803887e-09
1.76821e-10
3.7034657e-09
1.6851701e-10
3.6300146e-09
1.60911e-10
3.559755e-09
1.5391937e-10
3.4924378e-09
1.4747341e-10
3.4278388e-09
1.4151838e-10
3.3657575e-09
1.3600307e-10
3.3060142e-09
1.3088108e-10
3.2484472e-09
1.2611331e-10
3.1929113e-09
1.2166375e-10
3.1392773e-09
1.1749716e-10
3.0874294e-09
1.1358437e-10
3.0372609e-09
1.0990511e-10
2.9886745e-09
1.0643935e-10
2.9415832e-09
1.0316391e-10
2.8959101e-09
1.0005686e-10
2.8515869e-09
9.7099796e-11
2.8085526e-09
9.4275932e-11
2.7667559e-09
9.1564919e-11
2.7261546e-09
8.8945981e-11
2.6867151e-09
8.6400806e-11
2.6484119e-09
8.3911363e-11
2.6112277e-09
8.1460073e-11
2.5751532e-09
7.9028953e-11
2.5401883e-09
7.6598119e-11
2.5063459e-09
7.4139173e-11
2.4736612e-09
7.1602732e-11
2.4421924e-09
6.8939374e-11
2.4120128e-09
6.6114808e-11
2.3832153e-09
6.3087264e-11
2.3559114e-09
5.9815402e-11
2.3302318e-09
5.6256934e-11
2.3063527e-09
5.2312766e-11
2.2844998e-09
4.7874403e-11
2.2649463e-09
4.2837429e-11
2.248239e-09
3.6602557e-11
2.2342543e-09
3.0639572e-11
2.224844e-09
2.0617609e-11
2.2204339e-09
9.6637848e-12
2.220791e-09
-7.7811971e-13
2.227863e-09
-1.5488713e-11
2.2422211e-09
-3.1450105e-11
2.2649491e-09
-4.9786247e-11
2.2969159e-09
-7.002631e-11
2.3383299e-09
-9.0723238e-11
2.3887812e-09
-1.105221e-10
2.4479324e-09
-1.295837e-10
2.5142457e-09
-1.4527776e-10
2.5831605e-09
-1.5097981e-10
2.6492617e-09
-1.4481745e-10
2.7064275e-09
-1.2524022e-10
2.7523002e-09
-1.0049761e-10
2.7879499e-09
-7.810124e-11
2.8140549e-09
-5.7189183e-11
2.8330168e-09
-4.153995e-11
2.8465623e-09
-2.9673748e-11
2.8559727e-09
-2.0614899e-11
2.8620903e-09
-1.340126e-11
2.8654289e-09
-7.3133394e-12
2.8663713e-09
-2.0641161e-12
2.8650759e-09
2.8382936e-12
2.8615037e-09
7.8259218e-12
2.855858e-09
1.2368347e-11
2.8484616e-09
1.6203434e-11
2.8395706e-09
1.9477827e-11
2.8295264e-09
2.2004115e-11
2.8186192e-09
2.3894732e-11
2.8070661e-09
2.5309937e-11
2.7951086e-09
2.6195654e-11
2.7829579e-09
2.6619024e-11
2.7707199e-09
2.6810185e-11
2.7584639e-09
2.6849682e-11
2.7462931e-09
2.666301e-11
2.7342884e-09
2.629903e-11
2.722462e-09
2.5908425e-11
2.7107979e-09
2.5553178e-11
2.6992931e-09
2.520416e-11
2.6879488e-09
2.4852566e-11
2.6767786e-09
2.4471085e-11
2.6655487e-09
2.4602254e-11
2.6544216e-09
2.4377076e-11
2.6422495e-09
2.6667181e-11
2.6300326e-09
2.6767454e-11
2.6166017e-09
2.9413359e-11
1.7499899e-11
2.3100859e-06
1.4469117e-10
2.3100102e-06
3.438898e-10
2.309915e-06
4.3205693e-10
2.3098073e-06
4.890331e-10
2.3096835e-06
5.62256e-10
2.3095412e-06
6.4653614e-10
2.309378e-06
7.4104926e-10
2.3091909e-06
8.4971667e-10
2.3089758e-06
9.7711987e-10
2.3087275e-06
1.1281014e-09
2.3084395e-06
1.3087321e-09
2.3081033e-06
1.5279206e-09
2.3077079e-06
1.797596e-09
2.3072373e-06
2.1390874e-09
2.3066711e-06
2.5746183e-09
2.3059731e-06
3.1750319e-09
2.3051047e-06
3.9506528e-09
2.3039467e-06
5.2694047e-09
2.3024667e-06
6.7368419e-09
2.3000746e-06
1.0893014e-08
2.2970647e-06
1.3708964e-08
2.2897419e-06
3.3363358e-08
2.28701e-06
1.2360021e-08
1.1791227e-06
5.1668141e-06
4.7459002e-08
5.235393e-06
2.3065685e-08
6.328379e-08
1.745067e-08
1.4496255e-08
1.4738731e-08
7.0004804e-09
1.3063866e-08
4.3230661e-09
1.1875823e-08
3.0664941e-09
1.0968845e-08
2.3410472e-09
1.0241135e-08
1.8783556e-09
9.6397229e-09
1.5523592e-09
9.1311115e-09
1.3128278e-09
8.6926273e-09
1.1318212e-09
8.3089458e-09
9.9036786e-10
7.9692041e-09
8.7695164e-10
7.6653664e-09
7.8427651e-10
7.3913105e-09
7.0740414e-10
7.1423184e-09
6.4270846e-10
6.9145762e-09
5.8785892e-10
6.7050993e-09
5.407123e-10
6.5115125e-09
4.9969546e-10
6.3317617e-09
4.6398212e-10
6.164195e-09
4.3253187e-10
6.0074124e-09
4.0469548e-10
5.860228e-09
3.7992011e-10
5.7216312e-09
3.5775369e-10
5.5907567e-09
3.3782041e-10
5.4668581e-09
3.1981374e-10
5.3492828e-09
3.0349176e-10
5.2374596e-09
2.886442e-10
5.130888e-09
2.7508869e-10
5.0291264e-09
2.6267257e-10
4.9317864e-09
2.5125938e-10
4.8385229e-09
2.4073694e-10
4.7490253e-09
2.3101591e-10
4.6630157e-09
2.2201269e-10
4.5802453e-09
2.1365151e-10
4.50049e-09
2.0586859e-10
4.4235487e-09
1.986051e-10
4.3492423e-09
1.9180355e-10
4.2774103e-09
1.8541629e-10
4.2079052e-09
1.7941028e-10
4.1405917e-09
1.7375277e-10
4.0753497e-09
1.6840594e-10
4.0120726e-09
1.6333398e-10
3.9506655e-09
1.5850688e-10
3.8910442e-09
1.5389721e-10
3.8331374e-09
1.4947175e-10
3.7768868e-09
1.451966e-10
3.7222457e-09
1.4104187e-10
3.669179e-09
1.3697811e-10
3.6176624e-09
1.3297662e-10
3.5676833e-09
1.2900805e-10
3.5192415e-09
1.2503994e-10
3.4723548e-09
1.2102591e-10
3.4270721e-09
1.1688538e-10
3.3834738e-09
1.1253766e-10
3.3416619e-09
1.0792676e-10
3.3017646e-09
1.0298451e-10
3.2639366e-09
9.7643394e-11
3.2283592e-09
9.1834329e-11
3.1952765e-09
8.5395547e-11
3.165001e-09
7.8149905e-11
3.1379115e-09
6.9926871e-11
3.1147654e-09
5.9748692e-11
3.0953929e-09
5.0012046e-11
3.0823569e-09
3.3653617e-11
3.076248e-09
1.5772645e-11
3.0767459e-09
-1.2759494e-12
3.0865462e-09
-2.5289044e-11
3.1064416e-09
-5.134551e-11
3.1379329e-09
-8.1277564e-11
3.1822236e-09
-1.1431698e-10
3.2396024e-09
-1.4810203e-10
3.3095014e-09
-1.8042108e-10
3.3914519e-09
-2.1153425e-10
3.4833222e-09
-2.3714803e-10
3.5787951e-09
-2.4645273e-10
3.6703688e-09
-2.3639113e-10
3.7495654e-09
-2.0443682e-10
3.8131178e-09
-1.6404999e-10
3.8625067e-09
-1.2749016e-10
3.8986739e-09
-9.335633e-11
3.9249449e-09
-6.7810975e-11
3.943712e-09
-4.8440897e-11
3.9567503e-09
-3.3653149e-11
3.9652263e-09
-2.1877329e-11
3.9698523e-09
-1.1939264e-11
3.9711583e-09
-3.3701924e-12
3.9693639e-09
4.6327603e-12
3.9644151e-09
1.277474e-11
3.9565934e-09
2.0190007e-11
3.9463463e-09
2.6450497e-11
3.9340285e-09
3.1795623e-11
3.920113e-09
3.5919619e-11
3.9050019e-09
3.9005895e-11
3.8889958e-09
4.1316006e-11
3.8724296e-09
4.2761867e-11
3.8555956e-09
4.3453042e-11
3.8386407e-09
4.376506e-11
3.8216609e-09
4.3829451e-11
3.8047992e-09
4.3524731e-11
3.7881676e-09
4.2930612e-11
3.7717831e-09
4.2292947e-11
3.7556233e-09
4.171295e-11
3.7396844e-09
4.1143126e-11
3.7239678e-09
4.056912e-11
3.7084926e-09
3.9946337e-11
3.6929347e-09
4.0160074e-11
3.6775195e-09
3.9792367e-11
3.6606573e-09
4.3529359e-11
3.6437334e-09
4.3691369e-11
3.6251237e-09
4.8023041e-11
2.8553345e-11
2.4684969e-06
1.7895486e-10
2.4684154e-06
4.2542557e-10
2.4683128e-06
5.3459175e-10
2.4681968e-06
6.0510441e-10
2.4680633e-06
6.9569772e-10
2.4679099e-06
7.9996442e-10
2.4677341e-06
9.1688111e-10
2.4675325e-06
1.0512965e-09
2.4673007e-06
1.2088765e-09
2.4670332e-06
1.3956086e-09
2.466723e-06
1.6189973e-09
2.4663608e-06
1.8900556e-09
2.4659349e-06
2.2235287e-09
2.4654282e-06
2.6457834e-09
2.4648185e-06
3.1842821e-09
2.464067e-06
3.9266052e-09
2.4631322e-06
4.8854525e-09
2.4618859e-06
6.5156786e-09
2.4602933e-06
8.3293827e-09
2.4577201e-06
1.3466227e-08
2.4544825e-06
1.6946551e-08
2.4466078e-06
4.1238072e-08
2.4436568e-06
1.5311028e-08
1.2688731e-06
6.3415978e-06
6.3346433e-08
6.4409197e-06
3.0861602e-08
9.5768621e-08
2.3349716e-08
2.200814e-08
1.9721209e-08
1.0628988e-08
1.7480089e-08
6.5641857e-09
1.5890376e-08
4.6562079e-09
1.467676e-08
3.5546629e-09
1.3703034e-08
2.8520814e-09
1.2898306e-08
2.3570869e-09
1.2217753e-08
1.993381e-09
1.1631037e-08
1.718537e-09
1.1117652e-08
1.5037529e-09
1.0663062e-08
1.3315419e-09
1.0256514e-08
1.1908247e-09
9.8898153e-09
1.0741026e-09
9.5566535e-09
9.7587025e-10
9.2519257e-09
8.9258676e-10
8.9716379e-09
8.2100011e-10
8.7126113e-09
7.5872208e-10
8.4720979e-09
7.0449549e-10
8.2478875e-09
6.5674225e-10
8.0381067e-09
6.1447625e-10
7.8411688e-09
5.7685805e-10
7.6557213e-09
5.4320122e-10
7.4806065e-09
5.1293515e-10
7.3148259e-09
4.8559441e-10
7.157506e-09
4.6081166e-10
7.0078826e-09
4.382676e-10
6.8652859e-09
4.1768538e-10
6.7291253e-09
3.9883315e-10
6.5988809e-09
3.8150377e-10
6.474091e-09
3.6552689e-10
6.35434e-09
3.5076683e-10
6.2392561e-09
3.3709666e-10
6.1285062e-09
3.2440137e-10
6.0217907e-09
3.1258407e-10
5.9188404e-09
3.0155546e-10
5.8194157e-09
2.9122826e-10
5.7233018e-09
2.8153012e-10
5.6303013e-09
2.7241085e-10
5.5402333e-09
2.6382073e-10
5.4529369e-09
2.5570233e-10
5.3682696e-09
2.4800129e-10
5.2861045e-09
2.4067203e-10
5.2063288e-09
2.336729e-10
5.1288471e-09
2.2695349e-10
5.0535814e-09
2.204623e-10
4.9804693e-09
2.1415394e-10
4.9094637e-09
2.0798372e-10
4.8405323e-09
2.0190804e-10
4.773658e-09
1.9588233e-10
4.7088406e-09
1.8985728e-10
4.646104e-09
1.837625e-10
4.5855138e-09
1.7747562e-10
4.5271773e-09
1.7087417e-10
4.471231e-09
1.6387307e-10
4.4178467e-09
1.5636883e-10
4.3672311e-09
1.4825894e-10
4.3196271e-09
1.3943837e-10
4.2753611e-09
1.2966152e-10
4.2348517e-09
1.1865934e-10
4.1986057e-09
1.061728e-10
4.1676362e-09
9.0718191e-11
4.1417184e-09
7.5929854e-11
4.1242773e-09
5.1094774e-11
4.1161045e-09
2.3945403e-11
4.1167746e-09
-1.94607e-12
4.1298911e-09
-3.8405489e-11
4.1565159e-09
-7.7970363e-11
4.1986566e-09
-1.234182e-10
4.2579228e-09
-1.7358322e-10
4.3347011e-09
-2.248803e-10
4.4282314e-09
-2.7395144e-10
4.537885e-09
-3.2118783e-10
4.6608078e-09
-3.6007083e-10
4.7885491e-09
-3.7419405e-10
4.9110716e-09
-3.5891362e-10
5.0170366e-09
-3.1040179e-10
5.1020714e-09
-2.4908485e-10
5.1681543e-09
-1.9357301e-10
5.2165483e-09
-1.4175031e-10
5.251701e-09
-1.0296371e-10
5.2768134e-09
-7.3553275e-11
5.2942602e-09
-5.1099929e-11
5.3056023e-09
-3.321951e-11
5.3117928e-09
-1.8129681e-11
5.3135409e-09
-5.118361e-12
5.3111403e-09
7.0334082e-12
5.3045189e-09
1.9396145e-11
5.2940534e-09
3.0655515e-11
5.2803425e-09
4.0161333e-11
5.263861e-09
4.8277173e-11
5.2452416e-09
5.4539016e-11
5.2250223e-09
5.9225136e-11
5.2036057e-09
6.2732612e-11
5.1814396e-09
6.4927975e-11
5.1589152e-09
6.5977525e-11
5.136229e-09
6.6451225e-11
5.1135096e-09
6.6548861e-11
5.0909481e-09
6.6086189e-11
5.0686946e-09
6.5184166e-11
5.0467716e-09
6.4215894e-11
5.0251495e-09
6.3335102e-11
5.0038228e-09
6.2469769e-11
4.9827938e-09
6.1598114e-11
4.9620877e-09
6.0652426e-11
4.9412715e-09
6.0976303e-11
4.920646e-09
6.0417899e-11
4.8980859e-09
6.6089472e-11
4.8754433e-09
6.6333913e-11
4.8505415e-09
7.2924843e-11
4.3340986e-11
2.6636941e-06
2.1624595e-10
2.6636053e-06
5.1421553e-10
2.6634936e-06
6.4629628e-10
2.6633671e-06
7.3156366e-10
2.6632218e-06
8.4107752e-10
2.6630546e-06
9.6711106e-10
2.6628631e-06
1.1084222e-09
2.6626435e-06
1.2708684e-09
2.6623911e-06
1.4612955e-09
2.6620997e-06
1.6869361e-09
2.6617619e-06
1.9568537e-09
2.6613676e-06
2.2843485e-09
2.6609039e-06
2.6872265e-09
2.6603524e-06
3.1973313e-09
2.6596888e-06
3.8478153e-09
2.658871e-06
4.744456e-09
2.6578539e-06
5.9025053e-09
2.6564983e-06
7.871334e-09
2.6547663e-06
1.0061309e-08
2.6519688e-06
1.6263763e-08
2.6484494e-06
2.0465984e-08
2.6398915e-06
4.9795962e-08
2.6366685e-06
1.8533996e-08
1.3794392e-06
7.5988271e-06
8.2922886e-08
7.737436e-06
4.0503261e-08
1.3818825e-07
3.0645854e-08
3.1865548e-08
2.5883796e-08
1.5391045e-08
2.2942274e-08
9.5057078e-09
2.0855731e-08
6.7427508e-09
1.9262836e-08
5.1475576e-09
1.7984821e-08
4.1300969e-09
1.6928618e-08
3.4132897e-09
1.6035396e-08
2.8866027e-09
1.526534e-08
2.4885937e-09
1.4591531e-08
2.1775613e-09
1.3994892e-08
1.9281816e-09
1.3461307e-08
1.7244092e-09
1.2980025e-08
1.5553846e-09
1.2542759e-08
1.4131361e-09
1.2142813e-08
1.2925328e-09
1.1774944e-08
1.1888689e-09
1.143498e-08
1.0986867e-09
1.1119314e-08
1.0201615e-09
1.0825045e-08
9.5101115e-10
1.0549714e-08
8.8980669e-10
1.029124e-08
8.3533263e-10
1.0047846e-08
7.8659497e-10
9.8180136e-09
7.4276742e-10
9.600432e-09
7.0317602e-10
9.3939549e-09
6.6728879e-10
9.1975791e-09
6.3464334e-10
9.0104257e-09
6.048388e-10
8.8317194e-09
5.7753942e-10
8.660778e-09
5.5244524e-10
8.4969953e-09
5.293096e-10
8.3398261e-09
5.0793601e-10
8.1887821e-09
4.8814065e-10
8.0434265e-09
4.6975699e-10
7.9033658e-09
4.5264473e-10
7.7682467e-09
4.3667455e-10
7.6377549e-09
4.2172009e-10
7.5116084e-09
4.0767657e-10
7.389548e-09
3.9447129e-10
7.2713365e-09
3.8203225e-10
7.1567625e-09
3.702763e-10
7.0456391e-09
3.5912471e-10
6.9377996e-09
3.4851149e-10
6.8330962e-09
3.3837632e-10
6.7314034e-09
3.2864621e-10
6.6326191e-09
3.1924659e-10
6.5366614e-09
3.1011172e-10
6.4434682e-09
3.0117687e-10
6.3529973e-09
2.9237893e-10
6.2652263e-09
2.8365332e-10
6.180155e-09
2.7492863e-10
6.0978146e-09
2.6610292e-10
6.0182912e-09
2.5699904e-10
5.9417257e-09
2.4743962e-10
5.8682973e-09
2.3730145e-10
5.7982315e-09
2.2643467e-10
5.7317996e-09
2.1469078e-10
5.6693205e-09
2.0191756e-10
5.6112226e-09
1.8775935e-10
5.5580555e-09
1.7182644e-10
5.5104847e-09
1.5374359e-10
5.4698392e-09
1.313637e-10
5.4358274e-09
1.0994165e-10
5.4129382e-09
7.3984001e-11
5.4022127e-09
3.4670854e-11
5.4030975e-09
-2.8308559e-12
5.4203165e-09
-5.5624501e-11
5.4552661e-09
-1.1291995e-10
5.5105797e-09
-1.7873182e-10
5.5883697e-09
-2.5137318e-10
5.6891433e-09
-3.2565392e-10
5.8119031e-09
-3.9671127e-10
5.9558212e-09
-4.651059e-10
6.1171497e-09
-5.2139935e-10
6.2848e-09
-5.4184433e-10
6.4455988e-09
-5.1971238e-10
6.5846715e-09
-4.4947451e-10
6.6962775e-09
-3.606908e-10
6.7830079e-09
-2.8030348e-10
6.8465255e-09
-2.0526785e-10
6.8926643e-09
-1.4910254e-10
6.9256255e-09
-1.0651445e-10
6.9485255e-09
-7.3999992e-11
6.9634131e-09
-4.8107101e-11
6.971539e-09
-2.6255528e-11
6.9738343e-09
-7.4136395e-12
6.9706841e-09
1.0183577e-11
6.9619941e-09
2.8086097e-11
6.9482587e-09
4.4390925e-11
6.9302639e-09
5.8156211e-11
6.9086325e-09
6.9908529e-11
6.8841952e-09
7.8976311e-11
6.8576581e-09
8.5762195e-11
6.8295497e-09
9.0841102e-11
6.8004575e-09
9.4020176e-11
6.7708948e-09
9.5540147e-11
6.74112e-09
9.6226009e-11
6.7113017e-09
9.6367184e-11
6.6816907e-09
9.5697207e-11
6.6524838e-09
9.4391109e-11
6.6237108e-09
9.2988881e-11
6.5953327e-09
9.17132e-11
6.5673425e-09
9.0459932e-11
6.5397431e-09
8.9197545e-11
6.5125675e-09
8.7828007e-11
6.4852479e-09
8.8295954e-11
6.4581784e-09
8.7487309e-11
6.428572e-09
9.5695906e-11
6.3988574e-09
9.6048537e-11
6.3661738e-09
1.0560844e-10
6.2747956e-11
2.8985863e-06
2.5721707e-10
2.8984887e-06
6.1183028e-10
2.8983658e-06
7.6916233e-10
2.8982267e-06
8.7066845e-10
2.8980668e-06
1.0009893e-09
2.897883e-06
1.1509558e-09
2.8976723e-06
1.3190831e-09
2.8974308e-06
1.5123363e-09
2.8971533e-06
1.7388574e-09
2.896833e-06
2.0072457e-09
2.8964615e-06
2.3282753e-09
2.8960281e-06
2.7177563e-09
2.8955185e-06
3.1968522e-09
2.8949124e-06
3.8034161e-09
2.8941834e-06
4.5768376e-09
2.893285e-06
5.6428638e-09
2.892168e-06
7.0195096e-09
2.8906794e-06
9.3598703e-09
2.8887782e-06
1.196252e-08
2.8857084e-06
1.9333621e-08
2.8818468e-06
2.4327533e-08
2.8724601e-06
5.9182738e-08
2.8689053e-06
2.2088711e-08
1.5130493e-06
8.9546831e-06
1.0732288e-07
9.1431625e-06
5.2567252e-08
1.9294387e-07
3.977563e-08
4.465717e-08
3.3595264e-08
2.1571412e-08
2.9777265e-08
1.3323707e-08
2.7068992e-08
9.4510234e-09
2.5001473e-08
7.2150763e-09
2.3342683e-08
5.7888875e-09
2.1971797e-08
4.784176e-09
2.0812453e-08
4.0459463e-09
1.9812975e-08
3.4880716e-09
1.8938424e-08
3.0521122e-09
1.8164034e-08
2.7025713e-09
1.7471486e-08
2.4169572e-09
1.6846824e-08
2.1800472e-09
1.6279291e-08
1.9806694e-09
1.5760197e-08
1.8116267e-09
1.5282737e-08
1.6663288e-09
1.4841493e-08
1.5399303e-09
1.4431788e-08
1.4298672e-09
1.4049854e-08
1.3329451e-09
1.36925e-08
1.2471601e-09
1.3357024e-08
1.1708087e-09
1.3041122e-08
1.1024974e-09
1.2742821e-08
1.0410683e-09
1.246042e-08
9.855767e-10
1.2192432e-08
9.3527688e-10
1.1937555e-08
8.8952079e-10
1.1694647e-08
8.4774653e-10
1.1462703e-08
8.0948354e-10
1.1240837e-08
7.7431141e-10
1.1028262e-08
7.4188442e-10
1.0824271e-08
7.1192711e-10
1.0628229e-08
6.8418186e-10
1.0439571e-08
6.5841527e-10
1.0257785e-08
6.3443067e-10
1.0082413e-08
6.1204684e-10
9.9130463e-09
5.9108667e-10
9.7493196e-09
5.7140329e-10
9.5908961e-09
5.5289482e-10
9.437468e-09
5.3546031e-10
9.2887611e-09
5.1898321e-10
9.1445326e-09
5.0335319e-10
9.0045664e-09
4.8847775e-10
8.8686704e-09
4.7427235e-10
8.7366819e-09
4.6063468e-10
8.6084682e-09
4.4746024e-10
8.4839231e-09
4.3465688e-10
8.3629661e-09
4.2213388e-10
8.2455422e-09
4.0980275e-10
8.1316226e-09
3.9757298e-10
8.0212068e-09
3.8534444e-10
7.9143354e-09
3.7297424e-10
7.8111203e-09
3.6021415e-10
7.7117444e-09
3.4681558e-10
7.6164401e-09
3.3260576e-10
7.5255001e-09
3.1737468e-10
7.4392767e-09
3.0091413e-10
7.3581837e-09
2.8301055e-10
7.2827777e-09
2.6316541e-10
7.2137718e-09
2.4083234e-10
7.1520302e-09
2.1548519e-10
7.0992771e-09
1.8411679e-10
7.0551391e-09
1.5407966e-10
7.025433e-09
1.0369007e-10
7.0115132e-09
4.8590633e-11
7.0126686e-09
-3.9862407e-12
7.0350226e-09
-7.7978457e-11