/*--------------------------------*- C++ -*----------------------------------*\
| =========                 |                                                 |
| \\      /  F ield         | OpenFOAM: The Open Source CFD Toolbox           |
|  \\    /   O peration     | Version:  2206                                  |
|   \\  /    A nd           | Website:  www.openfoam.com                      |
|    \\/     M anipulation  |                                                 |
\*---------------------------------------------------------------------------*/
FoamFile
{
    version     2.0;
    format      ascii;
    arch        "LSB;label=32;scalar=64";
    class       volVectorField;
    location    "500";
    object      U;
}
// * * * * * * * * * * * * * * * * * * * * * * * * * * * * * * * * * * * * * //

dimensions      [0 1 -1 0 0 0 0];

internalField   nonuniform List<vector> 
13056
(
(1 3.3598793e-10 5.0282247e-25)
(0.99997469 9.0544929e-10 0)
(0.99993688 1.2901807e-09 0)
(0.99989471 1.6566318e-09 0)
(0.99984643 2.1602552e-09 0)
(0.99979074 2.8162009e-09 0)
(0.99972683 3.6574639e-09 0)
(0.99965363 4.748531e-09 0)
(0.9995696 6.1770625e-09 0)
(0.99947281 8.0577138e-09 0)
(0.99936081 1.0545788e-08 0)
(0.99923054 1.386265e-08 0)
(0.99907793 1.8318094e-08 0)
(0.99889767 2.4406407e-08 0)
(0.99868177 3.2762538e-08 0)
(0.99842067 4.4842639e-08 0)
(0.9980936 6.1559516e-08 0)
(0.99768797 8.9932379e-08 0)
(0.99711787 1.2484019e-07 0)
(0.99643492 2.1695843e-07 0)
(0.99510442 2.8991548e-07 0)
(0.99387027 7.3934681e-07 0)
(0.98893736 2.8155447e-07 -5.2974133e-21)
(0.99148605 0.00012342122 8.8945016e-18)
(0.0031463691 0.0001239226 0)
(0.0012338708 7.4614612e-08 -1.2478028e-20)
(0.00087737995 4.8318955e-08 4.1311951e-18)
(0.00072012253 6.1271345e-09 0)
(0.00062923446 3.7512149e-09 0)
(0.00056687553 2.6365555e-09 0)
(0.00052051401 1.9943966e-09 0)
(0.00048386431 1.5850191e-09 0)
(0.00045390231 1.2971055e-09 0)
(0.00042881025 1.085981e-09 0)
(0.00040734082 9.2662348e-10 0)
(0.00038866655 8.0225582e-10 0)
(0.00037221293 7.0268959e-10 0)
(0.00035756059 6.2145095e-10 0)
(0.00034439355 5.5415408e-10 0)
(0.00033246745 4.9759475e-10 0)
(0.00032159499 4.4969083e-10 0)
(0.00031161408 4.0856977e-10 2.9149906e-25)
(0.00030241385 3.7284996e-10 0)
(0.00029388781 3.4176437e-10 0)
(0.00028595428 3.1442062e-10 0)
(0.00027854378 2.9023961e-10 0)
(0.00027159762 2.687335e-10 0)
(0.00026506593 2.4950466e-10 0)
(0.00025890603 2.3222415e-10 0)
(0.00025308141 2.1662347e-10 0)
(0.00024756025 2.0248853e-10 0)
(0.0002423146 1.8963451e-10 0)
(0.00023732012 1.7790247e-10 0)
(0.00023255533 1.6715912e-10 0)
(0.00022800129 1.5728687e-10 0)
(0.00022364137 1.481884e-10 0)
(0.00021946059 1.3978443e-10 0)
(0.00021544551 1.3200226e-10 0)
(0.00021158412 1.2477703e-10 0)
(0.00020786564 1.1805364e-10 0)
(0.00020428035 1.1178226e-10 0)
(0.00020081954 1.0591599e-10 0)
(0.00019747553 1.0041561e-10 0)
(0.00019424131 9.525157e-11 0)
(0.00019111037 9.039559e-11 0)
(0.00018807685 8.5818169e-11 0)
(0.0001851356 8.1492304e-11 0)
(0.00018228202 7.7395252e-11 0)
(0.00017951201 7.3506726e-11 0)
(0.00017682198 6.9804756e-11 0)
(0.00017420898 6.6268415e-11 0)
(0.00017167063 6.2880077e-11 0)
(0.00016920504 5.9623475e-11 0)
(0.00016681088 5.6483785e-11 0)
(0.00016448729 5.3447081e-11 0)
(0.00016223395 5.0499324e-11 0)
(0.00016005117 4.7622335e-11 0)
(0.00015794029 4.4786587e-11 0)
(0.00015590448 4.1965816e-11 0)
(0.00015394794 3.9146159e-11 0)
(0.00015207583 3.6311174e-11 0)
(0.00015029476 3.3447301e-11 0)
(0.00014861228 3.0543198e-11 0)
(0.00014703747 2.7559882e-11 0)
(0.00014558366 2.445905e-11 0)
(0.00014426617 2.1213639e-11 0)
(0.00014310441 1.7564247e-11 0)
(0.00014214895 1.4209978e-11 0)
(0.00014133117 9.2939007e-12 -1.3094841e-24)
(0.00014096195 1.5881802e-11 0)
(0.00014077417 -3.7092098e-13 0)
(0.0001410139 -6.1447308e-12 0)
(0.00014167863 -1.2104165e-11 0)
(0.00014284457 -1.8485146e-11 0)
(0.00014457303 -2.5032972e-11 0)
(0.00014691292 -3.1186661e-11 0)
(0.00014984041 -3.6482008e-11 0)
(0.0001533273 -4.1016823e-11 0)
(0.00015735963 -4.4052695e-11 0)
(0.00016175272 -4.3820629e-11 0)
(0.00016610712 -4.0162893e-11 0)
(0.00017013699 -3.3171172e-11 0)
(0.00017334462 -9.5353406e-11 8.1420207e-21)
(0.00017594537 -1.8729512e-11 0)
(0.00017785277 -1.3024321e-11 0)
(0.00017924563 -8.962677e-12 0)
(0.00018024919 -6.0553832e-12 0)
(0.00018095671 -3.9724158e-12 0)
(0.00018143708 -2.4343491e-12 0)
(0.00018172752 -1.2497004e-12 0)
(0.00018185579 -3.7079829e-13 0)
(0.00018184254 4.5832792e-13 0)
(0.00018168652 1.0994032e-12 0)
(0.0001813907 1.693436e-12 0)
(0.00018097393 2.218541e-12 0)
(0.0001804522 2.6671324e-12 0)
(0.00017984578 3.0131467e-12 0)
(0.00017917773 3.2720532e-12 0)
(0.00017846181 3.4659849e-12 0)
(0.00017771179 3.5872914e-12 0)
(0.00017694457 3.6451818e-12 0)
(0.00017617004 3.6712808e-12 0)
(0.00017539174 3.6766202e-12 0)
(0.00017461491 3.6509706e-12 0)
(0.00017384743 3.6010024e-12 0)
(0.00017309168 3.5474337e-12 0)
(0.00017234682 3.4987039e-12 0)
(0.00017161164 3.4509817e-12 0)
(0.00017088698 3.402805e-12 0)
(0.00017017216 3.3505695e-12 0)
(0.00016946959 3.3683808e-12 0)
(0.00016874711 3.3385622e-12 0)
(0.00016805764 3.6502154e-12 0)
(0.00016720218 1.3833759e-11 0)
(0.00016650732 3.9726788e-12 4.8176137e-24)
(0.00016549674 9.1230356e-12 0)
(1 1.0156316e-09 0)
(0.99997457 2.7382882e-09 0)
(0.99993654 3.902292e-09 0)
(0.99989414 5.0107468e-09 0)
(0.99984559 6.5339762e-09 0)
(0.99978959 8.5178471e-09 0)
(0.99972533 1.1062097e-08 0)
(0.99965173 1.4361697e-08 0)
(0.99956724 1.8681682e-08 0)
(0.99946993 2.4368688e-08 0)
(0.99935734 3.1892208e-08 0)
(0.99922639 4.192142e-08 0)
(0.99907298 5.539276e-08 0)
(0.9988918 7.3800331e-08 0)
(0.9986748 9.9063142e-08 0)
(0.99841241 1.3558262e-07 0)
(0.99808375 1.8611594e-07 0)
(0.99767619 2.7187963e-07 0)
(0.99710344 3.7738449e-07 0)
(0.9964174 6.557872e-07 0)
(0.99508112 8.7627975e-07 0)
(0.99384165 2.2345613e-06 0)
(0.98888812 8.4868358e-07 1.9666421e-20)
(0.99144079 0.00037094073 -7.7438341e-21)
(0.0094500812 0.00037293768 0)
(0.00371978 1.2209976e-06 0)
(0.0026452115 2.7226481e-07 3.5487396e-22)
(0.0021711439 1.2843769e-07 0)
(0.001897111 7.8605735e-08 0)
(0.0017090954 5.5253686e-08 0)
(0.0015693118 4.1792209e-08 0)
(0.0014588127 3.3213962e-08 0)
(0.0013684775 2.7180985e-08 0)
(0.0012928252 2.2756086e-08 0)
(0.0012280955 1.9416491e-08 0)
(0.0011717934 1.6810233e-08 0)
(0.0011221867 1.4723707e-08 0)
(0.0010780107 1.3021302e-08 0)
(0.001038313 1.1611143e-08 0)
(0.0010023567 1.0426051e-08 0)
(0.00096957696 9.4222631e-09 -1.5452604e-24)
(0.00093948541 8.5604732e-09 -4.2874528e-25)
(0.00091174743 7.8119045e-09 0)
(0.00088604216 7.1605512e-09 0)
(0.00086212323 6.5875763e-09 0)
(0.00083978124 6.0808749e-09 0)
(0.00081883916 5.6302307e-09 0)
(0.0007991467 5.2273116e-09 0)
(0.00078057516 4.8652225e-09 0)
(0.00076301446 4.538336e-09 0)
(0.00074636866 4.2421629e-09 0)
(0.00073055353 3.9728319e-09 0)
(0.00071549563 3.7270119e-09 0)
(0.00070113022 3.5019094e-09 0)
(0.00068740021 3.2950619e-09 0)
(0.00067425544 3.1044284e-09 0)
(0.0006616508 2.928346e-09 0)
(0.00064954569 2.7652925e-09 0)
(0.00063790396 2.6139089e-09 0)
(0.00062669309 2.4730407e-09 0)
(0.00061588375 2.3416431e-09 0)
(0.00060544973 2.2187345e-09 0)
(0.00059536784 2.1034923e-09 0)
(0.00058561697 1.9952956e-09 0)
(0.00057617745 1.8935536e-09 0)
(0.00056703168 1.7976475e-09 0)
(0.00055816404 1.7070112e-09 0)
(0.00054956076 1.6211681e-09 0)
(0.00054120942 1.5396926e-09 0)
(0.00053309919 1.462125e-09 0)
(0.00052522123 1.3880278e-09 0)
(0.0005175683 1.3170295e-09 0)
(0.00051013478 1.2487882e-09 0)
(0.00050291658 1.1829934e-09 0)
(0.00049591113 1.1193531e-09 0)
(0.00048911751 1.0575732e-09 0)
(0.0004825366 9.9727219e-10 0)
(0.00047617248 9.3783174e-10 0)
(0.00047003469 8.7870078e-10 0)
(0.00046413589 8.195834e-10 0)
(0.00045849163 7.6013674e-10 0)
(0.00045312189 7.0007744e-10 0)
(0.00044804939 6.3916438e-10 0)
(0.00044330155 5.7658021e-10 0)
(0.00043891853 5.1153463e-10 0)
(0.00043494657 4.4341592e-10 0)
(0.0004314442 3.667697e-10 0)
(0.00042856378 2.9703186e-10 0)
(0.00042609895 1.9317279e-10 1.9513984e-24)
(0.00042498574 8.8680053e-11 1.025946e-24)
(0.00042442037 -6.6391416e-12 0)
(0.00042514366 -1.303301e-10 0)
(0.0004271484 -2.5494214e-10 0)
(0.00043066427 -3.8841916e-10 0)
(0.00043587602 -5.2528044e-10 0)
(0.00044293107 -6.5363895e-10 0)
(0.00045175757 -7.640017e-10 0)
(0.00046227043 -8.5854237e-10 0)
(0.00047442725 -9.2148265e-10 0)
(0.00048767118 -9.156878e-10 0)
(0.00050079822 -8.3877494e-10 0)
(0.00051294652 -6.9177502e-10 0)
(0.00052261674 -5.3638555e-10 -6.4025414e-25)
(0.00053045699 -3.9075079e-10 0)
(0.00053620743 -2.7168683e-10 0)
(0.00054040668 -1.8709852e-10 0)
(0.00054343233 -1.2649988e-10 0)
(0.00054556552 -8.3031714e-11 0)
(0.00054701385 -5.0902444e-11 0)
(0.00054788957 -2.614201e-11 0)
(0.00054827636 -6.8927164e-12 0)
(0.00054823646 8.9076064e-12 0)
(0.0005477661 2.3024004e-11 0)
(0.00054687426 3.546451e-11 0)
(0.00054561775 4.6460383e-11 0)
(0.0005440448 5.5849024e-11 0)
(0.00054221652 6.3091989e-11 0)
(0.00054020244 6.8512795e-11 0)
(0.00053804402 7.2571039e-11 0)
(0.00053578281 7.5110505e-11 0)
(0.00053346972 7.6324046e-11 0)
(0.00053113459 7.6872409e-11 0)
(0.00052878812 7.6986212e-11 0)
(0.00052644609 7.645097e-11 0)
(0.00052413221 7.5407082e-11 0)
(0.00052185373 7.4287427e-11 0)
(0.00051960806 7.3269344e-11 0)
(0.0005173916 7.2269129e-11 0)
(0.00051520687 7.1261278e-11 0)
(0.00051305179 7.016792e-11 0)
(0.00051093367 7.0545618e-11 0)
(0.00050875557 6.9902223e-11 0)
(0.00050667691 7.6471581e-11 0)
(0.00050409824 7.7904651e-11 0)
(0.00050200331 8.4222003e-11 -7.4519732e-24)
(0.00049895651 5.1095531e-11 1.1494715e-24)
(1 1.7141198e-09 0)
(0.99997443 4.6219849e-09 0)
(0.99993617 6.5874977e-09 0)
(0.99989351 8.4588276e-09 0)
(0.99984465 1.1030152e-08 0)
(0.99978831 1.4378975e-08 0)
(0.99972366 1.8673572e-08 0)
(0.99964961 2.4242953e-08 0)
(0.99956462 3.153437e-08 0)
(0.99946672 4.1132738e-08 0)
(0.99935347 5.3830241e-08 0)
(0.99922175 7.0755957e-08 0)
(0.99906747 9.3489797e-08 0)
(0.99888526 1.2455253e-07 0)
(0.99866705 1.6718136e-07 0)
(0.99840322 2.2880189e-07 0)
(0.99807279 3.1406276e-07 0)
(0.99766308 4.5875802e-07 0)
(0.99708738 6.3674049e-07 0)
(0.99639793 1.1063717e-06 0)
(0.99505524 1.4783162e-06 0)
(0.99380986 3.7695459e-06 0)
(0.98883352 1.4344756e-06 -1.0419348e-20)
(0.99139056 0.00062222288 6.839784e-55)
(0.015857327 0.00062675343 -6.8383845e-55)
(0.0062608861 3.4240294e-06 0)
(0.0044524556 7.7773582e-07 -1.9011747e-22)
(0.0036545645 3.7287364e-07 0)
(0.0031932887 2.2821614e-07 0)
(0.002876805 1.6041988e-07 0)
(0.002641508 1.2133541e-07 0)
(0.002455509 9.6429013e-08 0)
(0.0023034518 7.8913625e-08 0)
(0.0021761097 6.6066809e-08 0)
(0.0020671536 5.6370857e-08 0)
(0.0019723837 4.8804103e-08 0)
(0.0018888838 4.2746342e-08 0)
(0.0018145255 3.7803816e-08 0)
(0.0017477051 3.3709765e-08 0)
(0.0016871825 3.0269164e-08 0)
(0.0016320067 2.7354898e-08 0)
(0.0015813561 2.4852923e-08 0)
(0.0015346668 2.2679689e-08 0)
(0.0014913991 2.078865e-08 0)
(0.0014511383 1.9125178e-08 0)
(0.0014135318 1.7654114e-08 0)
(0.0013782816 1.6345796e-08 0)
(0.0013451349 1.5176034e-08 0)
(0.0013138749 1.4124812e-08 0)
(0.0012843164 1.3175792e-08 0)
(0.0012562979 1.2315938e-08 0)
(0.0012296776 1.1534014e-08 0)
(0.0012043318 1.0820346e-08 0)
(0.0011801517 1.0166826e-08 0)
(0.0011570411 9.5663045e-09 0)
(0.0011349156 9.0128559e-09 0)
(0.0011136992 8.5016517e-09 0)
(0.0010933237 8.0282734e-09 0)
(0.0010737281 7.5887755e-09 0)
(0.0010548577 7.1798057e-09 0)
(0.0010366633 6.7983313e-09 0)
(0.0010191005 6.4415024e-09 0)
(0.0010021305 6.1069309e-09 0)
(0.00098571761 5.7928144e-09 0)
(0.00096982882 5.4974367e-09 0)
(0.00095443447 5.219002e-09 0)
(0.00093950827 4.9558667e-09 0)
(0.00092502704 4.706647e-09 0)
(0.00091096989 4.4701072e-09 0)
(0.00089731857 4.2449134e-09 0)
(0.00088405819 4.0297946e-09 0)
(0.00087117661 3.8236727e-09 0)
(0.00085866432 3.6255552e-09 0)
(0.00084651447 3.4345406e-09 0)
(0.00083472272 3.2497804e-09 0)
(0.00082328753 3.0704214e-09 0)
(0.00081221039 2.8953554e-09 0)
(0.00080149814 2.7227879e-09 0)
(0.00079116687 2.5511197e-09 0)
(0.00078123788 2.3794906e-09 0)
(0.00077173734 2.206906e-09 0)
(0.00076269888 2.0325429e-09 0)
(0.00075416078 1.8556989e-09 0)
(0.00074616918 1.6740018e-09 0)
(0.00073879169 1.485156e-09 0)
(0.00073210619 1.2873861e-09 0)
(0.00072621118 1.0648701e-09 0)
(0.00072136307 8.6231543e-10 0)
(0.00071721514 5.6087238e-10 0)
(0.0007153412 2.5356749e-10 2.1744992e-24)
(0.00071439059 -1.9578598e-11 0)
(0.00071560867 -3.7834864e-10 0)
(0.00071898392 -7.4015667e-10 0)
(0.00072490274 -1.1276833e-09 0)
(0.00073367605 -1.5250328e-09 0)
(0.0007455519 -1.8977123e-09 0)
(0.00076040937 -2.2181593e-09 0)
(0.00077810514 -2.4926177e-09 0)
(0.0007985674 -2.6753112e-09 0)
(0.00082085877 -2.6585172e-09 0)
(0.00084295314 -2.435237e-09 0)
(0.00086339964 -2.0085553e-09 0)
(0.00087967634 -1.5326622e-09 0)
(0.00089287227 -1.134546e-09 0)
(0.00090255133 -7.8887412e-10 0)
(0.00090961955 -5.4325813e-10 0)
(0.00091471244 -3.6730473e-10 0)
(0.00091830319 -2.4109075e-10 0)
(0.00092074116 -1.4780046e-10 0)
(0.00092221529 -7.5909434e-11 0)
(0.00092286644 -2.012583e-11 0)
(0.00092279935 2.5941797e-11 0)
(0.00092200769 6.6840902e-11 0)
(0.00092050656 1.0296061e-10 0)
(0.00091839158 1.3488497e-10 0)
(0.000915744 1.621427e-10 0)
(0.00091266662 1.8317187e-10 0)
(0.0009092765 1.989102e-10 0)
(0.00090564342 2.1069173e-10 0)
(0.00090183734 2.1806472e-10 0)
(0.00089794393 2.2158847e-10 0)
(0.00089401342 2.2318006e-10 0)
(0.00089006382 2.2350954e-10 0)
(0.0008861217 2.2195552e-10 0)
(0.00088222696 2.1892516e-10 0)
(0.00087839182 2.1567391e-10 0)
(0.00087461189 2.1271736e-10 0)
(0.00087088116 2.0981275e-10 0)
(0.00086720382 2.0688637e-10 0)
(0.00086357641 2.0371127e-10 0)
(0.00086001122 2.0480596e-10 0)
(0.00085634517 2.029339e-10 0)
(0.00085284637 2.2200559e-10 0)
(0.00084850655 2.2252397e-10 0)
(0.00084498034 2.447134e-10 0)
(0.00083985192 1.456693e-10 0)
(1 2.442599e-09 1.077596e-24)
(0.99997427 6.5873888e-09 0)
(0.99993575 9.3899496e-09 0)
(0.9998928 1.2057601e-08 0)
(0.99984361 1.5722732e-08 0)
(0.99978688 2.049594e-08 0)
(0.99972179 2.6616942e-08 0)
(0.99964724 3.4554519e-08 0)
(0.99956168 4.4945938e-08 0)
(0.99946313 5.8624564e-08 0)
(0.99934914 7.6718995e-08 0)
(0.99921657 1.0083773e-07 0)
(0.9990613 1.3323137e-07 0)
(0.99887794 1.7749076e-07 0)
(0.99865838 2.3822661e-07 0)
(0.99839294 3.2601635e-07 0)
(0.99806053 4.4747696e-07 0)
(0.99764843 6.5359531e-07 0)
(0.99706944 9.071008e-07 0)
(0.99637618 1.5759747e-06 0)
(0.99502634 2.1057161e-06 0)
(0.99377438 5.3689042e-06 0)
(0.98877268 2.0469073e-06 0)
(0.99133454 0.00088095904 -3.5683861e-55)
(0.022460498 0.00088924115 3.5676736e-55)
(0.0088950285 7.0629317e-06 0)
(0.0063260392 1.6034198e-06 0)
(0.0051924916 7.6803574e-07 0)
(0.0045370838 4.700958e-07 0)
(0.0040874055 3.3044612e-07 0)
(0.00375308 2.4993502e-07 0)
(0.0034888054 1.9862928e-07 0)
(0.0032727574 1.6255002e-07 0)
(0.0030918256 1.3608724e-07 0)
(0.002937018 1.1611469e-07 0)
(0.002802367 1.0052815e-07 0)
(0.0026837291 8.8050034e-08 0)
(0.0025780798 7.7869185e-08 0)
(0.0024831406 6.9436083e-08 0)
(0.0023971494 6.2349031e-08 0)
(0.0023187551 5.6346082e-08 0)
(0.0022467905 5.1192425e-08 0)
(0.0021804541 4.6715988e-08 0)
(0.0021189791 4.2820761e-08 0)
(0.0020617763 3.9394307e-08 0)
(0.0020083448 3.6364177e-08 0)
(0.0019582613 3.3669279e-08 0)
(0.0019111663 3.1259783e-08 0)
(0.0018667521 2.9094458e-08 0)
(0.0018247552 2.7139652e-08 0)
(0.0017849464 2.5368514e-08 0)
(0.0017471242 2.3757894e-08 0)
(0.0017111129 2.2287873e-08 0)
(0.0016767577 2.0941743e-08 0)
(0.0016439221 1.9704782e-08 0)
(0.0016124861 1.8564783e-08 0)
(0.0015823418 1.7511799e-08 0)
(0.0015533921 1.6536729e-08 0)
(0.0015255507 1.5631447e-08 0)
(0.0014987396 1.4789047e-08 0)
(0.0014728888 1.4003283e-08 0)
(0.0014479356 1.3268284e-08 0)
(0.0014238245 1.2579131e-08 0)
(0.001400505 1.1932112e-08 0)
(0.0013779302 1.1323691e-08 0)
(0.0013560578 1.0750169e-08 0)
(0.0013348505 1.0208161e-08 0)
(0.0013142755 9.694817e-09 0)
(0.001294303 9.2075903e-09 0)
(0.0012749071 8.7437344e-09 0)
(0.0012560667 8.3006312e-09 0)
(0.0012377644 7.8760599e-09 0)
(0.0012199869 7.4679757e-09 0)
(0.0012027243 7.0745217e-09 0)
(0.0011859704 6.6939502e-09 0)
(0.0011697232 6.3245029e-09 0)
(0.0011539847 5.9638974e-09 0)
(0.0011387646 5.6084382e-09 0)
(0.0011240858 5.2548313e-09 0)
(0.0011099786 4.9013034e-09 0)
(0.0010964802 4.5458068e-09 0)
(0.0010836383 4.1866455e-09 0)
(0.0010715073 3.8223699e-09 0)
(0.0010601529 3.4480939e-09 0)
(0.001049671 3.0590887e-09 0)
(0.0010401724 2.6516929e-09 0)
(0.0010317971 2.1933343e-09 0)
(0.0010249092 1.7760433e-09 0)
(0.0010190171 1.1551426e-09 -1.1258352e-24)
(0.0010163542 5.2265957e-10 -1.1838227e-24)
(0.0010150049 -4.0512113e-11 0)
(0.0010167363 -7.7954185e-10 0)
(0.001021533 -1.5248131e-09 0)
(0.0010299436 -2.3230316e-09 0)
(0.0010424098 -3.1414626e-09 0)
(0.0010592839 -3.909066e-09 0)
(0.0010803942 -4.5690861e-09 0)
(0.0011055369 -5.1343211e-09 0)
(0.0011346094 -5.5104825e-09 0)
(0.0011662797 -5.4757874e-09 0)
(0.0011976698 -5.0158306e-09 0)
(0.0012267181 -4.137016e-09 0)
(0.0012498439 -3.1600238e-09 7.3868382e-25)
(0.0012685916 -2.3368517e-09 0)
(0.0012823436 -1.6249021e-09 0)
(0.0012923862 -1.1190031e-09 0)
(0.0012996223 -7.5658716e-10 0)
(0.0013047243 -4.9661373e-10 0)
(0.0013081884 -3.0445175e-10 0)
(0.001310283 -1.5636974e-10 0)
(0.0013112083 -4.1450435e-11 0)
(0.001311113 5.3419217e-11 0)
(0.0013099883 1.3767564e-10 0)
(0.0013078556 2.1207733e-10 0)
(0.0013048506 2.7783594e-10 0)
(0.0013010889 3.3398109e-10 0)
(0.0012967166 3.7729824e-10 0)
(0.0012918999 4.0971582e-10 0)
(0.0012867381 4.3398244e-10 0)
(0.0012813304 4.4916947e-10 0)
(0.0012757987 4.5642844e-10 0)
(0.0012702142 4.5970644e-10 0)
(0.0012646026 4.603842e-10 0)
(0.0012590017 4.5718334e-10 0)
(0.0012534681 4.5094198e-10 0)
(0.0012480191 4.4424463e-10 0)
(0.0012426486 4.3815386e-10 0)
(0.0012373481 4.3216993e-10 0)
(0.0012321234 4.2614163e-10 0)
(0.0012269696 4.1960085e-10 0)
(0.0012219043 4.2185235e-10 0)
(0.0012166958 4.179925e-10 0)
(0.0012117247 4.5726827e-10 0)
(0.0012055596 4.5875469e-10 0)
(0.0012005496 5.042678e-10 0)
(0.0011932631 3.0002163e-10 0)
(1 3.2126952e-09 0)
(0.99997409 8.6659706e-09 0)
(0.99993528 1.2354686e-08 0)
(0.999892 1.5864933e-08 0)
(0.99984243 2.0687149e-08 0)
(0.99978527 2.6967036e-08 0)
(0.99971969 3.501978e-08 0)
(0.99964457 4.5461892e-08 0)
(0.99955837 5.9131476e-08 0)
(0.9994591 7.7124456e-08 0)
(0.99934427 1.0092491e-07 0)
(0.99921075 1.3264785e-07 0)
(0.99905436 1.7525244e-07 0)
(0.99886972 2.3345988e-07 0)
(0.99864864 3.1333134e-07 0)
(0.99838139 4.2877349e-07 0)
(0.99804676 5.8847913e-07 0)
(0.99763197 8.5948304e-07 0)
(0.9970493 1.1927474e-06 0)
(0.99635177 2.072014e-06 0)
(0.99499393 2.7683772e-06 0)
(0.99373461 7.0578301e-06 0)
(0.98870457 2.6959825e-06 0)
(0.99127176 0.0011508113 0)
(0.02935307 0.0011641435 0)
(0.011661422 1.22903e-05 0)
(0.0082938773 2.7820284e-06 0)
(0.0068078466 1.3320181e-06 0)
(0.0059485234 8.1533666e-07 0)
(0.0053589384 5.7312975e-07 0)
(0.0049205924 4.3348802e-07 0)
(0.0045740997 3.4450009e-07 0)
(0.0042908386 2.8192431e-07 0)
(0.0040536184 2.3602718e-07 0)
(0.0038506508 2.0138648e-07 0)
(0.003674111 1.7435314e-07 0)
(0.0035185663 1.5271119e-07 0)
(0.0033800512 1.3505367e-07 0)
(0.003255578 1.2042746e-07 0)
(0.0031428367 1.0813589e-07 0)
(0.0030400554 9.7724444e-08 0)
(0.0029457044 8.8786069e-08 0)
(0.002858732 8.102237e-08 0)
(0.0027781336 7.4266581e-08 0)
(0.0027031364 6.8323861e-08 0)
(0.0026330836 6.3068515e-08 0)
(0.0025674204 5.8394584e-08 0)
(0.0025056752 5.4215647e-08 0)
(0.0024474448 5.0460192e-08 0)
(0.0023923838 4.7069857e-08 0)
(0.0023401915 4.3998068e-08 0)
(0.0022906037 4.1204675e-08 0)
(0.0022433901 3.8655132e-08 0)
(0.0021983479 3.6320461e-08 0)
(0.002155298 3.4175129e-08 0)
(0.002114083 3.2197966e-08 0)
(0.0020745616 3.0371716e-08 0)
(0.0020366064 2.8680599e-08 0)
(0.0020001041 2.7110518e-08 0)
(0.0019649528 2.5649496e-08 0)
(0.0019310604 2.4286702e-08 0)
(0.0018983448 2.3011953e-08 0)
(0.0018667333 2.181672e-08 0)
(0.0018361597 2.0694561e-08 0)
(0.0018065623 1.9639345e-08 0)
(0.0017778859 1.8644656e-08 0)
(0.0017500816 1.7704623e-08 0)
(0.0017231061 1.6814302e-08 0)
(0.0016969206 1.5969279e-08 0)
(0.001671491 1.5164789e-08 0)
(0.0016467897 1.4396292e-08 0)
(0.001622794 1.3659935e-08 0)
(0.0015994861 1.2952173e-08 0)
(0.0015768534 1.2269784e-08 0)
(0.0015548878 1.1609737e-08 0)
(0.0015335863 1.0968982e-08 0)
(0.0015129518 1.034356e-08 0)
(0.001492997 9.7270626e-09 0)
(0.0014737519 9.1137781e-09 0)
(0.0014552562 8.5006289e-09 0)
(0.0014375586 7.884064e-09 0)
(0.0014207219 7.2611412e-09 0)
(0.0014048172 6.6293419e-09 0)
(0.0013899306 5.9801919e-09 0)
(0.0013761882 5.3054889e-09 0)
(0.001363735 4.5988768e-09 0)
(0.0013527547 3.803898e-09 0)
(0.0013437244 3.0800223e-09 0)
(0.0013360013 2.0032378e-09 0)
(0.0013325092 9.0674594e-10 0)
(0.001330742 -7.0584467e-11 0)
(0.0013330129 -1.3523099e-09 0)
(0.001339303 -2.64491e-09 0)
(0.0013503313 -4.0292887e-09 0)
(0.0013666768 -5.4486917e-09 0)
(0.0013888011 -6.7799315e-09 0)
(0.0014164794 -7.9245884e-09 0)
(0.0014494441 -8.9047585e-09 0)
(0.0014875599 -9.5569254e-09 0)
(0.0015290804 -9.4966115e-09 0)
(0.0015702335 -8.698815e-09 0)
(0.0016083152 -7.1747753e-09 0)
(0.0016386352 -5.4832614e-09 0)
(0.0016632136 -4.0528115e-09 0)
(0.0016812436 -2.8181455e-09 0)
(0.0016944104 -1.9407618e-09 0)
(0.0017038978 -1.3122189e-09 0)
(0.0017105873 -8.6133332e-10 0)
(0.0017151292 -5.2805054e-10 0)
(0.0017178756 -2.7122113e-10 0)
(0.0017190889 -7.1898355e-11 0)
(0.0017189642 9.2632481e-11 0)
(0.0017174897 2.3877149e-10 0)
(0.0017146936 3.6781388e-10 0)
(0.0017107539 4.8186377e-10 0)
(0.0017058221 5.7923892e-10 0)
(0.0017000897 6.5436734e-10 0)
(0.0016937747 7.1059128e-10 0)
(0.0016870071 7.5267668e-10 0)
(0.0016799173 7.7901656e-10 0)
(0.0016726648 7.9160737e-10 0)
(0.0016653431 7.9729199e-10 0)
(0.001657986 7.9846598e-10 0)
(0.0016506428 7.9291469e-10 0)
(0.0016433878 7.8209085e-10 0)
(0.0016362439 7.704746e-10 0)
(0.0016292028 7.5990952e-10 0)
(0.0016222535 7.495297e-10 0)
(0.0016154036 7.3907343e-10 0)
(0.0016086467 7.2772843e-10 0)
(0.0016020058 7.3162669e-10 0)
(0.0015951774 7.2492899e-10 0)
(0.00158866 7.930247e-10 0)
(0.0015805784 7.9596957e-10 0)
(0.0015740098 8.7478464e-10 -9.5998029e-24)
(0.0015644567 5.2028038e-10 1.4808039e-24)
(1 4.0370754e-09 0)
(0.99997389 1.0892104e-08 0)
(0.99993476 1.5530978e-08 0)
(0.9998911 1.9944147e-08 0)
(0.99984111 2.6005942e-08 0)
(0.99978345 3.389979e-08 0)
(0.99971731 4.4021611e-08 0)
(0.99964157 5.7146017e-08 0)
(0.99955464 7.4326061e-08 0)
(0.99945455 9.6938637e-08 0)
(0.99933878 1.2684815e-07 0)
(0.99920417 1.6671152e-07 0)
(0.99904654 2.2024576e-07 0)
(0.99886044 2.9338116e-07 0)
(0.99863765 3.9372973e-07 0)
(0.99836836 5.3875878e-07 0)
(0.99803124 7.3937726e-07 0)
(0.99761342 1.0797833e-06 0)
(0.9970266 1.4983328e-06 0)
(0.99632427 2.6025387e-06 0)
(0.99495745 3.4770385e-06 0)
(0.99368984 8.863609e-06 0)
(0.98862801 3.3928632e-06 0)
(0.99120116 0.0014354917 0)
(0.0366307 0.0014554546 0)
(0.014601238 1.926568e-05 0)
(0.010385289 4.3801739e-06 0)
(0.0085247071 2.0972836e-06 0)
(0.0074486443 1.2838314e-06 0)
(0.0067103539 9.0245457e-07 0)
(0.0061614444 6.8257039e-07 0)
(0.0057275653 5.4244488e-07 0)
(0.0053728665 4.4391326e-07 0)
(0.0050758202 3.716437e-07 0)
(0.0048216661 3.1709807e-07 0)
(0.0046006057 2.7453135e-07 0)
(0.0044058356 2.4045414e-07 0)
(0.0042323899 2.1265092e-07 0)
(0.0040765276 1.8962078e-07 0)
(0.0039353557 1.7026687e-07 0)
(0.0038066553 1.5387313e-07 0)
(0.0036885121 1.3979899e-07 1.2714395e-24)
(0.0035796076 1.2757468e-07 0)
(0.0034786846 1.1693718e-07 -8.992383e-35)
(0.0033847752 1.0757998e-07 0)
(0.0032970573 9.9305107e-08 0)
(0.0032148356 9.194571e-08 0)
(0.0031375203 8.5365714e-08 0)
(0.0030646059 7.9452523e-08 0)
(0.0029956602 7.4114239e-08 0)
(0.0029303065 6.9277525e-08 0)
(0.0028682142 6.4879164e-08 0)
(0.0028090949 6.0864758e-08 0)
(0.0027526944 5.7188683e-08 0)
(0.0026987885 5.3810735e-08 0)
(0.0026471804 5.0697579e-08 0)
(0.0025976928 4.7822046e-08 0)
(0.0025501665 4.5159285e-08 0)
(0.0025044594 4.2687104e-08 0)
(0.002460444 4.0386644e-08 0)
(0.002418005 3.8240848e-08 0)
(0.0023770395 3.6233687e-08 0)
(0.0023374565 3.4351728e-08 0)
(0.002299173 3.2584829e-08 0)
(0.002262112 3.0923334e-08 0)
(0.0022262042 2.9357143e-08 0)
(0.0021913884 2.787701e-08 0)
(0.0021576104 2.6475153e-08 0)
(0.0021248215 2.5144618e-08 0)
(0.0020929793 2.3877905e-08 0)
(0.0020620489 2.2667865e-08 0)
(0.002032002 2.1508432e-08 0)
(0.0020028165 2.0394022e-08 0)
(0.0019744763 1.9319563e-08 0)
(0.0019469714 1.8280281e-08 0)
(0.0019202982 1.7271373e-08 0)
(0.0018944601 1.6286605e-08 0)
(0.0018694732 1.5315889e-08 0)
(0.0018453748 1.4350233e-08 0)
(0.0018222149 1.3384786e-08 0)
(0.0018000544 1.241396e-08 0)
(0.0017789717 1.1433119e-08 0)
(0.0017590563 1.0438292e-08 0)
(0.0017404157 9.4161352e-09 0)
(0.0017232079 8.3537311e-09 0)
(0.0017076146 7.2410647e-09 0)
(0.0016938657 5.9892982e-09 0)
(0.0016825586 4.8492464e-09 0)
(0.0016728903 3.153962e-09 0)
(0.0016685164 1.4275655e-09 0)
(0.0016663058 -1.1164823e-10 0)
(0.0016691503 -2.1297232e-09 0)
(0.0016770282 -4.1650635e-09 0)
(0.0016908392 -6.3448287e-09 0)
(0.0017113082 -8.5796952e-09 0)
(0.0017390129 -1.0675739e-08 0)
(0.0017736722 -1.2478002e-08 0)
(0.0018149507 -1.4021112e-08 0)
(0.0018626777 -1.5047641e-08 0)
(0.0019146665 -1.4952485e-08 0)
(0.0019661952 -1.3696204e-08 0)
(0.0020138767 -1.1296763e-08 -1.7690539e-24)
(0.0020518435 -8.6339542e-09 0)
(0.0020826184 -6.3812445e-09 0)
(0.0021051954 -4.437354e-09 0)
(0.0021216829 -3.0558852e-09 0)
(0.0021335633 -2.0662214e-09 0)
(0.0021419401 -1.3562714e-09 0)
(0.0021476277 -8.3148633e-10 0)
(0.002151067 -4.270872e-10 0)
(0.0021525866 -1.132322e-10 0)
(0.0021524307 1.458384e-10 0)
(0.0021505845 3.7594863e-10 0)
(0.0021470833 5.7913879e-10 0)
(0.0021421502 7.5871878e-10 0)
(0.0021359748 9.1204107e-10 0)
(0.0021287969 1.0303366e-09 0)
(0.0021208894 1.1188653e-09 0)
(0.0021124153 1.1851289e-09 0)
(0.0021035377 1.2266028e-09 0)
(0.0020944564 1.2464295e-09 0)
(0.0020852884 1.2553792e-09 0)
(0.0020760761 1.2572253e-09 0)
(0.0020668812 1.2484846e-09 0)
(0.0020577968 1.2314431e-09 0)
(0.0020488514 1.2131515e-09 0)
(0.0020400349 1.1965135e-09 0)
(0.0020313332 1.1801674e-09 0)
(0.0020227561 1.1637015e-09 0)
(0.0020142955 1.1458367e-09 0)
(0.0020059801 1.1519629e-09 0)
(0.0019974302 1.1414144e-09 0)
(0.0019892695 1.2485905e-09 0)
(0.0019791515 1.2532444e-09 0)
(0.0019709265 1.3775998e-09 0)
(0.0019589644 8.1892294e-10 -8.4514079e-25)
(1 4.9296331e-09 0)
(0.99997367 1.3303607e-08 0)
(0.99993416 1.8973117e-08 0)
(0.99989008 2.4365027e-08 0)
(0.99983961 3.1770062e-08 0)
(0.9997814 4.1412676e-08 0)
(0.99971463 5.3776128e-08 0)
(0.99963816 6.9806157e-08 0)
(0.99955042 9.0788489e-08 0)
(0.99944939 1.184041e-07 0)
(0.99933256 1.5492894e-07 0)
(0.99919673 2.0360622e-07 0)
(0.99903769 2.6897276e-07 0)
(0.99884994 3.5826672e-07 0)
(0.99862522 4.807769e-07 0)
(0.99835363 6.5782182e-07 0)
(0.99801369 9.0270246e-07 0)
(0.99759245 1.3181803e-06 0)
(0.99700095 1.8289516e-06 0)
(0.9962932 3.1763519e-06 0)
(0.99491625 4.2434432e-06 0)
(0.9936393 1.081603e-05 0)
(0.98854171 4.1498835e-06 0)
(0.99112155 0.0017388155 0)
(0.044392285 0.0017673244 0)
(0.017758215 2.8454161e-05 0)
(0.012631433 6.4940171e-06 0)
(0.010368666 3.1097296e-06 0)
(0.0090598068 1.9037054e-06 0)
(0.0081617942 1.3381916e-06 0)
(0.0074941284 1.0121349e-06 0)
(0.0069663916 8.0434479e-07 0)
(0.0065349657 6.5823959e-07 0)
(0.0061736635 5.510764e-07 0)
(0.0058645335 4.7019402e-07 0)
(0.0055956571 4.0707485e-07 0)
(0.0053587582 3.5654455e-07 0)
(0.0051477966 3.1531761e-07 0)
(0.004958222 2.8116834e-07 0)
(0.0047865156 2.5247045e-07 0)
(0.004629978 2.2816152e-07 0)
(0.004486282 2.0729235e-07 0)
(0.0043538222 1.8916644e-07 0)
(0.0042310706 1.7339311e-07 9.7001133e-35)
(0.0041168496 1.5951833e-07 0)
(0.0040101592 1.4724841e-07 0)
(0.003910154 1.3633597e-07 0)
(0.0038161162 1.2657921e-07 0)
(0.0037274313 1.1781119e-07 0)
(0.0036435735 1.0989565e-07 0)
(0.0035640846 1.0272383e-07 0)
(0.0034885624 9.6201995e-08 0)
(0.0034166563 9.0249485e-08 0)
(0.003348057 8.4798649e-08 0)
(0.003282492 7.9789875e-08 0)
(0.0032197216 7.5173733e-08 0)
(0.0031595304 7.0909935e-08 0)
(0.0031017247 6.6961633e-08 0)
(0.0030461317 6.329592e-08 0)
(0.0029925961 5.9884833e-08 0)
(0.002940978 5.6703079e-08 0)
(0.0028911521 5.3726894e-08 0)
(0.0028430077 5.0936359e-08 0)
(0.0027964439 4.8316433e-08 0)
(0.0027513669 4.5852798e-08 0)
(0.0027076925 4.3530477e-08 0)
(0.0026653462 4.1335762e-08 0)
(0.0026242623 3.9257112e-08 0)
(0.0025843815 3.7284218e-08 0)
(0.002545652 3.5405958e-08 0)
(0.0025080315 3.3611733e-08 0)
(0.0024714856 3.1892547e-08 0)
(0.0024359873 3.0240119e-08 0)
(0.0024015173 2.8646929e-08 0)
(0.0023680631 2.7105896e-08 0)
(0.0023356205 2.5609898e-08 0)
(0.0023041936 2.4149691e-08 0)
(0.0022738021 2.2710321e-08 0)
(0.0022444913 2.1278451e-08 0)
(0.0022163219 1.9846888e-08 0)
(0.002189368 1.8407348e-08 0)
(0.0021637252 1.6952953e-08 0)
(0.002139502 1.5477803e-08 0)
(0.0021168296 1.3962115e-08 0)
(0.0020958999 1.2386728e-08 0)
(0.0020769341 1.0736783e-08 0)
(0.002060212 8.8806484e-09 0)
(0.0020464595 7.1897407e-09 0)
(0.0020347032 4.6763229e-09 0)
(0.0020293813 2.1164834e-09 0)
(0.0020266954 -1.6630672e-10 0)
(0.0020301563 -3.1585386e-09 0)
(0.0020397401 -6.1766292e-09 0)
(0.0020565403 -9.4087332e-09 0)
(0.0020814384 -1.2722472e-08 0)
(0.0021151371 -1.5830371e-08 0)
(0.0021572946 -1.8502658e-08 0)
(0.0022075026 -2.0790429e-08 0)
(0.0022655519 -2.2312039e-08 0)
(0.002328783 -2.2170684e-08 0)
(0.0023914545 -2.0307731e-08 0)
(0.0024494452 -1.6750286e-08 0)
(0.0024956257 -1.2802022e-08 0)
(0.0025330553 -9.4618604e-09 0)
(0.0025605161 -6.5797279e-09 0)
(0.0025805705 -4.5313212e-09 0)
(0.0025950213 -3.06387e-09 0)
(0.0026052106 -2.0111521e-09 0)
(0.002612129 -1.2329852e-09 0)
(0.0026163126 -6.3333496e-10 0)
(0.0026181613 -1.679402e-10 0)
(0.0026179718 2.1622133e-10 0)
(0.0026157266 5.5743424e-10 0)