# Region        : all region0
# Cells         : 7480
# Volume        : 2.33333000e+00
# Time          	min(U)
1               	(5.25712623e-01 -4.26334966e-19 -2.53616040e-17)
2               	(6.41839680e-01 -1.63347870e-04 -4.42850273e-16)
3               	(3.68303124e-01 -7.34706856e-03 -1.70438133e-15)
4               	(3.12783580e-01 -5.89515141e-03 -5.08066538e-16)
5               	(2.32001064e-01 -3.84431858e-03 -2.45890467e-19)
6               	(1.86375834e-01 -1.60658986e-03 -2.76721643e-19)
7               	(1.57701977e-01 -5.04835387e-04 -3.01403173e-19)
8               	(1.38636961e-01 -1.37940587e-04 -4.15410193e-17)
9               	(1.25137893e-01 -1.05694335e-04 -7.32538534e-18)
10              	(1.15072346e-01 -8.96632234e-05 -4.77459847e-17)
11              	(1.07256922e-01 -6.05692959e-05 -1.02209495e-18)
12              	(1.00993979e-01 -3.20947745e-05 -2.68078298e-18)
13              	(9.58496149e-02 -1.68145494e-05 -7.95475628e-17)
14              	(9.15419285e-02 -8.90232625e-06 -2.22383933e-17)
15              	(8.78812135e-02 -3.73400235e-06 -8.23276472e-18)
16              	(8.47358103e-02 -6.12151834e-07 -1.74228883e-18)
17              	(8.20116159e-02 3.47288487e-07 -3.75128472e-17)
18              	(7.96393919e-02 6.09891964e-07 -2.81617298e-17)
19              	(7.75667574e-02 7.59482286e-07 -9.79621127e-18)
20              	(7.57530461e-02 8.61952020e-07 -2.40264614e-18)
21              	(7.41659310e-02 9.30364412e-07 -3.56884728e-18)
22              	(7.27791992e-02 1.13260883e-06 -1.31389791e-17)
23              	(7.15711765e-02 9.06955833e-07 -9.53743588e-18)
24              	(7.05235324e-02 9.47218059e-07 -1.41886820e-17)
25              	(6.96205496e-02 1.00566309e-06 -2.74095362e-17)
26              	(6.88485171e-02 1.03594400e-06 -1.93635762e-17)
27              	(6.81952985e-02 1.04799548e-06 -1.25095849e-18)
28              	(6.76500051e-02 1.05189486e-06 -1.32441391e-18)
29              	(6.72027539e-02 1.05216512e-06 -6.84369228e-19)
30              	(6.68444873e-02 1.05151189e-06 -1.19233562e-17)
31              	(6.65668441e-02 1.04914529e-06 -2.44140218e-17)
32              	(6.63620690e-02 1.04872155e-06 -1.78593882e-17)
33              	(6.62229490e-02 1.05169014e-06 -3.00614727e-19)
34              	(6.61427599e-02 1.05358497e-06 -2.23817894e-17)
35              	(6.61152270e-02 1.05786189e-06 -2.98983563e-19)
36              	(6.61345076e-02 1.06706571e-06 -1.44831722e-18)
37              	(6.61951791e-02 1.07926594e-06 -2.10935332e-17)
38              	(6.62922284e-02 1.09511310e-06 -1.92449133e-17)
39              	(6.64210443e-02 1.10968454e-06 -3.59129148e-19)
40              	(6.65774051e-02 1.11807975e-06 -3.29639092e-19)
41              	(6.67574619e-02 1.12369537e-06 -3.35919093e-19)
42              	(6.69577216e-02 1.12975617e-06 -1.64090172e-17)
43              	(6.71750299e-02 1.13668233e-06 -1.23799069e-17)
44              	(6.74065545e-02 1.14715863e-06 -3.53698305e-19)
45              	(6.76497756e-02 1.15870016e-06 -4.03546857e-19)
46              	(6.79024613e-02 1.16947835e-06 -3.65660650e-19)
47              	(6.81626455e-02 1.17834493e-06 -4.43015903e-19)
48              	(6.84286008e-02 1.18262584e-06 -5.99513509e-18)
49              	(6.86988171e-02 1.18391867e-06 -1.36615148e-17)
50              	(6.89719817e-02 1.18427165e-06 -3.88840120e-19)
51              	(6.92469599e-02 1.18364294e-06 -5.57055535e-18)
52              	(6.95227720e-02 1.18428507e-06 -5.55773788e-18)
53              	(6.97984460e-02 1.18516880e-06 -4.15368682e-18)
54              	(7.00734478e-02 1.18513791e-06 -1.10736656e-17)
55              	(7.03471499e-02 1.18336600e-06 -4.99213410e-18)
56              	(7.06190365e-02 1.17936536e-06 -3.74661984e-18)
57              	(7.08886813e-02 1.17378452e-06 -9.92437993e-18)
58              	(7.11557368e-02 1.16800794e-06 -8.48181185e-19)
59              	(7.14199346e-02 1.16272884e-06 -4.46570941e-19)
60              	(7.16811208e-02 1.15758203e-06 -4.40797911e-18)
61              	(7.19390266e-02 1.15301842e-06 -3.26768600e-18)
62              	(7.21934357e-02 1.14898561e-06 -4.28819859e-18)
63              	(7.24442649e-02 1.14487748e-06 -7.82106024e-19)
64              	(7.26914471e-02 1.14036726e-06 -4.76042328e-19)
65              	(7.29349373e-02 1.13582871e-06 -4.81277591e-19)
66              	(7.31747123e-02 1.13135582e-06 -4.86235469e-19)
67              	(7.34107689e-02 1.12730225e-06 -2.89862838e-18)
68              	(7.36431207e-02 1.12391546e-06 -4.95464882e-19)
69              	(7.38717970e-02 1.12131944e-06 -6.97794805e-18)
70              	(7.40968410e-02 1.11949671e-06 -5.36935574e-18)
71              	(7.43183065e-02 1.11850770e-06 -5.08184724e-19)
72              	(7.45362562e-02 1.11784072e-06 -3.75011631e-18)
73              	(7.47507604e-02 1.11698260e-06 -8.27374927e-18)
74              	(7.49618951e-02 1.11589240e-06 -1.30952640e-17)
75              	(7.51697412e-02 1.11494203e-06 -1.83682001e-17)
76              	(7.53743749e-02 1.11423308e-06 -2.20929026e-17)
77              	(7.55757592e-02 1.11390505e-06 -1.95222380e-17)
78              	(7.57741438e-02 1.11433359e-06 -1.92066587e-17)
79              	(7.59696027e-02 1.11468028e-06 -1.88518937e-17)
80              	(7.61622187e-02 1.11437063e-06 -1.85479046e-17)
81              	(7.63520759e-02 1.11352195e-06 -1.82849604e-17)
82              	(7.65392575e-02 1.11255486e-06 -1.80485191e-17)
83              	(7.67238446e-02 1.11167244e-06 -1.78300921e-17)
84              	(7.69059161e-02 1.11076496e-06 -1.76287563e-17)
85              	(7.70855471e-02 1.10954784e-06 -1.75550414e-17)
86              	(7.72628095e-02 1.10804485e-06 -1.75301158e-17)
87              	(7.74377718e-02 1.10638837e-06 -1.75189964e-17)
88              	(7.76104993e-02 1.10452513e-06 -1.75126576e-17)
89              	(7.77810535e-02 1.10262647e-06 -1.75083294e-17)
90              	(7.79494923e-02 1.10075845e-06 -1.75048280e-17)
91              	(7.81158692e-02 1.09853311e-06 -1.75016177e-17)
92              	(7.82802342e-02 1.09595577e-06 -1.74984763e-17)
93              	(7.84426342e-02 1.09321952e-06 -1.74954039e-17)
94              	(7.86031131e-02 1.09033502e-06 -1.74924037e-17)
95              	(7.87617119e-02 1.08728550e-06 -1.74895330e-17)
96              	(7.89184693e-02 1.08404243e-06 -1.74868189e-17)
97              	(7.90734205e-02 1.08034568e-06 -1.74842757e-17)
98              	(7.92265986e-02 1.07641337e-06 -1.74819125e-17)
99              	(7.93780347e-02 1.07241746e-06 -1.74797119e-17)
100             	(7.95277582e-02 1.06846821e-06 -1.74776834e-17)
101             	(7.96757968e-02 1.06444980e-06 -1.74757983e-17)
102             	(7.98221772e-02 1.06025015e-06 -1.74740509e-17)
103             	(7.99669243e-02 1.05548478e-06 -1.74729373e-17)
104             	(8.01100618e-02 1.05044241e-06 -1.74719877e-17)
105             	(8.02516127e-02 1.04533616e-06 -1.74711847e-17)
106             	(8.03915989e-02 1.04018460e-06 -1.74704743e-17)
107             	(8.05300423e-02 1.03516684e-06 -1.74698154e-17)
108             	(8.06669641e-02 1.03015556e-06 -1.74691866e-17)
109             	(8.08023850e-02 1.02487221e-06 -1.74685761e-17)
110             	(8.09363250e-02 1.01890311e-06 -1.74679866e-17)
111             	(8.10688039e-02 1.01268821e-06 -1.74674220e-17)
112             	(8.11998414e-02 1.00650695e-06 -1.74668810e-17)
113             	(8.13294570e-02 1.00043139e-06 -1.74663609e-17)
114             	(8.14576706e-02 9.94536425e-07 -1.74658566e-17)
115             	(8.15845015e-02 9.88777924e-07 -1.74653679e-17)
116             	(8.17099692e-02 9.82784041e-07 -1.74648927e-17)
117             	(8.18340925e-02 9.76208208e-07 -1.74644304e-17)
118             	(8.19568908e-02 9.69158337e-07 -1.74639844e-17)
119             	(8.20783831e-02 9.62236207e-07 -1.74635595e-17)
120             	(8.21985887e-02 9.55409419e-07 -1.74631589e-17)
121             	(8.23175268e-02 9.48622672e-07 -1.74627865e-17)
122             	(8.24352167e-02 9.41889323e-07 -1.74624413e-17)
123             	(8.25516775e-02 9.35229871e-07 -1.74621245e-17)
124             	(8.26669278e-02 9.28181956e-07 -1.74618330e-17)
125             	(8.27809865e-02 9.20711633e-07 -1.74615615e-17)
126             	(8.28938725e-02 9.12928084e-07 -1.74613062e-17)
127             	(8.30056046e-02 9.05328189e-07 -1.74610637e-17)
128             	(8.31162015e-02 8.97806427e-07 -1.74608318e-17)
129             	(8.32256820e-02 8.90246269e-07 -1.74606101e-17)
130             	(8.33340647e-02 8.82663430e-07 -1.74604003e-17)
131             	(8.34413676e-02 8.75109674e-07 -1.74602023e-17)
132             	(8.35476087e-02 8.67331259e-07 -1.74600200e-17)
133             	(8.36528057e-02 8.59054590e-07 -1.74598543e-17)
134             	(8.37569763e-02 8.50465711e-07 -1.74597047e-17)
135             	(8.38601384e-02 8.41853205e-07 -1.74595729e-17)
136             	(8.39623095e-02 8.33399347e-07 -1.74594576e-17)
137             	(8.40635070e-02 8.24949570e-07 -1.74593591e-17)
138             	(8.41637482e-02 8.16439472e-07 -1.74592744e-17)
139             	(8.42630498e-02 8.07874793e-07 -1.74592063e-17)
140             	(8.43614284e-02 7.99304264e-07 -1.74591500e-17)
141             	(8.44589000e-02 7.90492380e-07 -1.74591045e-17)
142             	(8.45554806e-02 7.81160432e-07 -1.74591099e-17)
143             	(8.46511857e-02 7.71443473e-07 -1.74591712e-17)
144             	(8.47460315e-02 7.61686361e-07 -1.74592898e-17)
145             	(8.48400335e-02 7.52177722e-07 -1.74594563e-17)
146             	(8.49332069e-02 7.42753885e-07 -1.74596438e-17)
147             	(8.50255670e-02 7.33307051e-07 -1.74598199e-17)
148             	(8.51171284e-02 7.23787084e-07 -1.74599582e-17)
149             	(8.52079056e-02 7.14241834e-07 -1.74600405e-17)
150             	(8.52979125e-02 7.04717777e-07 -1.74600629e-17)
151             	(8.53871630e-02 6.94865444e-07 -1.74600324e-17)
152             	(8.54756702e-02 6.84525415e-07 -1.74599614e-17)
153             	(8.55634474e-02 6.73919154e-07 -1.74598645e-17)
154             	(8.56505082e-02 6.63365782e-07 -1.74597544e-17)
155             	(8.57368656e-02 6.53106525e-07 -1.74596411e-17)
156             	(8.58225322e-02 6.42976956e-07 -1.74595349e-17)
157             	(8.59075208e-02 6.32842748e-07 -1.74594381e-17)
158             	(8.59918437e-02 6.22629764e-07 -1.74593556e-17)
159             	(8.60755130e-02 6.12339401e-07 -1.74592812e-17)
160             	(8.61585403e-02 6.02104772e-07 -1.74592162e-17)
161             	(8.62409374e-02 5.91966560e-07 -1.74591600e-17)
162             	(8.63227153e-02 5.81463526e-07 -1.74591084e-17)
163             	(8.64038850e-02 5.70660871e-07 -1.74590579e-17)
164             	(8.64844576e-02 5.59819444e-07 -1.74590099e-17)
165             	(8.65644440e-02 5.48984815e-07 -1.74589631e-17)
166             	(8.66438552e-02 5.38289462e-07 -1.74589159e-17)
167             	(8.67227016e-02 5.27692104e-07 -1.74588700e-17)
168             	(8.68009936e-02 5.17104803e-07 -1.74588243e-17)
169             	(8.68787418e-02 5.06541883e-07 -1.74587779e-17)
170             	(8.69559564e-02 4.95937691e-07 -1.74587324e-17)
171             	(8.70326474e-02 4.85341833e-07 -1.74586878e-17)
172             	(8.71088244e-02 4.74837953e-07 -1.74586448e-17)
173             	(8.71844973e-02 4.64525390e-07 -1.74586018e-17)
174             	(8.72596757e-02 4.54159776e-07 -1.74585599e-17)
175             	(8.73343692e-02 4.43530952e-07 -1.74585191e-17)
176             	(8.74085871e-02 4.32748031e-07 -1.74584795e-17)
177             	(8.74823388e-02 4.21977597e-07 -1.74584413e-17)
178             	(8.75556336e-02 4.11292001e-07 -1.74584039e-17)
179             	(8.76284808e-02 4.00657776e-07 -1.74583687e-17)
180             	(8.77008898e-02 3.90054360e-07 -1.74583334e-17)
181             	(8.77728700e-02 3.79409835e-07 -1.74582991e-17)
182             	(8.78444307e-02 3.68611875e-07 -1.74582657e-17)
183             	(8.79155810e-02 3.57790645e-07 -1.74582337e-17)
184             	(8.79863299e-02 3.47021087e-07 -1.74582025e-17)
185             	(8.80566861e-02 3.36385831e-07 -1.74581715e-17)
186             	(8.81266586e-02 3.25995244e-07 -1.74581423e-17)
187             	(8.81962565e-02 3.15782050e-07 -1.74581125e-17)
188             	(8.82654887e-02 3.05631919e-07 -1.74580850e-17)
189             	(8.83343639e-02 2.95402661e-07 -1.74580576e-17)
190             	(8.84028906e-02 2.84953643e-07 -1.74580307e-17)
191             	(8.84710774e-02 2.74414578e-07 -1.74580042e-17)
192             	(8.85389329e-02 2.63930217e-07 -1.74579787e-17)
193             	(8.86064657e-02 2.53563863e-07 -1.74579537e-17)
194             	(8.86736845e-02 2.43325498e-07 -1.74579288e-17)
195             	(8.87405980e-02 2.33138913e-07 -1.74579046e-17)
196             	(8.88072150e-02 2.22910468e-07 -1.74578815e-17)
197             	(8.88735441e-02 2.12625895e-07 -1.74578581e-17)
198             	(8.89395940e-02 2.02356503e-07 -1.74578350e-17)
199             	(8.90053729e-02 1.92178578e-07 -1.74578130e-17)
200             	(8.90708890e-02 1.82075487e-07 -1.74577911e-17)
201             	(8.91361507e-02 1.72145869e-07 -1.74577702e-17)
202             	(8.92011664e-02 1.62436117e-07 -1.74577493e-17)
203             	(8.92659444e-02 1.52884006e-07 -1.74577285e-17)
204             	(8.93304929e-02 1.43423353e-07 -1.74577077e-17)
205             	(8.93948200e-02 1.34034299e-07 -1.74576880e-17)
206             	(8.94589338e-02 1.24722234e-07 -1.74576678e-17)
207             	(8.95228420e-02 1.15495565e-07 -1.74576484e-17)
208             	(8.95865527e-02 1.06337058e-07 -1.74576287e-17)
209             	(8.96500731e-02 9.71421701e-08 -1.74576096e-17)
210             	(8.97134108e-02 8.79808872e-08 -1.74575905e-17)
211             	(8.97765731e-02 7.88858732e-08 -1.74575715e-17)
212             	(8.98395676e-02 6.98954201e-08 -1.74575532e-17)
213             	(8.99024018e-02 6.10142360e-08 -1.74575354e-17)
214             	(8.99650833e-02 5.21825876e-08 -1.74575170e-17)
215             	(9.00276195e-02 4.33670670e-08 -1.74574991e-17)
216             	(9.00900179e-02 3.46070370e-08 -1.74574816e-17)
217             	(9.01522857e-02 2.59155290e-08 -1.74574646e-17)
218             	(9.02144297e-02 1.72945141e-08 -1.74574479e-17)
219             	(9.02764566e-02 8.75177734e-09 -1.74574314e-17)
220             	(9.03383733e-02 3.30645553e-10 -1.74574149e-17)
221             	(9.04001865e-02 -7.85422941e-09 -1.74573991e-17)
222             	(9.04619029e-02 -1.52832432e-08 -1.74573831e-17)
223             	(9.05235291e-02 -2.24307438e-08 -1.74573667e-17)
224             	(9.05850712e-02 -2.94333580e-08 -1.74573513e-17)
225             	(9.06465355e-02 -3.63486619e-08 -1.74573359e-17)
226             	(9.07079280e-02 -4.31895686e-08 -1.74573201e-17)
227             	(9.07692548e-02 -4.99366645e-08 -1.74573048e-17)
228             	(9.08305217e-02 -5.65407196e-08 -1.74572897e-17)
229             	(9.08917344e-02 -6.30124773e-08 -1.74572747e-17)
230             	(9.09528986e-02 -6.93777144e-08 -1.74572601e-17)
231             	(9.10140196e-02 -7.56460424e-08 -1.74572455e-17)
232             	(9.10751029e-02 -8.18090597e-08 -1.74572310e-17)
233             	(9.11361537e-02 -8.78698226e-08 -1.74572174e-17)
234             	(9.11971771e-02 -9.38193252e-08 -1.74572038e-17)
235             	(9.12581781e-02 -9.96407594e-08 -1.74571909e-17)
236             	(9.13191615e-02 -1.05350965e-07 -1.74571788e-17)
237             	(9.13801320e-02 -1.10969453e-07 -1.74571671e-17)
238             	(9.14410943e-02 -1.16555782e-07 -1.74571561e-17)
239             	(9.15020527e-02 -1.22075416e-07 -1.74571441e-17)
240             	(9.15630117e-02 -1.27478318e-07 -1.74571314e-17)
241             	(9.16239755e-02 -1.32765769e-07 -1.74571205e-17)
242             	(9.16849486e-02 -1.37959528e-07 -1.74571115e-17)
243             	(9.17459351e-02 -1.43047062e-07 -1.74571048e-17)
244             	(9.18069391e-02 -1.48017168e-07 -1.74571027e-17)
245             	(9.18679645e-02 -1.52867307e-07 -1.74571066e-17)
246             	(9.19290150e-02 -1.57587648e-07 -1.74571174e-17)
247             	(9.19900943e-02 -1.62151280e-07 -1.74571381e-17)
248             	(9.20512059e-02 -1.66519424e-07 -1.74571746e-17)
249             	(9.21123533e-02 -1.70633393e-07 -1.74572137e-17)
250             	(9.21735400e-02 -1.74510149e-07 -1.74572561e-17)
251             	(9.22347694e-02 -1.78198722e-07 -1.74572990e-17)
252             	(9.22960446e-02 -1.81732880e-07 -1.74573419e-17)
253             	(9.23573687e-02 -1.85114396e-07 -1.74573835e-17)
254             	(9.24187446e-02 -1.88331614e-07 -1.74574232e-17)
255             	(9.24801752e-02 -1.91351025e-07 -1.74574601e-17)
256             	(9.25416631e-02 -1.94158163e-07 -1.74574961e-17)
257             	(9.26032108e-02 -1.96745424e-07 -1.74575316e-17)
258             	(9.26648207e-02 -1.99126800e-07 -1.74575669e-17)
259             	(9.27264954e-02 -2.01302956e-07 -1.74576027e-17)
260             	(9.27882371e-02 -2.03261849e-07 -1.74576381e-17)
261             	(9.28500482e-02 -2.05013516e-07 -1.74576767e-17)
262             	(9.29119308e-02 -2.06530625e-07 -1.74577143e-17)
263             	(9.29738873e-02 -2.07806083e-07 -1.74577531e-17)
264             	(9.30359199e-02 -2.08849086e-07 -1.74577929e-17)
265             	(9.30980307e-02 -2.09658073e-07 -1.74578356e-17)
266             	(9.31602218e-02 -2.10217257e-07 -1.74578778e-17)
267             	(9.32224954e-02 -2.10520482e-07 -1.74579208e-17)
268             	(9.32848534e-02 -2.10570592e-07 -1.74579644e-17)
269             	(9.33472979e-02 -2.10362826e-07 -1.74580093e-17)
270             	(9.34098309e-02 -2.09878903e-07 -1.74580544e-17)
271             	(9.34724544e-02 -2.09116963e-07 -1.74581002e-17)
272             	(9.35351701e-02 -2.08072103e-07 -1.74581466e-17)
273             	(9.35979799e-02 -2.06746098e-07 -1.74581934e-17)
274             	(9.36608856e-02 -2.05137305e-07 -1.74582408e-17)
275             	(9.37238887e-02 -2.03251172e-07 -1.74582882e-17)
276             	(9.37869911e-02 -2.01084012e-07 -1.74583351e-17)
277             	(9.38501946e-02 -1.98638429e-07 -1.74583821e-17)
278             	(9.39135008e-02 -1.95908484e-07 -1.74584281e-17)
279             	(9.39769115e-02 -1.92831820e-07 -1.74584743e-17)
280             	(9.40404280e-02 -1.89325079e-07 -1.74585203e-17)
281             	(9.41040520e-02 -1.85490406e-07 -1.74585652e-17)
282             	(9.41677852e-02 -1.81384681e-07 -1.74586111e-17)
283             	(9.42316293e-02 -1.77025086e-07 -1.74586575e-17)
284             	(9.42955862e-02 -1.72354983e-07 -1.74587029e-17)
285             	(9.43596575e-02 -1.67338872e-07 -1.74587485e-17)
286             	(9.44238450e-02 -1.62029025e-07 -1.74587944e-17)
287             	(9.44881502e-02 -1.56431638e-07 -1.74588405e-17)
288             	(9.45525746e-02 -1.50554991e-07 -1.74588878e-17)
289             	(9.46171201e-02 -1.44421947e-07 -1.74589354e-17)
290             	(9.46817881e-02 -1.38037657e-07 -1.74589812e-17)
291             	(9.47465804e-02 -1.31325561e-07 -1.74590255e-17)
292             	(9.48114986e-02 -1.24243930e-07 -1.74590741e-17)
293             	(9.48765441e-02 -1.16843141e-07 -1.74591196e-17)
294             	(9.49417188e-02 -1.09144217e-07 -1.74591679e-17)
295             	(9.50070245e-02 -1.01176731e-07 -1.74592153e-17)
296             	(9.50724630e-02 -9.29596986e-08 -1.74592635e-17)
297             	(9.51380362e-02 -8.45323765e-08 -1.74593125e-17)
298             	(9.52037457e-02 -7.59387984e-08 -1.74593596e-17)
299             	(9.52695932e-02 -6.72505721e-08 -1.74594057e-17)
300             	(9.53355807e-02 -5.84848286e-08 -1.74594526e-17)
301             	(9.54017096e-02 -4.94795522e-08 -1.74595009e-17)
302             	(9.54679814e-02 -4.01077420e-08 -1.74595447e-17)
303             	(9.55343976e-02 -3.04758661e-08 -1.74595868e-17)
304             	(9.56009602e-02 -2.06636323e-08 -1.74596254e-17)
305             	(9.56676707e-02 -1.06751824e-08 -1.74596613e-17)
306             	(9.57345310e-02 -6.91340027e-10 -1.74597001e-17)
307             	(9.58015429e-02 9.15290714e-09 -1.74597428e-17)
308             	(9.58687081e-02 1.94522623e-08 -1.74597946e-17)
309             	(9.59360282e-02 2.99247991e-08 -1.74598499e-17)
310             	(9.60035044e-02 4.05360750e-08 -1.74599026e-17)
311             	(9.60711375e-02 5.13268878e-08 -1.74599448e-17)
312             	(9.61389286e-02 6.21918434e-08 -1.74599727e-17)
313             	(9.62068793e-02 7.29912326e-08 -1.74599847e-17)
314             	(9.62749905e-02 8.38084832e-08 -1.74599859e-17)
315             	(9.63432635e-02 9.46392485e-08 -1.74599853e-17)
316             	(9.64116992e-02 1.05413485e-07 -1.74599884e-17)
317             	(9.64802983e-02 1.16042904e-07 -1.74600057e-17)
318             	(9.65490618e-02 1.26684667e-07 -1.74600365e-17)
319             	(9.66179903e-02 1.37378947e-07 -1.74600842e-17)
320             	(9.66870846e-02 1.48065482e-07 -1.74601399e-17)
321             	(9.67563449e-02 1.58562580e-07 -1.74602027e-17)
322             	(9.68257714e-02 1.69024925e-07 -1.74602683e-17)
323             	(9.68953646e-02 1.79451691e-07 -1.74603299e-17)
324             	(9.69651246e-02 1.89867933e-07 -1.74603847e-17)
325             	(9.70350516e-02 2.00221614e-07 -1.74604318e-17)
326             	(9.71051455e-02 2.10366755e-07 -1.74604704e-17)
327             	(9.71754062e-02 2.20174665e-07 -1.74605020e-17)
328             	(9.72458331e-02 2.29845553e-07 -1.74605276e-17)
329             	(9.73164252e-02 2.39477619e-07 -1.74605482e-17)
330             	(9.73871813e-02 2.48917579e-07 -1.74605682e-17)
331             	(9.74581003e-02 2.57953994e-07 -1.74605383e-17)
332             	(9.75291813e-02 2.66562221e-07 -1.74602485e-17)
333             	(9.76004230e-02 2.75097948e-07 -1.74597540e-17)
334             	(9.76718245e-02 2.83577556e-07 -1.74590814e-17)
335             	(9.77433839e-02 2.91773644e-07 -1.74582475e-17)
336             	(9.78150987e-02 2.99038967e-07 -1.74572580e-17)
337             	(9.78869662e-02 3.05770608e-07 -1.74561185e-17)
338             	(9.79589834e-02 3.12192814e-07 -1.74548350e-17)
339             	(9.80311472e-02 3.18512920e-07 -1.74534111e-17)
340             	(9.81034534e-02 3.25002475e-07 -1.74518506e-17)
341             	(9.81758986e-02 3.31345502e-07 -1.74501590e-17)
342             	(9.82484797e-02 3.36826162e-07 -1.74483454e-17)
343             	(9.83211935e-02 3.41255019e-07 -1.74464126e-17)
344             	(9.83940357e-02 3.45121705e-07 -1.74443963e-17)
345             	(9.84670020e-02 3.48646568e-07 -1.74424420e-17)
346             	(9.85400876e-02 3.51713470e-07 -1.74404053e-17)
347             	(9.86132876e-02 3.54169588e-07 -1.74383087e-17)
348             	(9.86865971e-02 3.55815876e-07 -1.74361757e-17)
349             	(9.87600105e-02 3.56459323e-07 -1.74340224e-17)
350             	(9.88335224e-02 3.56094717e-07 -1.74318615e-17)
351             	(9.89071269e-02 3.54763235e-07 -1.74297006e-17)
352             	(9.89808186e-02 3.52463474e-07 -1.74275416e-17)
353             	(9.90545936e-02 3.49347968e-07 -1.74253874e-17)
354             	(9.91284588e-02 3.45405877e-07 -1.74232420e-17)
355             	(9.92024922e-02 3.40351146e-07 -1.74211075e-17)
356             	(9.92772578e-02 3.32797309e-07 -1.74189845e-17)
357             	(9.93518688e-02 3.22384736e-07 -1.74168725e-17)
358             	(9.94264190e-02 3.13639149e-07 -1.74147716e-17)
359             	(9.95009409e-02 3.06268074e-07 -1.74126814e-17)
360             	(9.95754444e-02 2.98598989e-07 -1.74106023e-17)
361             	(9.96499314e-02 2.89792033e-07 -1.74085343e-17)
362             	(9.97243999e-02 2.79847297e-07 -1.74064776e-17)
363             	(9.97988452e-02 2.69093078e-07 -1.74044317e-17)
364             	(9.98732613e-02 2.57629073e-07 -1.74023964e-17)
365             	(9.99476409e-02 2.45495423e-07 -1.74003717e-17)
366             	(1.00021976e-01 2.32758695e-07 -1.73983576e-17)
367             	(1.00096257e-01 2.19454972e-07 -1.73963537e-17)
368             	(1.00170476e-01 2.05610537e-07 -1.73943595e-17)
369             	(1.00244621e-01 1.91200826e-07 -1.73923747e-17)
370             	(1.00318684e-01 1.76243876e-07 -1.73903990e-17)
371             	(1.00392653e-01 1.60677706e-07 -1.73884322e-17)
372             	(1.00466518e-01 1.44470972e-07 -1.73864741e-17)
373             	(1.00540269e-01 1.27736848e-07 -1.73845243e-17)
374             	(1.00613893e-01 1.10528068e-07 -1.73825827e-17)
375             	(1.00687380e-01 9.28166062e-08 -1.73806492e-17)
376             	(1.00760719e-01 7.45799649e-08 -1.73787236e-17)
377             	(1.00833898e-01 5.56865510e-08 -1.73768064e-17)
378             	(1.00906907e-01 3.59388508e-08 -1.73748956e-17)
379             	(1.00979733e-01 1.56007726e-08 -1.73729914e-17)
380             	(1.01052367e-01 -5.04138925e-09 -1.73710935e-17)
381             	(1.01124796e-01 -2.55610527e-08 -1.73692028e-17)
382             	(1.01197008e-01 -4.52700725e-08 -1.73673181e-17)
383             	(1.01268992e-01 -6.51323349e-08 -1.73654393e-17)
384             	(1.01340738e-01 -8.51583948e-08 -1.73635654e-17)
385             	(1.01412233e-01 -1.05417670e-07 -1.73616977e-17)
386             	(1.01483465e-01 -1.26082668e-07 -1.73598355e-17)
387             	(1.01554424e-01 -1.47182863e-07 -1.73579787e-17)
388             	(1.01625097e-01 -1.68533065e-07 -1.73561269e-17)
389             	(1.01695473e-01 -1.89954500e-07 -1.73542801e-17)
390             	(1.01765540e-01 -2.11414800e-07 -1.73524390e-17)
391             	(1.01835289e-01 -2.33002638e-07 -1.73506021e-17)
392             	(1.01904706e-01 -2.54726824e-07 -1.73487696e-17)
393             	(1.01973783e-01 -2.76549436e-07 -1.73469413e-17)
394             	(1.02042507e-01 -2.98340391e-07 -1.73451170e-17)
395             	(1.02110868e-01 -3.20058817e-07 -1.73432976e-17)
396             	(1.02178857e-01 -3.41746275e-07 -1.73414832e-17)
397             	(1.02246462e-01 -3.63404940e-07 -1.73396796e-17)
398             	(1.02313673e-01 -3.84973124e-07 -1.73379016e-17)
399             	(1.02380480e-01 -4.06452462e-07 -1.73361356e-17)
400             	(1.02446874e-01 -4.27836488e-07 -1.73343726e-17)
401             	(1.02512844e-01 -4.49141719e-07 -1.73326056e-17)
402             	(1.02578380e-01 -4.70391186e-07 -1.73308241e-17)
403             	(1.02643474e-01 -4.91577687e-07 -1.73290147e-17)
404             	(1.02708117e-01 -5.12580154e-07 -1.73271647e-17)
405             	(1.02772299e-01 -5.33337986e-07 -1.73252635e-17)
406             	(1.02836013e-01 -5.53846938e-07 -1.73233015e-17)
407             	(1.02899251e-01 -5.74157237e-07 -1.73212769e-17)
408             	(1.02962004e-01 -5.94287432e-07 -1.73191856e-17)
409             	(1.03024265e-01 -6.14232667e-07 -1.73170197e-17)
410             	(1.03086026e-01 -6.33993605e-07 -1.73147104e-17)
411             	(1.03147281e-01 -6.53565722e-07 -1.73123502e-17)
412             	(1.03208022e-01 -6.72970085e-07 -1.73099589e-17)
413             	(1.03268242e-01 -6.92164978e-07 -1.73075413e-17)
414             	(1.03327936e-01 -7.11124796e-07 -1.73051170e-17)
415             	(1.03387097e-01 -7.29841202e-07 -1.73027114e-17)
416             	(1.03445720e-01 -7.48306631e-07 -1.73003440e-17)
417             	(1.03503800e-01 -7.66497823e-07 -1.72980229e-17)
418             	(1.03561330e-01 -7.84415668e-07 -1.72957524e-17)
419             	(1.03618307e-01 -8.02104799e-07 -1.72935321e-17)
420             	(1.03674725e-01 -8.19581765e-07 -1.72913600e-17)
421             	(1.03730581e-01 -8.36843601e-07 -1.72892335e-17)
422             	(1.03785870e-01 -8.53890801e-07 -1.72871503e-17)
423             	(1.03840588e-01 -8.70735326e-07 -1.72851074e-17)
424             	(1.03894733e-01 -8.87370301e-07 -1.72831018e-17)
425             	(1.03948300e-01 -9.03780408e-07 -1.72811309e-17)
426             	(1.04001287e-01 -9.19954202e-07 -1.72791926e-17)
427             	(1.04053691e-01 -9.35894063e-07 -1.72772850e-17)
428             	(1.04105510e-01 -9.51611363e-07 -1.72754060e-17)
429             	(1.04156742e-01 -9.67125097e-07 -1.72735538e-17)
430             	(1.04207384e-01 -9.82446121e-07 -1.72717264e-17)
431             	(1.04257434e-01 -9.97546531e-07 -1.72699222e-17)
432             	(1.04306893e-01 -1.01243639e-06 -1.72681397e-17)
433             	(1.04355757e-01 -1.02712061e-06 -1.72663774e-17)
434             	(1.04404026e-01 -1.04158543e-06 -1.72646335e-17)
435             	(1.04451701e-01 -1.05580343e-06 -1.72629082e-17)
436             	(1.04498779e-01 -1.06977287e-06 -1.72611994e-17)
437             	(1.04545262e-01 -1.08351134e-06 -1.72595060e-17)
438             	(1.04591149e-01 -1.09704767e-06 -1.72578268e-17)
439             	(1.04636441e-01 -1.11040921e-06 -1.72561608e-17)
440             	(1.04681138e-01 -1.12349693e-06 -1.72545071e-17)
441             	(1.04725241e-01 -1.13626929e-06 -1.72528648e-17)
442             	(1.04768751e-01 -1.14879789e-06 -1.72512332e-17)
443             	(1.04811669e-01 -1.16114333e-06 -1.72496116e-17)
444             	(1.04853997e-01 -1.17332633e-06 -1.72479997e-17)
445             	(1.04895736e-01 -1.18533809e-06 -1.72463964e-17)
446             	(1.04936887e-01 -1.19716546e-06 -1.72448013e-17)
447             	(1.04977454e-01 -1.20879877e-06 -1.72432143e-17)
448             	(1.05017437e-01 -1.22022990e-06 -1.72416349e-17)
449             	(1.05056840e-01 -1.23145467e-06 -1.72400631e-17)
450             	(1.05095665e-01 -1.24247519e-06 -1.72384986e-17)
451             	(1.05133914e-01 -1.25329803e-06 -1.72369411e-17)
452             	(1.05171591e-01 -1.26393135e-06 -1.72353904e-17)
453             	(1.05208697e-01 -1.27440797e-06 -1.72338460e-17)
454             	(1.05245237e-01 -1.28475178e-06 -1.72323078e-17)
455             	(1.05281213e-01 -1.29488896e-06 -1.72307763e-17)
456             	(1.05316629e-01 -1.30480264e-06 -1.72292511e-17)
457             	(1.05351488e-01 -1.31452506e-06 -1.72277315e-17)