# Region        : all region0
# Cells         : 13056
# Volume        : 2.33333000e+00
# Time          	max(p)	max(k)	max(omega)	max(nut)
1               	1.03198562e-02	4.87738318e-04	1.19443446e+09	3.04394071e-07
2               	7.54913473e-03	4.98122209e-04	1.19443446e+09	4.11014225e-07
3               	6.36395568e-03	3.78186588e-04	1.19443446e+09	4.83904661e-07
4               	5.90005543e-03	2.67619068e-04	1.19443446e+09	5.22193316e-07
5               	5.81589227e-03	1.89310350e-04	1.19443446e+09	5.47250291e-07
6               	5.94895302e-03	1.49953368e-04	1.19443446e+09	5.61446742e-07
7               	6.22432876e-03	1.49944038e-04	1.19443446e+09	5.67502804e-07
8               	6.60578043e-03	1.49934149e-04	1.19443446e+09	5.65918164e-07
9               	7.07524285e-03	1.49923664e-04	1.19443446e+09	5.56743100e-07
10              	7.62353470e-03	1.49912592e-04	1.19443446e+09	5.42333035e-07
11              	8.24647567e-03	1.49900963e-04	1.19443446e+09	5.23184885e-07
12              	8.94107040e-03	1.49888631e-04	1.19443446e+09	5.00553389e-07
13              	9.70439474e-03	1.49875554e-04	1.19443446e+09	4.76333582e-07
14              	1.05329230e-02	1.49861694e-04	1.19443446e+09	4.52205158e-07
15              	1.14221881e-02	1.49847009e-04	1.19443446e+09	4.29271516e-07
16              	1.23671579e-02	1.49831460e-04	1.19443446e+09	4.08090313e-07
17              	1.33628968e-02	1.49815009e-04	1.19443446e+09	3.88838653e-07
18              	1.44039305e-02	1.49797615e-04	1.19443446e+09	3.71533110e-07
19              	1.54848322e-02	1.49779244e-04	1.19443446e+09	3.56163336e-07
20              	1.66003037e-02	1.49759858e-04	1.19443446e+09	3.42462001e-07
21              	1.77440253e-02	1.49739426e-04	1.19443446e+09	3.30326032e-07
22              	1.89096793e-02	1.49717914e-04	1.19443446e+09	3.19678091e-07
23              	2.00923385e-02	1.49695296e-04	1.19443446e+09	3.14295354e-07
24              	2.12877596e-02	1.49671543e-04	1.19443446e+09	3.11510156e-07
25              	2.24910544e-02	1.49646633e-04	1.19443446e+09	3.08664227e-07
26              	2.36978910e-02	1.49620545e-04	1.19443446e+09	3.05690969e-07
27              	2.49046846e-02	1.49593261e-04	1.19443446e+09	3.02546511e-07
28              	2.61080986e-02	1.49564767e-04	1.19443446e+09	2.99207373e-07
29              	2.73056402e-02	1.49535052e-04	1.19443446e+09	2.95578214e-07
30              	2.84947506e-02	1.49504107e-04	1.19443446e+09	2.91839575e-07
31              	2.96741939e-02	1.49471928e-04	1.19443446e+09	2.88440035e-07
32              	3.08416304e-02	1.49438511e-04	1.19443446e+09	2.85394934e-07
33              	3.19958459e-02	1.49403858e-04	1.19443446e+09	2.82686869e-07
34              	3.31343867e-02	1.49367972e-04	1.19443446e+09	2.80141419e-07
35              	3.42572570e-02	1.49330858e-04	1.19443446e+09	2.76652368e-07
36              	3.53640021e-02	1.49292526e-04	1.19443446e+09	2.71525138e-07
37              	3.64530281e-02	1.49252986e-04	1.19443446e+09	2.64473450e-07
38              	3.75230055e-02	1.49212251e-04	1.19443446e+09	2.55397888e-07
39              	3.85746860e-02	1.49170336e-04	1.19443446e+09	2.44718847e-07
40              	3.96076304e-02	1.49127257e-04	1.19443446e+09	2.32515285e-07
41              	4.06215803e-02	1.49083034e-04	1.19443446e+09	2.19289273e-07
42              	4.16169148e-02	1.49037685e-04	1.19443446e+09	2.07326363e-07
43              	4.25929407e-02	1.48991232e-04	1.19443446e+09	2.06900673e-07
44              	4.35489852e-02	1.48943698e-04	1.19443446e+09	2.06477253e-07
45              	4.44856351e-02	1.48895105e-04	1.19443446e+09	2.06152777e-07
46              	4.54029912e-02	1.48845477e-04	1.19443446e+09	2.05869944e-07
47              	4.63004245e-02	1.48794840e-04	1.19443446e+09	2.05588988e-07
48              	4.71777519e-02	1.48743218e-04	1.19443446e+09	2.05308474e-07
49              	4.80355475e-02	1.48690639e-04	1.19443446e+09	2.05028527e-07
50              	4.88743317e-02	1.48637127e-04	1.19443446e+09	2.04752716e-07
51              	4.96950936e-02	1.48582709e-04	1.19443446e+09	2.04481242e-07
52              	5.04976114e-02	1.48527412e-04	1.19443446e+09	2.04212778e-07
53              	5.12824145e-02	1.48471262e-04	1.19443446e+09	2.03945592e-07
54              	5.20494568e-02	1.48414286e-04	1.19443446e+09	2.03677740e-07
55              	5.27991915e-02	1.48356511e-04	1.19443446e+09	2.03400963e-07
56              	5.35317379e-02	1.48297962e-04	1.19443446e+09	2.03112103e-07
57              	5.42473868e-02	1.48238666e-04	1.19443446e+09	2.02813519e-07
58              	5.49475081e-02	1.48178648e-04	1.19443446e+09	2.02509611e-07
59              	5.56323682e-02	1.48117934e-04	1.19443446e+09	2.02209991e-07
60              	5.63024073e-02	1.48056548e-04	1.19443446e+09	2.01939649e-07
61              	5.69575273e-02	1.47994517e-04	1.19443446e+09	2.01757570e-07
62              	5.75984754e-02	1.47931862e-04	1.19443446e+09	2.01578066e-07
63              	5.82252734e-02	1.47868609e-04	1.19443446e+09	2.01400212e-07
64              	5.88386474e-02	1.47804780e-04	1.19443446e+09	2.01223459e-07
65              	5.94385803e-02	1.47740399e-04	1.19443446e+09	2.01047227e-07
66              	6.00248372e-02	1.47675486e-04	1.19443446e+09	2.00871064e-07
67              	6.05967934e-02	1.47610064e-04	1.19443446e+09	2.00694609e-07
68              	6.11534079e-02	1.47544155e-04	1.19443446e+09	2.00517431e-07
69              	6.16942680e-02	1.47477777e-04	1.19443446e+09	2.00339301e-07
70              	6.22198297e-02	1.47410952e-04	1.19443446e+09	2.00160182e-07
71              	6.27308353e-02	1.47343698e-04	1.19443446e+09	1.99980262e-07
72              	6.32286024e-02	1.47276035e-04	1.19443446e+09	1.99887391e-07
73              	6.37137902e-02	1.47207981e-04	1.19443446e+09	1.99944526e-07
74              	6.41875246e-02	1.47139553e-04	1.19443446e+09	2.00009377e-07
75              	6.46502649e-02	1.47070768e-04	1.19443446e+09	2.00075747e-07
76              	6.51017920e-02	1.47001644e-04	1.19443446e+09	2.00142114e-07
77              	6.55419734e-02	1.46932196e-04	1.19443446e+09	2.00208237e-07
78              	6.59709018e-02	1.46862440e-04	1.19443446e+09	2.00273971e-07
79              	6.63877978e-02	1.46792391e-04	1.19443446e+09	2.20046010e-07
80              	6.67927027e-02	1.46722064e-04	1.19443446e+09	2.51441391e-07
81              	6.71849287e-02	1.46651472e-04	1.19443446e+09	2.89204189e-07
82              	6.75647034e-02	1.46580629e-04	1.19443446e+09	3.29765120e-07
83              	6.79328663e-02	1.46509549e-04	1.19443446e+09	3.74678510e-07
84              	6.82899557e-02	1.46438244e-04	1.19443446e+09	4.26608350e-07
85              	6.86367393e-02	1.46366725e-04	1.19443446e+09	4.86643723e-07
86              	6.89736015e-02	1.46295006e-04	1.19443446e+09	5.56401168e-07
87              	6.93011582e-02	1.46223097e-04	1.19443446e+09	6.37666940e-07
88              	6.96200898e-02	1.46151009e-04	1.19443446e+09	7.32376155e-07
89              	6.99308147e-02	1.46078753e-04	1.19443446e+09	8.42764511e-07
90              	7.02337236e-02	1.46006339e-04	1.19443446e+09	9.71456939e-07
91              	7.05290500e-02	1.45933777e-04	1.19443446e+09	1.12145124e-06
92              	7.08169533e-02	1.45861076e-04	1.19443446e+09	1.29619419e-06
93              	7.10978651e-02	1.45788245e-04	1.19443446e+09	1.49963808e-06
94              	7.13720124e-02	1.45715292e-04	1.19443446e+09	1.73628439e-06
95              	7.16395284e-02	1.45642227e-04	1.19443446e+09	2.01116974e-06
96              	7.19005441e-02	1.50080738e-04	1.19443446e+09	2.32989620e-06
97              	7.21547705e-02	1.76098164e-04	1.19443446e+09	2.69861374e-06
98              	7.24026003e-02	2.06444643e-04	1.19443446e+09	3.12402302e-06
99              	7.26441471e-02	2.41702772e-04	1.19443446e+09	3.61323683e-06
100             	7.28796586e-02	2.82477408e-04	1.19443446e+09	4.17366442e-06
101             	7.31093264e-02	3.29376700e-04	1.19443446e+09	4.81281117e-06
102             	7.33333592e-02	3.82985711e-04	1.19443446e+09	5.53798133e-06
103             	7.35517670e-02	4.43834611e-04	1.19443446e+09	6.35594578e-06
104             	7.37646737e-02	5.12361048e-04	1.19443446e+09	7.27245755e-06
105             	7.39718326e-02	5.88870465e-04	1.19443446e+09	8.29174849e-06
106             	7.41736262e-02	6.73502689e-04	1.19443446e+09	9.42688512e-06
107             	7.43700952e-02	7.66213353e-04	1.19443446e+09	1.06813031e-05
108             	7.45612970e-02	8.66735175e-04	1.19443446e+09	1.20531055e-05
109             	7.47472609e-02	9.74594668e-04	1.19443446e+09	1.35463059e-05
110             	7.49282239e-02	1.08915297e-03	1.19443446e+09	1.51601088e-05
111             	7.51044060e-02	1.20961089e-03	1.19443446e+09	1.68883975e-05
112             	7.52757266e-02	1.33503579e-03	1.19443446e+09	1.87240952e-05
113             	7.54425460e-02	1.46443431e-03	1.19443446e+09	2.06576957e-05
114             	7.56051147e-02	1.59677023e-03	1.19443446e+09	2.26766638e-05
115             	7.57637024e-02	1.73101228e-03	1.19443446e+09	2.46786497e-05
116             	7.59184562e-02	1.86384430e-03	1.19443446e+09	2.59758888e-05
117             	7.60695692e-02	1.98856131e-03	1.19443446e+09	2.76833312e-05
118             	7.62171736e-02	2.10627260e-03	1.19443446e+09	2.90641212e-05
119             	7.63614724e-02	2.21836680e-03	1.19443446e+09	3.03983465e-05
120             	7.65027513e-02	2.32558878e-03	1.19443446e+09	3.16967807e-05
121             	7.66412502e-02	2.42846906e-03	1.19443446e+09	3.29734621e-05
122             	7.67770841e-02	2.52794702e-03	1.19443446e+09	3.42436544e-05
123             	7.69103381e-02	2.62536930e-03	1.19443446e+09	3.55099850e-05
124             	7.70410644e-02	2.72104392e-03	1.19443446e+09	3.67736989e-05
125             	7.71693014e-02	2.81426978e-03	1.19443446e+09	3.80384654e-05
126             	7.72948649e-02	2.90552555e-03	1.19443446e+09	3.93044913e-05
127             	7.74178182e-02	2.99516609e-03	1.19443446e+09	4.05847017e-05
128             	7.75381950e-02	3.08345782e-03	1.19443446e+09	4.18782571e-05
129             	7.76560084e-02	3.17057827e-03	1.19443446e+09	4.31816434e-05
130             	7.77712691e-02	3.25663427e-03	1.19443446e+09	4.44944661e-05
131             	7.78840753e-02	3.34166456e-03	1.19443446e+09	4.58143784e-05
132             	7.79944279e-02	3.42545630e-03	1.19443446e+09	4.71389200e-05
133             	7.81023323e-02	3.50802360e-03	1.19443446e+09	4.84659267e-05
134             	7.82078328e-02	3.58939930e-03	1.19443446e+09	4.97938473e-05
135             	7.83109927e-02	3.66956708e-03	1.19443446e+09	5.11209271e-05
136             	7.84116655e-02	3.74859351e-03	1.19443446e+09	5.24528495e-05
137             	7.85100032e-02	3.82641509e-03	1.19443446e+09	5.37839813e-05
138             	7.86062163e-02	3.90302617e-03	1.19443446e+09	5.51128645e-05
139             	7.87003854e-02	3.97844217e-03	1.19443446e+09	5.64417653e-05
140             	7.87925976e-02	4.05261589e-03	1.19443446e+09	5.77689307e-05
141             	7.88828735e-02	4.12553400e-03	1.19443446e+09	5.90944141e-05
142             	7.89712541e-02	4.19718957e-03	1.19443446e+09	6.04172224e-05
143             	7.90577434e-02	4.26756693e-03	1.19443446e+09	6.17372037e-05
144             	7.91423298e-02	4.33661668e-03	1.19443446e+09	6.30532792e-05
145             	7.92250524e-02	4.40429735e-03	1.19443446e+09	6.43648200e-05
146             	7.93059270e-02	4.47051930e-03	1.19443446e+09	6.56710231e-05
147             	7.93849459e-02	4.53525642e-03	1.19443446e+09	6.69711454e-05
148             	7.94621435e-02	4.59851632e-03	1.19443446e+09	6.82644285e-05
149             	7.95375983e-02	4.66031454e-03	1.19443446e+09	6.95510169e-05
150             	7.96112119e-02	4.72067069e-03	1.19443446e+09	7.08291045e-05
151             	7.96829569e-02	4.77960180e-03	1.19443446e+09	7.20976946e-05
152             	7.97529907e-02	4.83712358e-03	1.19443446e+09	7.33562253e-05
153             	7.98214110e-02	4.89325026e-03	1.19443446e+09	7.46048862e-05
154             	7.98881158e-02	4.94799731e-03	1.19443446e+09	7.58434445e-05
155             	7.99531362e-02	5.00138220e-03	1.19443446e+09	7.70709360e-05
156             	8.00165574e-02	5.05341887e-03	1.19443446e+09	7.82874218e-05
157             	8.00786055e-02	5.10412409e-03	1.19443446e+09	7.94923764e-05
158             	8.01391194e-02	5.15351735e-03	1.19443446e+09	8.06851678e-05
159             	8.01981816e-02	5.20161769e-03	1.19443446e+09	8.18764117e-05
160             	8.02556650e-02	5.24844162e-03	1.19443446e+09	8.30997140e-05
161             	8.03117005e-02	5.29400697e-03	1.19443446e+09	8.43119264e-05
162             	8.03663261e-02	5.33833399e-03	1.19443446e+09	8.55123752e-05
163             	8.04197400e-02	5.38144385e-03	1.19443446e+09	8.67004081e-05
164             	8.04719006e-02	5.42335724e-03	1.19443446e+09	8.78756243e-05
165             	8.05227332e-02	5.46409386e-03	1.19443446e+09	8.90377260e-05
166             	8.05720148e-02	5.50366948e-03	1.19443446e+09	9.01862603e-05
167             	8.06198474e-02	5.54208703e-03	1.19443446e+09	9.13203584e-05
168             	8.06665940e-02	5.57950309e-03	1.19443446e+09	9.24396928e-05
169             	8.07122004e-02	5.61642262e-03	1.19443446e+09	9.35447022e-05
170             	8.07567913e-02	5.65217203e-03	1.19443446e+09	9.46344402e-05
171             	8.08003025e-02	5.68679656e-03	1.19443446e+09	9.57081330e-05
172             	8.08422095e-02	5.72054075e-03	1.19443446e+09	9.67655684e-05
173             	8.08826756e-02	5.75352567e-03	1.19443446e+09	9.78066592e-05
174             	8.09221600e-02	5.78545253e-03	1.19443446e+09	9.88311795e-05
175             	8.09607107e-02	5.81636700e-03	1.19443446e+09	9.98386973e-05
176             	8.09982322e-02	5.84630135e-03	1.19443446e+09	1.00829390e-04
177             	8.10348698e-02	5.87550798e-03	1.19443446e+09	1.01803726e-04
178             	8.10705674e-02	5.90401211e-03	1.19443446e+09	1.02761145e-04
179             	8.11050308e-02	5.93156492e-03	1.19443446e+09	1.03701232e-04
180             	8.11380358e-02	5.95820693e-03	1.19443446e+09	1.04623822e-04
181             	8.11700960e-02	5.98442139e-03	1.19443446e+09	1.05529346e-04
182             	8.12014656e-02	6.00972950e-03	1.19443446e+09	1.06418073e-04
183             	8.12319509e-02	6.03418488e-03	1.19443446e+09	1.07289735e-04
184             	8.12616221e-02	6.05782413e-03	1.19443446e+09	1.08144002e-04
185             	8.12905402e-02	6.08066769e-03	1.19443446e+09	1.08980653e-04
186             	8.13185310e-02	6.10278728e-03	1.19443446e+09	1.09799665e-04
187             	8.13455449e-02	6.12452397e-03	1.19443446e+09	1.10601214e-04
188             	8.13716100e-02	6.14547466e-03	1.19443446e+09	1.11385895e-04
189             	8.13967831e-02	6.16567825e-03	1.19443446e+09	1.12154226e-04
190             	8.14210375e-02	6.18516078e-03	1.19443446e+09	1.12906327e-04
191             	8.14446821e-02	6.20394012e-03	1.19443446e+09	1.13642042e-04
192             	8.14676892e-02	6.22210232e-03	1.19443446e+09	1.14361183e-04
193             	8.14899834e-02	6.23995779e-03	1.19443446e+09	1.15063536e-04
194             	8.15116552e-02	6.25714804e-03	1.19443446e+09	1.15749088e-04
195             	8.15325206e-02	6.27371005e-03	1.19443446e+09	1.16418053e-04
196             	8.15526662e-02	6.28966668e-03	1.19443446e+09	1.17070695e-04
197             	8.15721240e-02	6.30503658e-03	1.19443446e+09	1.17707604e-04
198             	8.15908801e-02	6.31982202e-03	1.19443446e+09	1.18329188e-04
199             	8.16089969e-02	6.33404525e-03	1.19443446e+09	1.18935767e-04
200             	8.16264414e-02	6.34784557e-03	1.19443446e+09	1.19527492e-04
201             	8.16431923e-02	6.36131499e-03	1.19443446e+09	1.20104370e-04
202             	8.16594342e-02	6.37424549e-03	1.19443446e+09	1.20666382e-04
203             	8.16751145e-02	6.38667152e-03	1.19443446e+09	1.21213542e-04
204             	8.16903047e-02	6.39861888e-03	1.19443446e+09	1.21745948e-04
205             	8.17049969e-02	6.41010868e-03	1.19443446e+09	1.22263759e-04
206             	8.17191614e-02	6.42115565e-03	1.19443446e+09	1.22767265e-04
207             	8.17327287e-02	6.43176692e-03	1.19443446e+09	1.23256725e-04
208             	8.17458067e-02	6.44195943e-03	1.19443446e+09	1.23732732e-04
209             	8.17583791e-02	6.45229551e-03	1.19443446e+09	1.24195768e-04
210             	8.17704421e-02	6.46220353e-03	1.19443446e+09	1.24645965e-04
211             	8.17820441e-02	6.47169506e-03	1.19443446e+09	1.25083262e-04
212             	8.17931947e-02	6.48079412e-03	1.19443446e+09	1.25507377e-04
213             	8.18039332e-02	6.48949010e-03	1.19443446e+09	1.25921373e-04
214             	8.18142228e-02	6.49779267e-03	1.19443446e+09	1.26324723e-04
215             	8.18240640e-02	6.50573643e-03	1.19443446e+09	1.26714593e-04
216             	8.18334940e-02	6.51333079e-03	1.19443446e+09	1.27092322e-04
217             	8.18425230e-02	6.52059283e-03	1.19443446e+09	1.27458359e-04
218             	8.18511869e-02	6.52753648e-03	1.19443446e+09	1.27813022e-04
219             	8.18594754e-02	6.53417442e-03	1.19443446e+09	1.28156568e-04
220             	8.18674110e-02	6.54070891e-03	1.19443446e+09	1.28489238e-04
221             	8.18750434e-02	6.54701910e-03	1.19443446e+09	1.28811278e-04
222             	8.18823517e-02	6.55303018e-03	1.19443446e+09	1.29122954e-04
223             	8.18893798e-02	6.55876080e-03	1.19443446e+09	1.29424558e-04
224             	8.18960747e-02	6.56422416e-03	1.19443446e+09	1.29716388e-04
225             	8.19024363e-02	6.56943118e-03	1.19443446e+09	1.29998760e-04
226             	8.19085080e-02	6.57439143e-03	1.19443446e+09	1.30271995e-04
227             	8.19142983e-02	6.57911373e-03	1.19443446e+09	1.30536374e-04
228             	8.19198141e-02	6.58360638e-03	1.19443446e+09	1.30792126e-04
229             	8.19250328e-02	6.58787718e-03	1.19443446e+09	1.31039414e-04
230             	8.19299972e-02	6.59193134e-03	1.19443446e+09	1.31278398e-04
231             	8.19347103e-02	6.59577173e-03	1.19443446e+09	1.31509244e-04
232             	8.19391798e-02	6.59940910e-03	1.19443446e+09	1.31732116e-04
233             	8.19434169e-02	6.60285317e-03	1.19443446e+09	1.31947197e-04
234             	8.19474173e-02	6.60611349e-03	1.19443446e+09	1.32154704e-04
235             	8.19511966e-02	6.60919911e-03	1.19443446e+09	1.32354878e-04
236             	8.19547531e-02	6.61211844e-03	1.19443446e+09	1.32547957e-04
237             	8.19581059e-02	6.61487923e-03	1.19443446e+09	1.32734170e-04
238             	8.19612780e-02	6.61748866e-03	1.19443446e+09	1.32913803e-04
239             	8.19642490e-02	6.61996738e-03	1.19443446e+09	1.33087011e-04
240             	8.19670251e-02	6.62244470e-03	1.19443446e+09	1.33253837e-04
241             	8.19696187e-02	6.62476865e-03	1.19443446e+09	1.33414365e-04
242             	8.19720555e-02	6.62695230e-03	1.19443446e+09	1.33568740e-04
243             	8.19743259e-02	6.62900340e-03	1.19443446e+09	1.33717136e-04
244             	8.19764255e-02	6.63092805e-03	1.19443446e+09	1.33859749e-04
245             	8.19783675e-02	6.63273175e-03	1.19443446e+09	1.33996781e-04
246             	8.19801569e-02	6.63441972e-03	1.19443446e+09	1.34128425e-04
247             	8.19818014e-02	6.63599708e-03	1.19443446e+09	1.34254863e-04
248             	8.19833022e-02	6.63746879e-03	1.19443446e+09	1.34376266e-04
249             	8.19846721e-02	6.63883963e-03	1.19443446e+09	1.34492791e-04
250             	8.19859224e-02	6.64011421e-03	1.19443446e+09	1.34604590e-04
251             	8.19870577e-02	6.64129683e-03	1.19443446e+09	1.34711811e-04
252             	8.19880744e-02	6.64239153e-03	1.19443446e+09	1.34814604e-04
253             	8.19889871e-02	6.64340201e-03	1.19443446e+09	1.34913115e-04
254             	8.19897992e-02	6.64433166e-03	1.19443446e+09	1.35007492e-04
255             	8.19904897e-02	6.64518351e-03	1.19443446e+09	1.35097885e-04
256             	8.19910719e-02	6.64596027e-03	1.19443446e+09	1.35184437e-04
257             	8.19915594e-02	6.64666446e-03	1.19443446e+09	1.35270297e-04
258             	8.19919488e-02	6.64729854e-03	1.19443446e+09	1.35359380e-04
259             	8.19922444e-02	6.64786504e-03	1.19443446e+09	1.35444666e-04
260             	8.19924549e-02	6.64836671e-03	1.19443446e+09	1.35526266e-04
261             	8.19925820e-02	6.64880649e-03	1.19443446e+09	1.35604291e-04
262             	8.19926248e-02	6.64918667e-03	1.19443446e+09	1.35678853e-04
263             	8.19925917e-02	6.64950987e-03	1.19443446e+09	1.35750067e-04
264             	8.19924810e-02	6.64978004e-03	1.19443446e+09	1.35818057e-04
265             	8.19922982e-02	6.65000043e-03	1.19443446e+09	1.35882987e-04
266             	8.19921819e-02	6.65017591e-03	1.19443446e+09	1.35944004e-04
267             	8.19918470e-02	6.65030733e-03	1.19443446e+09	1.36002768e-04
268             	8.19914942e-02	6.65039705e-03	1.19443446e+09	1.36058796e-04
269             	8.19910828e-02	6.65044752e-03	1.19443446e+09	1.36112130e-04
270             	8.19906133e-02	6.65046098e-03	1.19443446e+09	1.36162842e-04
271             	8.19900820e-02	6.65043959e-03	1.19443446e+09	1.36211020e-04
272             	8.19895044e-02	6.65038538e-03	1.19443446e+09	1.36256758e-04
273             	8.19888745e-02	6.65030032e-03	1.19443446e+09	1.36300153e-04
274             	8.19881929e-02	6.65018628e-03	1.19443446e+09	1.36341295e-04
275             	8.19874593e-02	6.65004499e-03	1.19443446e+09	1.36380267e-04
276             	8.19866804e-02	6.64987810e-03	1.19443446e+09	1.36417146e-04
277             	8.19858580e-02	6.64968713e-03	1.19443446e+09	1.36452006e-04
278             	8.19849896e-02	6.64947353e-03	1.19443446e+09	1.36484921e-04
279             	8.19840847e-02	6.64923866e-03	1.19443446e+09	1.36515964e-04
280             	8.19831353e-02	6.64898383e-03	1.19443446e+09	1.36545212e-04
281             	8.19821496e-02	6.64871033e-03	1.19443446e+09	1.36572738e-04
282             	8.19811263e-02	6.64841938e-03	1.19443446e+09	1.36598612e-04
283             	8.19800693e-02	6.64811220e-03	1.19443446e+09	1.36622902e-04
284             	8.19789718e-02	6.64778995e-03	1.19443446e+09	1.36645674e-04
285             	8.19778521e-02	6.64745378e-03	1.19443446e+09	1.36666989e-04
286             	8.19767021e-02	6.64710480e-03	1.19443446e+09	1.36686907e-04
287             	8.19755259e-02	6.64674410e-03	1.19443446e+09	1.36705485e-04
288             	8.19743232e-02	6.64637273e-03	1.19443446e+09	1.36722777e-04
289             	8.19730971e-02	6.64599169e-03	1.19443446e+09	1.36738838e-04
290             	8.19718446e-02	6.64560189e-03	1.19443446e+09	1.36753717e-04
291             	8.19705681e-02	6.64520424e-03	1.19443446e+09	1.36767464e-04
292             	8.19692729e-02	6.64479957e-03	1.19443446e+09	1.36780129e-04
293             	8.19679572e-02	6.64438867e-03	1.19443446e+09	1.36791757e-04
294             	8.19666209e-02	6.64397228e-03	1.19443446e+09	1.36802396e-04
295             	8.19652671e-02	6.64355110e-03	1.19443446e+09	1.36812091e-04
296             	8.19638974e-02	6.64312577e-03	1.19443446e+09	1.36820886e-04
297             	8.19625066e-02	6.64269688e-03	1.19443446e+09	1.36828825e-04
298             	8.19611032e-02	6.64226503e-03	1.19443446e+09	1.36835949e-04
299             	8.19596853e-02	6.64183080e-03	1.19443446e+09	1.36842299e-04
300             	8.19582539e-02	6.64139477e-03	1.19443446e+09	1.36847912e-04
301             	8.19568129e-02	6.64095752e-03	1.19443446e+09	1.36852825e-04
302             	8.19553591e-02	6.64051959e-03	1.19443446e+09	1.36857073e-04
303             	8.19538955e-02	6.64008152e-03	1.19443446e+09	1.36860688e-04
304             	8.19524270e-02	6.63964372e-03	1.19443446e+09	1.36863692e-04
305             	8.19509204e-02	6.63920701e-03	1.19443446e+09	1.36866175e-04
306             	8.19494269e-02	6.63877136e-03	1.19443446e+09	1.36868109e-04
307             	8.19479229e-02	6.63833727e-03	1.19443446e+09	1.36869532e-04
308             	8.19464101e-02	6.63790509e-03	1.19443446e+09	1.36870476e-04
309             	8.19448891e-02	6.63747514e-03	1.19443446e+09	1.36870967e-04
310             	8.19433578e-02	6.63704773e-03	1.19443446e+09	1.36871031e-04
311             	8.19418203e-02	6.63662311e-03	1.19443446e+09	1.36870692e-04
312             	8.19402760e-02	6.63620154e-03	1.19443446e+09	1.36869973e-04
313             	8.19387247e-02	6.63578325e-03	1.19443446e+09	1.36868895e-04
314             	8.19371685e-02	6.63536841e-03	1.19443446e+09	1.36867478e-04
315             	8.19356063e-02	6.63495721e-03	1.19443446e+09	1.36865746e-04
316             	8.19340392e-02	6.63454976e-03	1.19443446e+09	1.36863718e-04
317             	8.19324673e-02	6.63414621e-03	1.19443446e+09	1.36861415e-04
318             	8.19308926e-02	6.63374667e-03	1.19443446e+09	1.36858857e-04
319             	8.19293115e-02	6.63335125e-03	1.19443446e+09	1.36856061e-04
320             	8.19277275e-02	6.63296007e-03	1.19443446e+09	1.36853045e-04
321             	8.19261402e-02	6.63257322e-03	1.19443446e+09	1.36849821e-04
322             	8.19245505e-02	6.63219080e-03	1.19443446e+09	1.36846406e-04
323             	8.19229589e-02	6.63181291e-03	1.19443446e+09	1.36842812e-04
324             	8.19213651e-02	6.63143962e-03	1.19443446e+09	1.36839053e-04
325             	8.19197704e-02	6.63107102e-03	1.19443446e+09	1.36835139e-04
326             	8.19181741e-02	6.63070717e-03	1.19443446e+09	1.36831084e-04
327             	8.19165759e-02	6.63034813e-03	1.19443446e+09	1.36826899e-04
328             	8.19149764e-02	6.62999397e-03	1.19443446e+09	1.36822594e-04
329             	8.19133758e-02	6.62964473e-03	1.19443446e+09	1.36818180e-04
330             	8.19117741e-02	6.62930046e-03	1.19443446e+09	1.36813664e-04
331             	8.19101699e-02	6.62896120e-03	1.19443446e+09	1.36809055e-04
332             	8.19085651e-02	6.62862700e-03	1.19443446e+09	1.36804360e-04
333             	8.19069598e-02	6.62829789e-03	1.19443446e+09	1.36799587e-04
334             	8.19053532e-02	6.62797390e-03	1.19443446e+09	1.36794742e-04
335             	8.19037464e-02	6.62765506e-03	1.19443446e+09	1.36789833e-04
336             	8.19021394e-02	6.62734139e-03	1.19443446e+09	1.36784866e-04
337             	8.19005328e-02	6.62703288e-03	1.19443446e+09	1.36779850e-04
338             	8.18989267e-02	6.62672955e-03	1.19443446e+09	1.36774794e-04
339             	8.18973199e-02	6.62643139e-03	1.19443446e+09	1.36769705e-04
340             	8.18957137e-02	6.62613839e-03	1.19443446e+09	1.36764590e-04
341             	8.18941082e-02	6.62585053e-03	1.19443446e+09	1.36759456e-04
342             	8.18925033e-02	6.62556780e-03	1.19443446e+09	1.36754309e-04
343             	8.18908993e-02	6.62529019e-03	1.19443446e+09	1.36749153e-04
344             	8.18892961e-02	6.62501767e-03	1.19443446e+09	1.36743993e-04
345             	8.18876937e-02	6.62475020e-03	1.19443446e+09	1.36738834e-04
346             	8.18860924e-02	6.62448775e-03	1.19443446e+09	1.36733678e-04
347             	8.18844915e-02	6.62423028e-03	1.19443446e+09	1.36728531e-04
348             	8.18828912e-02	6.62397775e-03	1.19443446e+09	1.36723396e-04
349             	8.18812924e-02	6.62373010e-03	1.19443446e+09	1.36718277e-04
350             	8.18796946e-02	6.62348728e-03	1.19443446e+09	1.36713177e-04
351             	8.18780980e-02	6.62324924e-03	1.19443446e+09	1.36708099e-04
352             	8.18765027e-02	6.62301593e-03	1.19443446e+09	1.36703047e-04
353             	8.18749089e-02	6.62278728e-03	1.19443446e+09	1.36698023e-04
354             	8.18733165e-02	6.62256325e-03	1.19443446e+09	1.36693029e-04
355             	8.18717257e-02	6.62234377e-03	1.19443446e+09	1.36688069e-04
356             	8.18701359e-02	6.62212879e-03	1.19443446e+09	1.36683143e-04
357             	8.18685473e-02	6.62191825e-03	1.19443446e+09	1.36678255e-04
358             	8.18669602e-02	6.62171209e-03	1.19443446e+09	1.36673406e-04
359             	8.18653751e-02	6.62151026e-03	1.19443446e+09	1.36668597e-04
360             	8.18637913e-02	6.62131269e-03	1.19443446e+09	1.36663831e-04
361             	8.18622085e-02	6.62111933e-03	1.19443446e+09	1.36659108e-04
362             	8.18606271e-02	6.62093011e-03	1.19443446e+09	1.36654430e-04
363             	8.18590473e-02	6.62074497e-03	1.19443446e+09	1.36649798e-04
364             	8.18574695e-02	6.62056386e-03	1.19443446e+09	1.36645213e-04
365             	8.18558935e-02	6.62038671e-03	1.19443446e+09	1.36640677e-04
366             	8.18543195e-02	6.62021346e-03	1.19443446e+09	1.36636189e-04
367             	8.18527477e-02	6.62004406e-03	1.19443446e+09	1.36631750e-04
368             	8.18511780e-02	6.61987842e-03	1.19443446e+09	1.36627362e-04
369             	8.18496104e-02	6.61971651e-03	1.19443446e+09	1.36623025e-04
370             	8.18480451e-02	6.61955824e-03	1.19443446e+09	1.36618738e-04
371             	8.18464819e-02	6.61940357e-03	1.19443446e+09	1.36614504e-04
372             	8.18449210e-02	6.61925242e-03	1.19443446e+09	1.36610321e-04
373             	8.18433622e-02	6.61910474e-03	1.19443446e+09	1.36606191e-04
374             	8.18418056e-02	6.61896047e-03	1.19443446e+09	1.36602113e-04
375             	8.18402509e-02	6.61881955e-03	1.19443446e+09	1.36598088e-04
376             	8.18386984e-02	6.61868191e-03	1.19443446e+09	1.36594116e-04
377             	8.18371479e-02	6.61854751e-03	1.19443446e+09	1.36590196e-04
378             	8.18355994e-02	6.61841627e-03	1.19443446e+09	1.36586329e-04
379             	8.18340526e-02	6.61828815e-03	1.19443446e+09	1.36582514e-04
380             	8.18325080e-02	6.61816307e-03	1.19443446e+09	1.36578752e-04
381             	8.18309651e-02	6.61804099e-03	1.19443446e+09	1.36575042e-04
382             	8.18294242e-02	6.61792183e-03	1.19443446e+09	1.36571385e-04
383             	8.18278847e-02	6.61780555e-03	1.19443446e+09	1.36567779e-04
384             	8.18263471e-02	6.61769209e-03	1.19443446e+09	1.36564225e-04
385             	8.18248111e-02	6.61758137e-03	1.19443446e+09	1.36560723e-04
386             	8.18232768e-02	6.61747336e-03	1.19443446e+09	1.36557271e-04
387             	8.18217442e-02	6.61736800e-03	1.19443446e+09	1.36553871e-04