/*--------------------------------*- C++ -*----------------------------------*\
| =========                 |                                                 |
| \\      /  F ield         | OpenFOAM: The Open Source CFD Toolbox           |
|  \\    /   O peration     | Version:  2206                                  |
|   \\  /    A nd           | Website:  www.openfoam.com                      |
|    \\/     M anipulation  |                                                 |
\*---------------------------------------------------------------------------*/
FoamFile
{
    version     2.0;
    format      ascii;
    arch        "LSB;label=32;scalar=64";
    class       volScalarField;
    location    "1800";
    object      epsilon;
}
// * * * * * * * * * * * * * * * * * * * * * * * * * * * * * * * * * * * * * //

dimensions      [0 2 -3 0 0 0 0];

internalField   nonuniform List<scalar> 
7480
(
5.7747662
15.51905
18.081441
15.979488
12.859603
10.362164
8.6766448
7.5245355
6.6781238
6.0136677
5.4745722
5.0327632
4.6692675
4.3690606
4.119944
3.9116259
3.7364574
3.5886094
3.4629756
3.3556181
3.2623256
3.1802828
3.1071711
3.0411504
2.9809889
2.9256891
2.8745516
2.8269052
2.7821601
2.7398269
2.6996204
2.6613487
2.6248087
2.5898316
2.5562344
2.5239083
2.4926361
2.4623539
2.4329741
2.4044017
2.3765694
2.3494154
2.3228911
2.2969634
2.2715938
2.2467549
2.22241
2.1985216
2.1750677
2.1520245
2.1293735
2.1071016
2.0851928
2.0636379
2.0424219
2.0215336
2.0009636
1.9806983
1.9607245
1.9410326
1.92162
1.9024819
1.8836111
1.8650014
1.8466478
1.8285453
1.8106861
1.7930641
1.7756752
1.7585154
1.7415804
1.7248654
1.7083665
1.6920808
1.6760041
1.6601318
1.6444597
1.6289843
1.6137016
1.5986079
1.5836994
1.568972
1.5544221
1.5400449
1.5258363
1.511791
1.4979039
1.4841675
1.4705767
1.4571164
1.4437873
1.4305446
1.4174296
1.4042706
1.3913115
1.3778784
1.3649243
1.3501625
1.3383918
1.3158539
0.34634679
1.5994479
2.8409175
3.2971611
3.1719431
2.8639642
2.5634787
2.3195202
2.1212114
1.9514249
1.8032524
1.6751321
1.5657012
1.4727937
1.393993
1.326618
1.2688658
1.219374
1.1768166
1.1399193
1.1075569
1.0788308
1.053005
1.0295392
1.0080697
0.98828912
0.96997775
0.95289658
0.93684471
0.9216636
0.90725741
0.89355829
0.88049599
0.8680098
0.85602934
0.84452007
0.83339971
0.82264769
0.81223499
0.80212689
0.79229633
0.782722
0.77338623
0.76427484
0.75537425
0.74667322
0.73815768
0.72981456
0.72163435
0.71360877
0.70573099
0.69799525
0.6903957
0.68292791
0.67558636
0.66836692
0.66126547
0.65427695
0.64739628
0.64062004
0.63394665
0.62737419
0.62089979
0.61452094
0.60823561
0.60204175
0.59593645
0.58991732
0.58398277
0.57813121
0.57236087
0.56666993
0.56105688
0.55552051
0.55005918
0.54467116
0.53935494
0.53410908
0.52893217
0.52382281
0.51877958
0.51380103
0.50888577
0.50403225
0.49923895
0.49450412
0.48982602
0.48520237
0.48063122
0.47610863
0.47163344
0.46719538
0.46280046
0.45841205
0.45407481
0.44964844
0.44531346
0.4405773
0.43654854
0.42925824
0.01044139
0.063677968
0.16394271
0.28165435
0.38485729
0.4761885
0.55970138
0.63119958
0.68703593
0.72851781
0.75722289
0.77390658
0.77987181
0.77733483
0.76887283
0.75687308
0.74300382
0.72826502
0.71323931
0.69826603
0.68355995
0.66925522
0.65540886
0.64207597
0.62929801
0.61706649
0.6054283
0.59431746
0.58368674
0.5734959
0.56373111
0.55437522
0.54540271
0.53678975
0.52849983
0.52052224
0.51281109
0.50536126
0.49815623
0.49117604
0.48440412
0.47782749
0.471435
0.46521628
0.45916183
0.45326316
0.44751006
0.44189379
0.43640707
0.43104361
0.42579814
0.42066549
0.41564081
0.41071983
0.40589799
0.40117173
0.39653721
0.39199036
0.38752723
0.38314499
0.37884159
0.37461488
0.37046226
0.36638141
0.36237036
0.35842712
0.35454928
0.35073485
0.34698228
0.34329003
0.3396565
0.3360801
0.33255945
0.32909333
0.32568031
0.32231898
0.31900806
0.31574633
0.31253262
0.30936574
0.30624457
0.30316797
0.30013482
0.29714397
0.29419429
0.29128456
0.28841354
0.2855798
0.28278195
0.28001795
0.27728635
0.27458304
0.27190795
0.26924858
0.2666147
0.26396129
0.26133374
0.25855989
0.25608649
0.25177034
0.00038854017
0.0025439728
0.0091389015
0.019337866
0.032171462
0.047280389
0.06683995
0.091054781
0.12649902
0.17017172
0.21727998
0.26313262
0.30634561
0.34588899
0.38050551
0.40907344
0.43109966
0.44685071
0.45716682
0.46310288
0.46563487
0.46555921
0.46350024
0.45995003
0.45531541
0.44990594
0.44398465
0.43773758
0.43129455
0.42475717
0.41820303
0.41169121
0.40526238
0.39894797
0.39275926
0.38671513
0.3807953
0.37502245
0.36939334
0.36390712
0.35856124
0.3533529
0.34827909
0.34333608
0.33851995
0.33382666
0.32925022
0.32478605
0.32042981
0.31617753
0.31202567
0.30797048
0.30400843
0.30013614
0.29634997
0.29264693
0.28902379
0.28547726
0.28200416
0.27860204
0.27526884
0.27200246
0.26880056
0.265661
0.26258189
0.2595613
0.25659712
0.25368754
0.25083103
0.24802609
0.24527119
0.24256485
0.2399057
0.23729253
0.23472399
0.23219878
0.22971569
0.22727359
0.22487137
0.22250795
0.22018227
0.21789331
0.21564005
0.21342149
0.21123663
0.20908443
0.20696387
0.20487383
0.20281315
0.20078048
0.19877441
0.19679291
0.19483428
0.19289401
0.19097132
0.18905243
0.18714145
0.18517331
0.18336437
0.18028908
4.1981661e-05
0.00015276788
0.00054831561
0.0014432194
0.0029478428
0.0049806813
0.0075404483
0.010776343
0.015303465
0.02199568
0.031498538
0.046282354
0.06651572
0.090989203
0.11836713
0.14745969
0.17736605
0.20690826
0.23464879
0.25923942
0.27980749
0.29612102
0.30846502
0.31737722
0.32343738
0.32715838
0.32898904
0.329317
0.32847063
0.32671569
0.32426301
0.32128275
0.31791109
0.31425524
0.31039835
0.30641282
0.30233508
0.29821124
0.29407357
0.289945
0.28584328
0.28178323
0.27777612
0.27383008
0.26995128
0.26614419
0.26241044
0.2587508
0.25516558
0.25165495
0.24821894
0.24485683
0.24156757
0.23834992
0.23520221
0.23212296
0.22911031
0.22616225
0.22327665
0.22045187
0.21768645
0.21497887
0.21232737
0.2097303
0.2071861
0.20469317
0.20224981
0.1998545
0.19750593
0.19520277
0.19294369
0.19072737
0.18855261
0.18641826
0.18432314
0.18226608
0.18024599
0.17826184
0.17631261
0.17439733
0.17251503
0.17066478
0.16884567
0.16705679
0.16529726
0.16356618
0.16186264
0.16018573
0.15853444
0.15690778
0.15530447
0.15372342
0.15216249
0.15062057
0.14909312
0.14757928
0.14606811
0.14453964
0.14311282
0.1407181
1.6544869e-05
3.1244964e-05
6.955173e-05
0.00015136065
0.00030491703
0.00055741023
0.0009341687
0.0014567911
0.0021594147
0.0031159389
0.0044179369
0.0063202069
0.0091354226
0.013184505
0.019298384
0.028575798
0.041055628
0.05675666
0.075202619
0.095842697
0.11794425
0.14045843
0.16211926
0.18177456
0.19868516
0.21260937
0.22368346
0.23222556
0.23859208
0.24311769
0.24610598
0.24782975
0.24852571
0.24839168
0.24759124
0.2462648
0.24451706
0.24243942
0.24010734
0.23758094
0.23490896
0.23213121
0.22928022
0.22638244
0.22345918
0.22052763
0.21760148
0.21469116
0.21180489
0.20894937
0.20612993
0.20335055
0.20061431
0.19792351
0.19527963
0.19268396
0.1901368
0.18763805
0.18518735
0.18278443
0.18042896
0.17812043
0.17585807
0.17364101
0.1714684
0.16933931
0.16725262
0.1652073
0.16320244
0.16123707
0.15931019
0.15742075
0.15556783
0.15375051
0.15196782
0.15021879
0.14850251
0.14681811
0.14516471
0.14354146
0.14194755
0.14038216
0.13884448
0.13733373
0.13584914
0.13438993
0.13295531
0.13154451
0.13015667
0.12879102
0.12744643
0.12612231
0.1248165
0.12352946
0.12225548
0.12099924
0.11974488
0.11849227
0.11731739
0.11535168
1.1858506e-05
1.6071274e-05
2.430305e-05
3.8722262e-05
6.2450813e-05
9.9488212e-05
0.00015508921
0.00023584908
0.00035000451
0.00050974152
0.00073005455
0.0010368409
0.0014698803
0.0020794337
0.0029526403
0.0042561055
0.0061802118
0.0089463429
0.013231683
0.019708587
0.028629569
0.040191487
0.054092369
0.069974981
0.087191288
0.10480885
0.12177795
0.13722237
0.15063579
0.16188382
0.17107128
0.17840129
0.18409774
0.18838107
0.19146145
0.19353418
0.19476559
0.19529893
0.19525765
0.19474584
0.19385068
0.19264506
0.19118992
0.18953622
0.18772632
0.18579533
0.18377258
0.18168199
0.17954319
0.1773724
0.17518302
0.17298609
0.17079062
0.16860397
0.16643217
0.16428013
0.1621517
0.16004979
0.15797659
0.15593386
0.15392302
0.15194514
0.15000081
0.14809042
0.14621423
0.14437225
0.14256414
0.14078964
0.13904844
0.13734013
0.13566421
0.1340201
0.13240722
0.130825
0.12927277
0.12774986
0.12625562
0.12478938
0.12335049
0.12193827
0.12055208
0.11919126
0.11785515
0.11654311
0.11525449
0.11398864
0.11274491
0.11152265
0.11032115
0.10913981
0.10797764
0.10683435
0.10570794
0.10459958
0.10350351
0.1024266
0.10135235
0.10028887
0.099293671
0.09762415
1.0384036e-05
1.2215981e-05
1.5229599e-05
1.9768242e-05
2.63223e-05
3.5521139e-05
4.8181836e-05
6.5400488e-05
8.8612701e-05
0.00011985941
0.00016191805
0.00021884473
0.00029684304
0.00040455295
0.00055445289
0.00076750044
0.0010744582
0.0015130087
0.0021579814
0.0031353039
0.004608369
0.0067660108
0.01023274
0.015446382
0.022695838
0.032102778
0.043464376
0.056419723
0.070337587
0.084380005
0.097725506
0.10978474
0.12027738
0.12916459
0.13653383
0.1425215
0.14727848
0.15095941
0.15371394
0.15567837
0.1569735
0.15770504
0.15796446
0.15783044
0.15737019
0.1566407
0.15569059
0.15456081
0.15328576
0.15189438
0.15041088
0.14885572
0.14724599
0.14559606
0.14391801
0.14222192
0.14051624
0.13880792
0.13710265
0.13540511
0.13371924
0.13204828
0.13039481
0.12876088
0.12714818
0.12555804
0.12399138
0.12244889
0.12093112
0.11943843
0.11797101
0.1165289
0.11511204
0.11372031
0.11235349
0.11101129
0.10969338
0.10839941
0.10712899
0.1058817
0.10465712
0.10345477
0.1022742
0.10111493
0.099976467
0.098858319
0.097759968
0.096680918
0.095620586
0.094578524
0.093553918
0.09254665
0.091554964
0.090580317
0.08961739
0.088673629
0.087733758
0.086808503
0.08594835
0.084496951
9.7034447e-06
1.0751748e-05
1.222183e-05
1.4210828e-05
1.6843238e-05
2.0272358e-05
2.4679805e-05
3.0280401e-05
3.7356702e-05
4.6286823e-05
5.7582605e-05
7.1950721e-05
9.0421052e-05
0.00011445212
0.00014612661
0.00018859641
0.00024673995
0.00032724525
0.0004405752
0.00060407038
0.00084481215
0.0011963625
0.0017330982
0.0025689967
0.0038492761
0.0058372613
0.0090380943
0.013758993
0.02026767
0.028519098
0.03833477
0.049295326
0.060760211
0.072021646
0.082505329
0.091878729
0.10002595
0.10696011
0.1127532
0.1175036
0.12132275
0.12432416
0.12661522
0.12829424
0.12944952
0.13015902
0.13049112
0.13050517
0.13025229
0.12977632
0.12911466
0.12829928
0.12735747
0.1263124
0.12518389
0.12398869
0.12274112
0.12145328
0.12013541
0.11879608
0.11744257
0.11608103
0.11471661
0.1133536
0.11199562
0.11064571
0.10930636
0.10797959
0.10666708
0.10537022
0.1040901
0.10282758
0.10158327
0.10035769
0.099151169
0.097963916
0.096796047
0.095647594
0.09451852
0.093408725
0.092318056
0.091246316
0.090193266
0.089158641
0.088142143
0.087143457
0.086162233
0.085198129
0.084250723
0.083319709
0.082404449
0.081504957
0.080619754
0.079750377
0.078892151
0.078052318
0.077217561
0.076398492
0.075643869
0.074361128
9.2707184e-06
9.9831838e-06
1.0863334e-05
1.1933555e-05
1.3242645e-05
1.4850003e-05
1.6816999e-05
1.9225576e-05
2.2151489e-05
2.5685811e-05
2.9947455e-05
3.5093582e-05
4.1341913e-05
4.8963334e-05
5.8361976e-05
7.0107883e-05
8.5042039e-05
0.00010434946
0.00012975668
0.00016391482
0.00021109805
0.00027715672
0.00037210653
0.00051298095
0.00072514431
0.0010485999
0.0015619871
0.0023804459
0.003641858
0.005735249
0.008990843
0.013675008
0.019872423
0.027490863
0.036245359
0.045641781
0.055087662
0.064068214
0.072256205
0.079507283
0.085793963
0.0911478
0.095630896
0.099322416
0.10230769
0.1046705
0.10648991
0.10783852
0.1087816
0.10937707
0.10967572
0.10972194
0.10955431
0.10920616
0.10870632
0.10807956
0.10734724
0.10652775
0.10563685
0.10468799
0.10369267
0.10266072
0.10160054
0.10051926
0.099422972
0.098316889
0.097205461
0.096092414
0.094980906
0.093873616
0.092772794
0.09168031
0.090597704
0.08952625
0.088466999
0.087420792
0.0863883
0.085370052
0.084366451
0.083377793
0.082404278
0.081446029
0.080503094
0.079575464
0.078663077
0.077765832
0.076883575
0.076016148
0.075163304
0.074324892
0.073500462
0.072690145
0.07189275
0.0711098
0.070337326
0.06958202
0.06883272
0.068098673
0.067429163
0.066281981
8.9342293e-06
9.4666583e-06
1.0070941e-05
1.0740165e-05
1.1496287e-05
1.2373849e-05
1.3409209e-05
1.4640282e-05
1.6099226e-05
1.7815998e-05
1.9824052e-05
2.2163836e-05
2.4886341e-05
2.8085008e-05
3.1858647e-05
3.633903e-05
4.1712405e-05
4.8238199e-05
5.6260797e-05
6.6257465e-05
7.8986836e-05
9.5516222e-05
0.00011746688
0.00014746076
0.00018959151
0.00025010745
0.00034002249
0.00047829046
0.0006907422
0.0010322343
0.0015919774
0.0024837069
0.0039666351
0.0063604931
0.009919315
0.014771088
0.020876675
0.028029578
0.035831347
0.043784282
0.051444756
0.058520262
0.064868406
0.070444814
0.075258184
0.079347617
0.082770074
0.085590094
0.087873219
0.08968274
0.091077674
0.092111923
0.092833933
0.093286735
0.093508325
0.093531966
0.093386773
0.093098158
0.092688225
0.092176103
0.091578296
0.090909065
0.090180723
0.089403878
0.088587651
0.087739934
0.086867549
0.08597633
0.085071273
0.084156668
0.083236195
0.082312992
0.081389722
0.080468643
0.079551683
0.078640462
0.077736343
0.076840469
0.07595379
0.075077088
0.074211001
0.073356039
0.072512601
0.071680994
0.070861438
0.070054089
0.069259028
0.068476308
0.067705885
0.066947785
0.066201758
0.065468058
0.064745784
0.064036417
0.063336686
0.062652614
0.061975138
0.061311655
0.060712707
0.059678035
8.6493727e-06
9.0648675e-06
9.5162298e-06
9.9844252e-06
1.047568e-05
1.1010302e-05
1.1614069e-05
1.2312498e-05
1.3126299e-05
1.4071773e-05
1.5163487e-05
1.6416322e-05
1.7846213e-05
1.9479399e-05
2.1347406e-05
2.3488378e-05
2.595148e-05
2.8799546e-05
3.2129295e-05
3.6081637e-05
4.0829648e-05
4.6611484e-05
5.3770099e-05
6.2788511e-05
7.4397489e-05
8.9704681e-05
0.0001104604
0.00013964969
0.00018162151
0.00024409395
0.00034106899
0.00049328176
0.00074065778
0.0011548925
0.0018328974
0.0029752563
0.0048647092
0.0077350498
0.011714901
0.016790661
0.022794091
0.029383836
0.036136269
0.042678935
0.048766397
0.054273836
0.059154625
0.063407011
0.06705687
0.070146387
0.07272514
0.074844854
0.076556323
0.077907549
0.07894286
0.079702465
0.080222502
0.080535197
0.080669097
0.080649323
0.080497861
0.080233931
0.079874301
0.079433579
0.078924455
0.078357972
0.077743754
0.077090138
0.07640433
0.07569257
0.07496026
0.074212073
0.073452034
0.072683602
0.071909768
0.0711331
0.070355803
0.069579765
0.0688066
0.068037683
0.067274179
0.06651707
0.065767178
0.065025186
0.064291656
0.063567049
0.062851726
0.062145986
0.061450024
0.060764064
0.06008808
0.059422464
0.058766609
0.058121957
0.057485904
0.056863796
0.056248503
0.055645499
0.055106553
0.054167886
8.4015176e-06
8.7312382e-06
9.0833559e-06
9.4364542e-06
9.7876786e-06
1.0146789e-05
1.0530777e-05
1.0958316e-05
1.1445446e-05
1.200466e-05
1.264589e-05
1.3377564e-05
1.4207242e-05
1.5144301e-05
1.620048e-05
1.7389891e-05
1.8729706e-05
2.0240622e-05
2.1951176e-05
2.390265e-05
2.6146312e-05
2.8747368e-05
3.1787143e-05
3.5402951e-05
3.9789283e-05
4.5195332e-05
5.1984235e-05
6.072123e-05
7.2197125e-05
8.7701058e-05
0.00010946826
0.00014094805
0.00018803759
0.00026178941
0.00037946561
0.00057353126
0.00090521017
0.0014597689
0.0024143959
0.0040145092
0.0064717366
0.0098926862
0.014268853
0.019442855
0.025105037
0.03089172
0.03649815
0.041728895
0.046482785
0.050718663
0.054432039
0.057641911
0.060380786
0.062687634
0.064603768
0.0661702
0.06742614
0.06840814
0.069149699
0.069681115
0.070029512
0.070219036
0.070271069
0.070204486
0.070035875
0.069779798
0.069449042
0.069054792
0.068606806
0.068113596
0.067582587
0.067020253
0.066432228
0.0658234
0.065198024
0.064559796
0.063911926
0.063257191
0.062598
0.061936435
0.06127429
0.060613112
0.059954225
0.059298764
0.058647693
0.058001836
0.057361882
0.056728424
0.056101926
0.055482851
0.054871417
0.054268181
0.053672834
0.053086803
0.052508111
0.051941482
0.051381513
0.050831891
0.050345219
0.049490531
8.183197e-06
8.446823e-06
8.7269699e-06
9.0046805e-06
9.2732193e-06
9.5354835e-06
9.8011887e-06
1.0083007e-05
1.0393107e-05
1.0741775e-05
1.113739e-05
1.1586665e-05
1.2095021e-05
1.266753e-05
1.3309711e-05
1.4027899e-05
1.4829447e-05
1.5722953e-05
1.6719157e-05
1.7832653e-05
1.9082055e-05
2.0490666e-05
2.2085765e-05
2.3906837e-05
2.6009993e-05
2.8466699e-05
3.1367362e-05
3.4852313e-05
3.9150687e-05
4.4547334e-05
5.1495472e-05
6.06573e-05
7.3044583e-05
9.0468273e-05
0.00011582263
0.00015402404
0.00021453825
0.00031248504
0.00047713823
0.00076432545
0.0012520928
0.0021141453
0.0035630443
0.0057862306
0.0088561155
0.012754089
0.0173139
0.022247354
0.027245127
0.032065728
0.036560293
0.040651361
0.044306674
0.047523154
0.050316401
0.05271261
0.054743357
0.056442276
0.057842954
0.058977653
0.059876583
0.060567561
0.06107587
0.061424302
0.061633238
0.061720817
0.061703138
0.061594438
0.061407265
0.061152658
0.060840322
0.060478777
0.060075497
0.059637019
0.059169067
0.058676651
0.058164149
0.057635385
0.0570937
0.056542005
0.055982837
0.055418406
0.054850627
0.054281167
0.053711464
0.053142768
0.05257615
0.052012547
0.051452739
0.050897459
0.050347206
0.049802728
0.049264028
0.048732553
0.048206913
0.047691292
0.047181807
0.046680595
0.046240552
0.04546102
7.9884635e-06
8.2005598e-06
8.4256755e-06
8.6487379e-06
8.8623204e-06
9.065721e-06
9.2636565e-06
9.4638539e-06
9.6747013e-06
9.9040858e-06
1.0159008e-05
1.0445359e-05
1.0767937e-05
1.1130754e-05
1.1537483e-05
1.1991815e-05
1.2497636e-05
1.3059236e-05
1.3681598e-05
1.4370956e-05
1.5135156e-05
1.5983997e-05
1.6928996e-05
1.798483e-05
1.9171312e-05
2.0514085e-05
2.2044397e-05
2.3803804e-05
2.5856838e-05
2.828579e-05
3.1199288e-05
3.4775604e-05
3.9283023e-05
4.5103257e-05
5.2835951e-05
6.3335879e-05
7.8192279e-05
9.9976715e-05
0.00013316452
0.00018655021
0.0002741583
0.00042503333
0.00069323402
0.0011551589
0.0019916004
0.0033866241
0.0054877543
0.0083465639
0.011911867
0.015997502
0.020336212
0.024673801
0.028827576
0.032688802
0.036200874
0.039341182
0.042109743
0.044520628
0.046595933
0.048361899
0.049846347
0.051077058
0.05208075
0.05288252
0.053505535
0.053970918
0.054297771
0.054503261
0.054602729
0.054609832
0.054536689
0.054394038
0.054191371
0.053937056
0.053638469
0.053302104
0.052933672
0.052538195
0.052120083
0.051683208
0.051230966
0.050766332
0.050291912
0.049809987
0.049322549
0.04883134
0.048337878
0.047843496
0.047349339
0.046856457
0.046365658
0.045877924
0.045393584
0.044914145
0.04443877
0.043971204
0.043508886
0.043052685
0.042655213
0.041944396
7.8121356e-06
7.9839911e-06
8.1662661e-06
8.3475251e-06
8.5210593e-06
8.6846992e-06
8.8402812e-06
8.9921136e-06
9.1454556e-06
9.3057602e-06
9.4783497e-06
9.668099e-06
9.8792603e-06
1.0115457e-05
1.037983e-05
1.0675229e-05
1.1004332e-05
1.1369816e-05
1.1774522e-05
1.2221682e-05
1.2715126e-05
1.3259512e-05
1.386035e-05
1.4524273e-05
1.5259674e-05
1.607729e-05
1.6990288e-05
1.8014833e-05
1.9173432e-05
2.0495689e-05
2.2018182e-05
2.3793434e-05
2.589808e-05
2.8436183e-05
3.1544653e-05
3.5483728e-05
4.0604559e-05
4.7451223e-05
5.68417e-05
7.0269024e-05
9.0155392e-05
0.00012094182
0.00017141429
0.00025551677
0.00040491791
0.00067256039
0.0011530639
0.0020164289
0.003425637
0.0054844804
0.0082161829
0.011529203
0.015220893
0.019052668
0.022825602
0.026407585
0.029721987
0.032729763
0.03541731
0.037787785
0.0398546
0.041637082
0.043157532
0.044439326
0.045505656
0.046378781
0.047079593
0.047627414
0.048039913
0.048333108
0.048521434
0.048617832
0.048633868
0.048579838
0.048464885
0.048297121
0.048083727
0.047831052
0.047544709
0.04722965
0.046890246
0.046530345
0.046153339
0.045762214
0.045359595
0.044947793
0.044528836
0.044104515
0.04367639
0.043245879
0.042814139
0.042382425
0.041951411
0.041522716
0.041096027
0.04067475
0.040257475
0.039844091
0.039486369
0.038839664
7.6499122e-06
7.7902585e-06
7.9389797e-06
8.0875388e-06
8.230327e-06
8.3647878e-06
8.4912918e-06
8.6120983e-06
8.7303108e-06
8.8493993e-06
8.9730279e-06
9.1048421e-06
9.2482901e-06
9.4065138e-06
9.582327e-06
9.7782536e-06
9.996553e-06
1.0239314e-05
1.0508569e-05
1.0806401e-05
1.113506e-05
1.14971e-05
1.1895467e-05
1.2333592e-05
1.2815585e-05
1.3346532e-05
1.3932658e-05
1.458143e-05
1.5302408e-05
1.6108003e-05
1.70135e-05
1.8038766e-05
1.9210968e-05
2.0566839e-05
2.2150775e-05
2.4036148e-05
2.6323622e-05
2.9148453e-05
3.2734918e-05
3.7443152e-05
4.3798421e-05
5.2625974e-05
6.5444436e-05
8.4664988e-05
0.00011519419
0.00016592306
0.00025339371
0.00041311892
0.00069960345
0.0012330123
0.0021682645
0.003639972
0.0057113741
0.0083625549
0.011459715
0.014798918
0.018181988
0.021462627
0.024548972
0.027388899
0.029957612
0.032248961
0.034268757
0.036030101
0.037550208
0.038848273
0.039944073
0.040857087
0.041605958
0.04220817
0.042679893
0.043035928
0.043289721
0.043453409
0.043537898
0.043552954
0.043507294
0.043408689
0.043264048
0.043079507
0.04286051
0.04261188
0.042337887
0.042042308
0.041728485
0.041399371
0.041057574
0.040705406
0.040344899
0.039977887
0.039605923
0.039230578
0.0388529
0.038474664
0.038096068
0.03772028
0.037346889
0.036975088
0.036655288
0.036069561
7.4983987e-06
7.6139333e-06
7.7362397e-06
7.858962e-06
7.9775531e-06
8.0895199e-06
8.1945325e-06
8.2937073e-06
8.3888378e-06
8.4820464e-06
8.5756923e-06
8.67227e-06
8.7743089e-06
8.8842857e-06
9.0045616e-06
9.1373445e-06
9.2846458e-06
9.4482994e-06
9.6300155e-06
9.8314299e-06
1.0054163e-05
1.0299897e-05
1.0570452e-05
1.0867846e-05
1.119438e-05
1.155276e-05
1.1946233e-05
1.2378641e-05
1.2854666e-05
1.3380181e-05
1.3962408e-05
1.461032e-05
1.5335472e-05
1.6153183e-05
1.7081908e-05
1.8147695e-05
1.9386543e-05
2.0844457e-05
2.2588442e-05
2.4719868e-05
2.737672e-05
3.0774294e-05
3.5292976e-05
4.1460659e-05
5.0189599e-05
6.3051726e-05
8.2786811e-05
0.0001151326
0.00016972161
0.00026786933
0.00044914699
0.00078411704
0.0014074319
0.0024562269
0.004021162
0.0061287808
0.0087056819
0.011590024
0.014596715
0.017574152
0.020420341
0.023073544
0.025500364
0.027687111
0.029633183
0.031346267
0.032839041
0.034126922
0.035226554
0.036154816
0.036928186
0.03756235
0.03807199
0.038470669
0.038770801
0.038983668
0.039119471
0.039187392
0.039195669
0.039151676
0.039061999
0.038932508
0.038768429
0.038574413
0.038354588
0.038112625
0.037851778
0.037574943
0.037284682
0.036983299
0.036672789
0.036355085
0.03603164
0.035704438
0.035374178
0.035043886
0.034714028
0.034383361
0.034100476
0.033573802
7.3549934e-06
7.4508417e-06
7.552212e-06
7.6543632e-06
7.7536564e-06
7.8478235e-06
7.9362092e-06
8.0192895e-06
8.0980957e-06
8.1739278e-06
8.2482752e-06
8.3227625e-06
8.3991103e-06
8.4791009e-06
8.5645409e-06
8.6572188e-06
8.7588443e-06
8.8710239e-06
8.9952674e-06
9.1329959e-06
9.2855598e-06
9.4542738e-06
9.6404639e-06
9.8455115e-06
1.0070897e-05
1.0318263e-05
1.0589496e-05
1.0886772e-05
1.1212649e-05
1.1570216e-05
1.1963214e-05
1.2396187e-05
1.2874749e-05
1.3406098e-05
1.3998991e-05
1.4664729e-05
1.5418426e-05
1.6279296e-05
1.7272799e-05
1.8434963e-05
1.9813733e-05
2.1475291e-05
2.3526687e-05
2.6109788e-05
2.9458773e-05
3.3973556e-05
4.0236214e-05
4.9313102e-05
6.2926281e-05
8.4549557e-05
0.0001208457
0.00018427786
0.00030286419
0.00052135988
0.00094157264
0.0016914102
0.0028788756
0.0045556439
0.0066942434
0.0091744064
0.011831887
0.014517605
0.017124457
0.019584269
0.02185737
0.023924246
0.025779125
0.027425197
0.028871275
0.030129478
0.031213646
0.032138275
0.032917829
0.033566292
0.034096903
0.034522007
0.034852993
0.035100283
0.03527335
0.035380769
0.035430268
0.035428794
0.035382573
0.035297179
0.035177591
0.035028254
0.034853131
0.034655761
0.034439289
0.034206545
0.033960012
0.033702034
0.0334345
0.033159656
0.032878701
0.032594609
0.032308625
0.032019312
0.031773024
0.031304506
7.217727e-06
7.2978265e-06
7.3824701e-06
7.4681105e-06
7.5518559e-06
7.6317116e-06
7.7068839e-06
7.7774745e-06
7.8440559e-06
7.9074362e-06
7.9685719e-06
8.0285186e-06
8.0884105e-06
8.1494564e-06
8.212935e-06
8.2801779e-06
8.3525265e-06
8.4313016e-06
8.5177898e-06
8.6132277e-06
8.7187942e-06
8.8356156e-06
8.964785e-06
9.107386e-06
9.2645172e-06
9.4373274e-06
9.6270598e-06
9.8350894e-06
1.0062969e-05
1.0312499e-05
1.0585797e-05
1.0885377e-05
1.1214256e-05
1.1576165e-05
1.1975639e-05
1.2418283e-05
1.2911278e-05
1.3463695e-05
1.4087028e-05
1.4796591e-05
1.5612483e-05
1.6560635e-05
1.767905e-05
1.9017825e-05
2.0648612e-05
2.2686336e-05
2.5282629e-05
2.871688e-05
3.3417663e-05
4.0101783e-05
5.0001639e-05
6.5267438e-05
9.0578908e-05
0.0001339142
0.00021395883
0.00036472414
0.00065474176
0.0011979432
0.0021062638
0.0034466618
0.005224584
0.0073558169
0.0096992963
0.012113614
0.014490785
0.01675914
0.018874888
0.020814322
0.022567721
0.024134695
0.025520868
0.026735555
0.027790145
0.028697015
0.029468794
0.030117885
0.030656173
0.031094843
0.031444293
0.031714099
0.031913017
0.032049008
0.032129279
0.032160335
0.032148029
0.03209762
0.032013823
0.031900864
0.031762523
0.031602202
0.031422916
0.031227467
0.031018215
0.030797718
0.030567681
0.030331111
0.030089951
0.029842791
0.02963338
0.02922301
7.0851148e-06
7.152513e-06
7.2236825e-06
7.2959599e-06
7.3670588e-06
7.4352625e-06
7.4997416e-06
7.5603731e-06
7.6174367e-06
7.6714301e-06
7.7229824e-06
7.772799e-06
7.8216367e-06
7.8703036e-06
7.9196682e-06
7.9706616e-06
8.0242611e-06
8.0814726e-06
8.1433187e-06
8.2108206e-06
8.2849794e-06
8.366766e-06
8.4571211e-06
8.5569617e-06
8.6671898e-06
8.7887093e-06
8.9224504e-06
9.0693924e-06
9.2305911e-06
9.4072152e-06
9.6005859e-06
9.8122229e-06
1.0043897e-05
1.0297723e-05
1.0576231e-05
1.0882473e-05
1.1220218e-05
1.159415e-05
1.201007e-05
1.2475373e-05
1.2999575e-05
1.3594621e-05
1.4276703e-05
1.5067049e-05
1.5993599e-05
1.7097744e-05
1.8432643e-05
2.0082069e-05
2.2171569e-05
2.4877054e-05
2.8540657e-05
3.3654463e-05
4.1158119e-05
5.2508565e-05
7.0870293e-05
0.00010212909
0.0001586662
0.00026649749
0.00047283376
0.00087471826
0.0015792712
0.0026613524
0.00414794
0.0059843559
0.0080520791
0.010220157
0.012382848
0.014467434
0.016427932
0.018237953
0.019884969
0.021365866
0.022683721
0.023845526
0.024860584
0.025739414
0.02649301
0.027132344
0.027668052
0.028110237
0.02846836
0.028751187
0.028966775
0.029122485
0.02922501
0.029280414
0.029294174
0.029271231
0.029216027
0.029132574
0.029024456
0.028894975
0.028746992
0.028583425
0.028406496
0.028219323
0.028024483
0.027820789
0.027649056
0.027297619
6.9560389e-06
7.0131147e-06
7.073344e-06
7.1347187e-06
7.1954384e-06
7.2540495e-06
7.3097466e-06
7.3622764e-06
7.4117253e-06
7.4583817e-06
7.5026595e-06
7.5450433e-06
7.5860557e-06
7.6262503e-06
7.6662176e-06
7.7065936e-06
7.7480574e-06
7.7913293e-06
7.8371683e-06
7.8863615e-06
7.9397096e-06
7.9980132e-06
8.0620651e-06
8.132646e-06
8.2105228e-06
8.2964532e-06
8.3911959e-06
8.495522e-06
8.6102299e-06
8.7361653e-06
8.8742436e-06
9.0254764e-06
9.1910019e-06
9.3721288e-06
9.5703831e-06
9.7875615e-06
1.0025815e-05
1.0287755e-05
1.0576559e-05
1.0896153e-05
1.1251468e-05
1.1648609e-05
1.2095431e-05
1.2602065e-05
1.3181357e-05
1.3851039e-05
1.4633814e-05
1.5561453e-05
1.6680021e-05
1.8048943e-05
1.9769911e-05
2.1983639e-05
2.4922665e-05
2.8986246e-05
3.4851697e-05
4.3659825e-05
5.7579565e-05
8.1129357e-05
0.00012279818
0.00020274569
0.00035488016
0.00065937239
0.001214479
0.0021007444
0.0033562165
0.0049480311
0.0067777375
0.008726168
0.010692181
0.012604035
0.014415141
0.016097689
0.01763733
0.019028984
0.020273771
0.021376807
0.022345651
0.023189232
0.023917112
0.024538985
0.025064356
0.025502333
0.025861504
0.026149873
0.026374833
0.026543171
0.026661081
0.0267342
0.026767636
0.026766021
0.026733532
0.026673998
0.026590808
0.02648728
0.026366164
0.026230755
0.02608422
0.025925771
0.025792978
0.025501976
6.8296598e-06
6.8782862e-06
6.9295666e-06
6.9819799e-06
7.0341122e-06
7.0847485e-06
7.1331416e-06
7.1789707e-06
7.2221959e-06
7.2629593e-06
7.3015241e-06
7.3382243e-06
7.3734313e-06
7.4075389e-06
7.4409617e-06
7.4741405e-06
7.5075438e-06
7.5416718e-06
7.5770614e-06
7.614285e-06
7.6539435e-06
7.696658e-06
7.7430622e-06
7.793796e-06
7.8494993e-06
7.9108099e-06
7.978365e-06
8.0528041e-06
8.1347754e-06
8.2249455e-06
8.3240109e-06
8.4327121e-06
8.5518524e-06
8.68232e-06
8.8251153e-06
8.981382e-06
9.1524489e-06
9.3398831e-06
9.5455522e-06
9.7717058e-06
1.0021099e-05
1.0297098e-05
1.0603889e-05
1.0946755e-05
1.1332268e-05
1.1769033e-05
1.2268001e-05
1.2843502e-05
1.3515421e-05
1.4308866e-05
1.5261506e-05
1.6424955e-05
1.7873859e-05
1.9727115e-05
2.21627e-05
2.5488307e-05
3.0220431e-05
3.7300489e-05
4.8270029e-05
6.6680715e-05
9.8728356e-05
0.00015985007
0.00027780107
0.00051512964
0.00096190711
0.0016993982
0.0027722134
0.0041629251
0.0057895681
0.0075445287
0.0093326213
0.011084577
0.01275446
0.014314077
0.015748088
0.017050108
0.018219811
0.019260843
0.020179341
0.020982893
0.021679821
0.022278697
0.022788013
0.023215972
0.023570363
0.023858481
0.024087101
0.024262466
0.024390298
0.024475831
0.024523821
0.024538636
0.024524204
0.024484269
0.024422117
0.02434128
0.024245471
0.024134463
0.024042284
0.023813855
6.7053507e-06
6.7470144e-06
6.7909244e-06
6.8359219e-06
6.8808989e-06
6.92485e-06
6.9671033e-06
7.0073122e-06
7.0453582e-06
7.0812818e-06
7.1152366e-06
7.1474479e-06
7.178181e-06
7.2077234e-06
7.2363776e-06
7.2644607e-06
7.2923043e-06
7.3202581e-06
7.3486965e-06
7.378022e-06
7.408665e-06
7.4410811e-06
7.4757485e-06
7.5131635e-06
7.5538354e-06
7.5982827e-06
7.6470313e-06
7.7006128e-06
7.7595654e-06
7.8244371e-06
7.8957902e-06
7.974208e-06
8.0603044e-06
8.1547362e-06
8.2582174e-06
8.3715381e-06
8.4955865e-06
8.6313778e-06
8.7800895e-06
8.943104e-06
9.12207e-06
9.3189668e-06
9.5361957e-06
9.7767173e-06
1.0044162e-05
1.0343108e-05
1.0679313e-05
1.106004e-05
1.1494938e-05
1.1996127e-05
1.2580231e-05
1.3269637e-05
1.4094527e-05
1.5099097e-05
1.6345255e-05
1.7929211e-05
1.9998301e-05
2.279068e-05
2.6723979e-05
3.2570564e-05
4.1536271e-05
5.6367623e-05
8.2100582e-05
0.00013068573
0.00022522476
0.00041616385
0.00078480914
0.0014100048
0.0023395625
0.00356634
0.0050212694
0.0066073448
0.0082360117
0.0098415261
0.011379575
0.012822402
0.014154358
0.015368298
0.016462897