/*--------------------------------*- C++ -*----------------------------------*\
| =========                 |                                                 |
| \\      /  F ield         | OpenFOAM: The Open Source CFD Toolbox           |
|  \\    /   O peration     | Version:  2206                                  |
|   \\  /    A nd           | Website:  www.openfoam.com                      |
|    \\/     M anipulation  |                                                 |
\*---------------------------------------------------------------------------*/
FoamFile
{
    version     2.0;
    format      ascii;
    arch        "LSB;label=32;scalar=64";
    class       volScalarField;
    location    "1800";
    object      k;
}
// * * * * * * * * * * * * * * * * * * * * * * * * * * * * * * * * * * * * * //

dimensions      [0 2 -2 0 0 0 0];

internalField   nonuniform List<scalar> 
7480
(
0.032181909
0.062205991
0.068877514
0.063430392
0.054879141
0.047521414
0.042217292
0.038392144
0.035456207
0.03306351
0.031056762
0.029362548
0.027931137
0.026720722
0.025695103
0.024821483
0.024074812
0.023435471
0.022885261
0.022409798
0.021992493
0.021622211
0.021289545
0.020986896
0.020709193
0.02045228
0.020213259
0.019989277
0.019777785
0.019576647
0.019384652
0.019201008
0.019024851
0.01885546
0.018692033
0.018534112
0.018380697
0.018231525
0.018086213
0.017944333
0.017805586
0.017669697
0.017536454
0.017405716
0.017277316
0.017151137
0.017027017
0.016904782
0.016784339
0.016665583
0.016548434
0.016432841
0.016318734
0.016206079
0.016094812
0.015984887
0.015876266
0.01576889
0.015662699
0.015557654
0.01545375
0.015350972
0.015249291
0.015148686
0.015049135
0.014950623
0.014853117
0.01475659
0.01466103
0.014566423
0.014472752
0.014380001
0.014288154
0.014197205
0.014107135
0.014017927
0.013929566
0.013842037
0.013755326
0.013669419
0.013584299
0.013499951
0.01341636
0.013333504
0.013251367
0.013169922
0.013089147
0.013009002
0.012929462
0.012850445
0.012771958
0.01269374
0.012616038
0.012537834
0.012460579
0.012380244
0.012302527
0.012213665
0.012142576
0.012005873
0.0025395019
0.0095650727
0.016658353
0.020687244
0.021734484
0.021466357
0.020833579
0.020186926
0.019555899
0.018928438
0.018320445
0.017757016
0.017252252
0.016808325
0.016422023
0.016080542
0.015782786
0.015527233
0.015308298
0.015117767
0.014949085
0.014796624
0.014655741
0.014523852
0.014399853
0.014282437
0.014171225
0.014064313
0.013960423
0.013858773
0.013759408
0.013662349
0.013567376
0.013474359
0.01338279
0.013292804
0.013203519
0.01311528
0.013027978
0.012941416
0.012855486
0.012770142
0.012685379
0.012601189
0.01251756
0.012434505
0.01235194
0.012269825
0.012188149
0.012106905
0.012026111
0.011945775
0.011865903
0.011786514
0.011707594
0.011629162
0.011551217
0.011473742
0.011396716
0.011320147
0.011244064
0.011168484
0.011093406
0.011018834
0.010944779
0.010871245
0.01079822
0.010725704
0.010653704
0.010582227
0.010511273
0.010440841
0.010370933
0.010301557
0.01023271
0.010164388
0.010096589
0.010029312
0.0099625566
0.009896319
0.0098305965
0.0097653851
0.0097006806
0.0096364769
0.0095727672
0.0095095424
0.0094467921
0.0093845018
0.0093226547
0.0092612252
0.0092001877
0.0091394843
0.0090790894
0.0090188226
0.0089587579
0.0088982021
0.0088376842
0.0087742177
0.0087178766
0.008615665
0.0002305031
0.00058079556
0.0013152516
0.0026356449
0.0042089794
0.0058223614
0.0072751107
0.0085093066
0.00957414
0.010503295
0.01130109
0.011962679
0.012491986
0.012906147
0.013228525
0.013487097
0.013697136
0.013867041
0.014002782
0.014108995
0.014189955
0.014249119
0.014288612
0.014312039
0.014322385
0.014321036
0.014312773
0.014296098
0.014271992
0.014241092
0.014205066
0.014164842
0.014120961
0.014074053
0.014023952
0.01397164
0.013916134
0.013858782
0.013799504
0.013738382
0.013675568
0.013611252
0.013545633
0.013478872
0.013411116
0.013342519
0.013273079
0.013202877
0.013132
0.013060529
0.012988574
0.012916209
0.012843512
0.01277056
0.012697387
0.012624069
0.012550644
0.012477132
0.012403542
0.012329923
0.012256342
0.012182846
0.012109458
0.012036209
0.011963135
0.01189026
0.01181759
0.011745142
0.011672946
0.011601022
0.011529387
0.011458051
0.011387033
0.011316354
0.01124602
0.011176039
0.011106419
0.011037169
0.010968298
0.010899811
0.010831713
0.01076401
0.010696703
0.010629795
0.010563286
0.010497174
0.010431455
0.010366124
0.010301168
0.010236579
0.010172321
0.010108394
0.010044691
0.0099812647
0.0099177885
0.0098544898
0.0097904171
0.0097255616
0.0096651303
0.009559447
0.00017167701
0.00018427404
0.00021492748
0.00029484594
0.00045947155
0.00070319947
0.0011559423
0.0017924092
0.0026158307
0.0035359062
0.004493684
0.0054739713
0.0064642502
0.007441616
0.0083746505
0.0092345232
0.010002919
0.010674497
0.011254362
0.01175232
0.012178239
0.012540838
0.012848345
0.013107412
0.013324631
0.013505084
0.013654275
0.013776849
0.013876194
0.013955959
0.014018734
0.0140669
0.014102414
0.014127283
0.014142458
0.014149602
0.014147164
0.014138552
0.014123237
0.014102187
0.014075976
0.014045155
0.014010236
0.013971648
0.013929796
0.01388505
0.013837534
0.013787546
0.013735312
0.013681049
0.013624993
0.013567324
0.013508223
0.013447858
0.013386331
0.013323799
0.013260356
0.013196078
0.013131022
0.013065292
0.012999006
0.012932249
0.012865082
0.012797571
0.012729785
0.012661779
0.01259358
0.012525231
0.012456788
0.012388292
0.012319778
0.012251276
0.012182822
0.012114454
0.012046192
0.011978058
0.011910072
0.011842258
0.011774634
0.011707217
0.011640023
0.011573065
0.011506357
0.011439908
0.011373727
0.011307821
0.011242194
0.011176849
0.01111178
0.011046991
0.010982448
0.010918183
0.010854055
0.010790235
0.010726224
0.010662684
0.010598013
0.010533684
0.010472192
0.010367303
0.00017545029
0.0001783206
0.00018054741
0.00018301101
0.00018926446
0.00020134894
0.00023094008
0.000294404
0.00040082233
0.00060165865
0.0009169261
0.0013531898
0.0019230478
0.0025910313
0.0033470566
0.0041829098
0.0050814239
0.0060126279
0.0069383365
0.0078215801
0.0086357811
0.0093685821
0.010019261
0.010592713
0.011095465
0.011533794
0.011914294
0.012243663
0.012528583
0.012774557
0.012986172
0.013167617
0.013322603
0.013454034
0.013564917
0.013658192
0.013734809
0.013797202
0.01384698
0.013885249
0.013913144
0.013931842
0.013942325
0.013945425
0.013941943
0.013932588
0.013917854
0.013898149
0.013873876
0.013845468
0.013813363
0.013777897
0.013739385
0.013698128
0.01365437
0.013608397
0.013560383
0.013510485
0.013458832
0.013405613
0.013351013
0.013295178
0.013238219
0.013180258
0.01312141
0.013061767
0.013001392
0.012940366
0.012878778
0.012816698
0.01275419
0.012691307
0.01262811
0.012564662
0.012501001
0.012437168
0.012373202
0.012309141
0.01224502
0.012180872
0.012116724
0.012052605
0.011988538
0.011924546
0.011860647
0.01179686
0.011733198
0.011669676
0.011606295
0.011543074
0.011479984
0.01141708
0.011354212
0.011291624
0.011228731
0.011166455
0.011102852
0.01104032
0.010979642
0.010877588
0.00017808826
0.00018334998
0.00018585609
0.00018666021
0.00018682855
0.0001867904
0.0001869338
0.00018824153
0.00019250994
0.00020461424
0.00023210841
0.00028438993
0.00036917377
0.00052006353
0.00075274678
0.0010890973
0.0015392899
0.002095473
0.0027573517
0.003518213
0.004358303
0.005244294
0.0061355028
0.0069943591
0.0077951057
0.0085257085
0.0091841492
0.0097732194
0.010297475
0.010762061
0.011172433
0.011534108
0.011852295
0.012131571
0.012376181
0.012590274
0.012776819
0.012938866
0.013079142
0.013199931
0.013303287
0.013390932
0.013464448
0.013525266
0.013574592
0.013613501
0.013643119
0.013664328
0.013677932
0.013684631
0.013685038
0.013679685
0.013669101
0.013653763
0.013634109
0.013610611
0.013583535
0.01355316
0.013519762
0.013483635
0.013445019
0.013404138
0.013361176
0.013316312
0.013269742
0.01322162
0.013172055
0.013121184
0.013069141
0.013016034
0.012961963
0.012907014
0.012851286
0.012794871
0.012737832
0.012680234
0.012622142
0.012563616
0.01250471
0.012445476
0.012385961
0.012326207
0.012266256
0.012206144
0.012145904
0.012085568
0.012025161
0.01196471
0.011904231
0.011843754
0.011783259
0.011722823
0.011662298
0.011601975
0.011541236
0.011481158
0.011419632
0.011359638
0.011300881
0.011202796
0.00017822101
0.00018528267
0.00018975665
0.00019192364
0.00019253652
0.00019239949
0.00019182339
0.00019099181
0.00019020669
0.00018950804
0.00018981568
0.00019152921
0.00019635876
0.00020799358
0.00023148316
0.0002747525
0.00034426566
0.00046695145
0.00066204248
0.00095168245
0.0013524543
0.0018639007
0.0024874781
0.003214076
0.0040197198
0.004867748
0.0057173711
0.0065345553
0.0072984063
0.0080003165
0.0086390208
0.0092163395
0.0097354088
0.010200191
0.010615162
0.010985042
0.011314025
0.011606068
0.011864897
0.012093855
0.012295951
0.012473847
0.012629927
0.012766348
0.012885015
0.01298761
0.013075726
0.013150757
0.013213945
0.013266392
0.013309069
0.013342889
0.013368622
0.013386962
0.013398569
0.013403968
0.013403754
0.013398424
0.013388435
0.013374164
0.013355969
0.013334181
0.013309079
0.01328095
0.013250076
0.01321668
0.013180928
0.013143033
0.013103176
0.013061531
0.013018252
0.012973486
0.012927349
0.012879963
0.012831435
0.012781868
0.012731354
0.012679983
0.012627834
0.012574985
0.012521504
0.012467455
0.0124129
0.012357893
0.012302484
0.012246723
0.01219065
0.012134307
0.012077723
0.012020945
0.011963967
0.011906882
0.011849554
0.011792306
0.011734519
0.011677354
0.01161866
0.011561756
0.011505679
0.011412388
0.00017676517
0.00018448585
0.00019013075
0.00019334541
0.00019481682
0.00019537819
0.00019521838
0.00019477053
0.0001940709
0.00019318544
0.00019228697
0.00019144927
0.00019082389
0.00019046089
0.00019094963
0.00019299583
0.00019802023
0.00020897138
0.00023043308
0.00026981746
0.0003347538
0.00045033299
0.00063844635
0.0009211306
0.0013148559
0.0018225831
0.0024429482
0.003160814
0.0039459801
0.0047591255
0.0055627932
0.0063302546
0.0070474318
0.0077091527
0.0083146333
0.008865226
0.0093635237
0.0098129557
0.010217319
0.010580384
0.010905785
0.011196937
0.011456991
0.011688847
0.011895145
0.012078255
0.012240367
0.012383461
0.012509314
0.01261952
0.012715498
0.012798543
0.012869803
0.012930304
0.012980992
0.013022682
0.01305617
0.01308217
0.013101333
0.013114229
0.013121375
0.013123246
0.01312029
0.01311288
0.013101353
0.013086048
0.0130673
0.013045368
0.013020506
0.012992951
0.012962922
0.012930621
0.012896222
0.0128599
0.012821801
0.01278207
0.01274084
0.012698234
0.012654366
0.012609343
0.012563262
0.012516214
0.012468285
0.012419551
0.012370086
0.012319958
0.012269226
0.012217952
0.012166181
0.012113978
0.012061352
0.012008414
0.011955047
0.011901593
0.011847461
0.01179384
0.011738621
0.011685298
0.011632489
0.011544704
0.00017428608
0.0001819078
0.00018810584
0.00019210066
0.00019422632
0.00019513905
0.00019530795
0.00019514962
0.00019479299
0.00019430203
0.00019370419
0.00019300918
0.00019223808
0.00019147396
0.00019076788
0.00019015071
0.00018965138
0.00018955048
0.00019032407
0.0001929348
0.00019855148
0.00021021296
0.0002329818
0.00027425164
0.0003460213
0.00047243954
0.00067825345
0.00098483143
0.0014028554
0.0019356988
0.0025750331
0.0032966753
0.0040643488
0.0048398976
0.0055934788
0.0063074562
0.0069737716
0.0075895698
0.008154596
0.008670249
0.0091390474
0.0095640431
0.0099484306
0.010295412
0.010608094
0.010889394
0.011142059
0.011368635
0.011571459
0.011752661
0.011914162
0.012057714
0.0121849
0.012297144
0.012395744
0.012481857
0.012556553
0.012620812
0.01267553
0.012721506
0.012759462
0.012790053
0.012813888
0.012831504
0.012843379
0.012849971
0.012851717
0.012848995
0.01284215
0.012831507
0.012817363
0.012799992
0.012779645
0.012756536
0.012730888
0.012702893
0.01267273
0.012640567
0.012606559
0.012570849
0.012533571
0.012494848
0.012454795
0.012413518
0.012371115
0.012327678
0.012283292
0.012238038
0.012191985
0.012145212
0.012097754
0.012049737
0.012001067
0.0119521
0.011902288
0.011852819
0.011801672
0.011752416
0.01170338
0.011621775
0.00017132203
0.00017833592
0.00018454268
0.00018902914
0.00019176174
0.00019318298
0.00019375528
0.00019384425
0.00019367637
0.00019336261
0.00019295432
0.00019247356
0.0001919303
0.00019134023
0.00019071505
0.00019005378
0.00018940128
0.00018875404
0.00018815182
0.00018767641
0.0001874461
0.0001877408
0.00018912892
0.00019261279
0.000199861
0.00021440967
0.00024259071
0.00029236868
0.00038363269
0.00054059437
0.00078767308
0.0011422599
0.0016102703
0.002187919
0.0028554333
0.0035793346
0.0043221251
0.0050530446
0.0057528165
0.0064116866
0.0070253635
0.0075924534
0.0081134417
0.0085900748
0.0090247619
0.0094201908
0.0097791719
0.010104506
0.010398892
0.010664888
0.010904867
0.011121036
0.011315422
0.011489875
0.011646091
0.011785602
0.011909815
0.01202002
0.0121174
0.012203027
0.012277867
0.0123428
0.012398632
0.012446092
0.012485833
0.012518461
0.012544548
0.012564606
0.0125791
0.012588458
0.012593076
0.012593317
0.012589515
0.012581965
0.012570952
0.012556735
0.012539552
0.012519625
0.012497157
0.01247234
0.012445348
0.012416344
0.012385479
0.012352894
0.012318718
0.012283073
0.01224607
0.012207817
0.012168407
0.012127942
0.012086481
0.012044167
0.012000938
0.011957157
0.01191233
0.011867624
0.011821141
0.011776456
0.011731665
0.011656914
0.00016831212
0.00017444598
0.00018023258
0.00018484434
0.00018802687
0.00018995464
0.00019097361
0.00019141145
0.00019149891
0.00019137573
0.00019112284
0.00019078547
0.00019038582
0.000189939
0.0001894555
0.00018893869
0.00018839847
0.00018783596
0.00018724588
0.00018664936
0.00018606592
0.00018552276
0.00018508714
0.00018485094
0.00018499496
0.00018589052
0.00018834543
0.00019351253
0.00020405822
0.00022499174
0.00026380665
0.00033517506
0.00046323623
0.00067359436
0.00098678479
0.0014109617
0.0019449701
0.0025713647
0.0032583248
0.0039694163
0.0046744418
0.0053541054
0.0059981045
0.0066013817
0.0071618414
0.0076793753
0.0081551874
0.0085911988
0.0089897021
0.00935317
0.0096841014
0.0099849453
0.010258047
0.010505612
0.0107297
0.010932213
0.011114906
0.011279406
0.011427212
0.011559695
0.011678103
0.011783573
0.011877147
0.011959775
0.012032314
0.012095555
0.012150231
0.01219701
0.012236502
0.012269264
0.012295807
0.012316605
0.01233209
0.012342652
0.012348658
0.012350443
0.012348317
0.012342568
0.012333458
0.012321234
0.012306122
0.012288332
0.012268059
0.012245484
0.012220774
0.012194086
0.012165564
0.012135345
0.012103551
0.012070313
0.012035714
0.011999922
0.011962904
0.011925033
0.011885877
0.011846571
0.011805355
0.011765777
0.011725702
0.0116585
0.00016553261
0.00017070892
0.0001758209
0.00018021643
0.00018358055
0.00018589786
0.00018735113
0.00018817998
0.00018858611
0.00018871294
0.00018865702
0.00018847987
0.00018821893
0.00018789737
0.00018753086
0.00018712926
0.00018669974
0.00018624673
0.00018577012
0.00018527325
0.00018475963
0.00018423223
0.00018369224
0.00018317082
0.00018269387
0.0001823052
0.00018210182
0.00018221487
0.00018293877
0.00018490158
0.00018915133
0.00019775242
0.00021497636
0.00024790107
0.00030899914
0.00042191739
0.00061259718
0.0009025913
0.0013015126
0.0018088842
0.0024074355
0.003065705
0.0037484942
0.0044273193
0.0050840874
0.0057088194
0.0062962906
0.0068441436
0.0073519843
0.0078206756
0.0082517918
0.0086473153
0.0090094298
0.0093403741
0.0096423646
0.0099175353
0.010167918
0.010395432
0.010601873
0.01078891
0.010958081
0.011110799
0.011248366
0.011371975
0.011482717
0.011581592
0.011669523
0.011747361
0.011815878
0.011875786
0.011927735
0.011972326
0.01201011
0.012041587
0.012067223
0.012087445
0.012102648
0.012113195
0.012119423
0.012121642
0.012120141
0.012115185
0.012107022
0.012095879
0.012081968
0.012065489
0.012046622
0.012025542
0.012002404
0.011977369
0.011950553
0.011922146
0.011892155
0.01186096
0.011828197
0.011794962
0.011759646
0.011725753
0.01169088
0.011631963
0.00016310741
0.00016737841
0.00017172681
0.0001756774
0.00017895044
0.00018144588
0.00018321729
0.00018439936
0.0001851354
0.00018554671
0.00018572775
0.00018574662
0.00018565028
0.00018547037
0.00018522887
0.00018494119
0.00018461767
0.00018426544
0.0001838886
0.00018349013
0.0001830723
0.00018263682
0.0001821831
0.00018171604
0.0001812414
0.00018076387
0.00018029929
0.0001798816
0.00017955041
0.00017939612
0.00017954352
0.00018024692
0.00018204527
0.00018592886
0.00019370281
0.00020935761
0.00023974434
0.00029709778
0.00040472801
0.00058895759
0.00087081466
0.0012603576
0.0017557941
0.0023380208
0.0029749514
0.0036330103
0.0042864131
0.0049191164
0.005522039
0.0060902373
0.0066214476
0.0071152324
0.007572279
0.0079939376
0.0083819516
0.0087382596
0.0090648788
0.0093638259
0.0096370684
0.0098864903
0.010113871
0.010320877
0.010509062
0.010679869
0.010834629
0.010974569
0.011100824
0.011214442
0.011316384
0.011407532
0.011488698
0.011560629
0.011624013
0.011679479
0.011727608
0.011768935
0.011803952
0.011833115
0.011856844
0.011875528
0.011889524
0.011899166
0.011904761
0.011906594
0.011904929
0.011900013
0.011892072
0.011881323
0.011867958
0.011852177
0.011834129
0.011814035
0.011791943
0.011768241
0.01174264
0.011716196
0.011687451
0.011659869
0.011630718
0.01158087
0.00016105591
0.00016453978
0.00016815242
0.00017155967
0.0001745473
0.00017700481
0.00017891868
0.00018034162
0.00018135243
0.00018203319
0.00018245935
0.0001826932
0.00018278297
0.00018276453
0.00018266448
0.00018250258
0.0001822928
0.00018204516
0.00018176677
0.00018146262
0.00018113619
0.00018078995
0.00018042507
0.00018004295
0.0001796454
0.00017923371
0.00017881032
0.0001783821
0.00017795687
0.00017754481
0.00017718558
0.00017691978
0.00017682999
0.00017705126
0.00017782079
0.00017965914
0.00018354267
0.00019127157
0.00020689874
0.00023732112
0.00029606297
0.00040653929
0.00059562313
0.00088231465
0.0012758843
0.0017712124
0.0023456731
0.0029664451
0.0036023969
0.0042312176
0.0048393356
0.0054189076
0.0059656124
0.0064775117
0.0069542485
0.0073964409
0.0078053132
0.0081824439
0.0085295988
0.0088486208
0.0091413564
0.00940961
0.0096551144
0.0098795158
0.010084361
0.010271094
0.010441062
0.010595517
0.010735616
0.010862431
0.010976946
0.011080075
0.011172657
0.011255466
0.011329215
0.011394562
0.011452112
0.011502426
0.011546022
0.011583376
0.011614931
0.011641096
0.011662248
0.011678739
0.011690893
0.011699012
0.011703376
0.011704248
0.011701868
0.011696475
0.011688262
0.01167748
0.011664225
0.011648897
0.011631284
0.011612403
0.011590951
0.011570358
0.011547491
0.011507559
0.00015934369
0.00016217651
0.00016514253
0.0001680077
0.00017061714
0.00017288106
0.00017476762
0.00017628596
0.0001774669
0.0001783527
0.0001789911
0.00017942836
0.00017970529
0.00017985574
0.00017990706
0.00017988099
0.00017979388
0.00017965806
0.00017948289
0.00017927536
0.00017904053
0.00017878208
0.00017850251
0.00017820362
0.00017788683
0.00017755321
0.00017720367
0.00017684003
0.00017646462
0.00017607911
0.00017569186
0.00017531299
0.00017495531
0.00017465517
0.00017445903
0.00017445268
0.00017478151
0.00017569294
0.00017774727
0.00018194818
0.00019032154
0.00020730782
0.00024020249
0.00030525818
0.00042657129
0.00063118824
0.00093449942
0.0013431931
0.0018466922
0.002418222
0.0030252258
0.0036402577
0.0042449437
0.0048281841
0.0053834577
0.005907237
0.0063980322
0.006855659
0.0072807603
0.0076744968
0.0080383346
0.0083739035
0.0086828999
0.0089670252
0.0092279416
0.0094672458
0.009686456
0.0098870058
0.010070239
0.01023741
0.010389685
0.010528148
0.010653805
0.010767583
0.010870341
0.010962873
0.011045914
0.01112014
0.011186179
0.011244612
0.011295973
0.011340759
0.01137943
0.011412412
0.011440097
0.011462854
0.011481022
0.01149492
0.01150484
0.011511068
0.011513843
0.011513457
0.011510052
0.011504051
0.011495316
0.011484837
0.011471453
0.011458587
0.011442616
0.011413518
0.00015791802
0.00016022653
0.0001626537
0.00016503309
0.00016725262
0.00016924636
0.00017098687
0.00017246993
0.00017370242
0.00017469927
0.00017548306
0.00017608063
0.00017651971
0.00017682655
0.00017702472
0.00017713459
0.00017717273
0.0001771523
0.00017708391
0.00017697585
0.0001768345
0.00017666462
0.00017646979
0.00017625265
0.00017601513
0.00017575863
0.00017548423
0.00017519296
0.00017488594
0.00017456388
0.0001742289
0.00017388426
0.00017353312
0.00017318395
0.00017284875
0.00017254362
0.00017230632
0.00017218936
0.00017229144
0.00017277072
0.00017391399
0.00017637966
0.00018125031
0.00019103624
0.0002109465
0.00024919436
0.00032615584
0.00046748323
0.00069654793
0.0010268939
0.0014590698
0.0019752878
0.0025453958
0.0031389775
0.0037332862
0.0043138464
0.0048718638
0.0054021814
0.0059021198
0.0063706475
0.0068077964
0.0072142859
0.0075912596
0.0079401116
0.008262365
0.0085595909
0.0088333572
0.009085196
0.0093165821
0.0095289196
0.0097235347
0.0099016736
0.010064503
0.01021311
0.010348505
0.010471626
0.010583345
0.010684468
0.010775744
0.010857866
0.010931475
0.010997165
0.011055488
0.011106955
0.011152038
0.011191177
0.011224781
0.011253231
0.01127688
0.011296066
0.011311084
0.011322266
0.011329814
0.01133417
0.01133528
0.011334107
0.011329636
0.011325299
0.011316892
0.011299629
0.00015672657
0.00015861736
0.00016060773
0.00016257682
0.00016444088
0.00016615109
0.00016768855
0.00016904978
0.0001702355
0.00017124871
0.00017209653
0.00017279024
0.00017334419
0.00017377448
0.00017409769
0.00017432982
0.00017448507
0.00017457563
0.00017461188
0.00017460241
0.00017455416
0.00017447259
0.00017436198
0.00017422561
0.00017406601
0.00017388505
0.00017368418
0.00017346454
0.00017322712
0.00017297261
0.00017270193
0.00017241639
0.00017211726
0.00017180699
0.0001714896
0.00017116961
0.00017085667
0.00017056477
0.0001703145
0.00017014855
0.00017012747
0.0001703747
0.00017106535
0.0001725637
0.00017569228
0.00018171042
0.00019395406
0.00021855815
0.00026775858
0.00036398151
0.00053455477
0.0007980409
0.0011636619
0.0016232551
0.0021519008
0.0027186696
0.0032974113
0.0038703607
0.0044264171
0.0049588108
0.0054636897
0.0059391807
0.0063847049
0.0068005297
0.007187462
0.0075466408
0.0078793965
0.0081871578
0.0084713883
0.0087335431
0.0089750407
0.0091972452
0.0094014563
0.0095889024
0.0097607382
0.009918045
0.010061833
0.010193043
0.010312552
0.010421174
0.010519665
0.010608728
0.010689013
0.010761127
0.010825631
0.010883047
0.010933859
0.010978521
0.01101745
0.011051049
0.01107967
0.011103697
0.011123391
0.011139223
0.011151226
0.011160343
0.011165698
0.011170761
0.011170653
0.011166314
0.00015572451
0.00015728286
0.00015892301
0.00016055562
0.00016211588
0.00016356532
0.00016489054
0.00016609129
0.00016716975
0.00016812727
0.0001689655
0.00016968746
0.00017029825
0.00017080508
0.000171217
0.00017154412
0.00017179653
0.0001719837
0.00017211437
0.00017219623
0.00017223588
0.00017223875
0.00017220931
0.00017215114
0.00017206709
0.00017195939
0.00017182978
0.00017167965
0.0001715101
0.00017132201
0.00017111611
0.00017089322
0.00017065409
0.00017039972
0.00017013173
0.0001698519
0.00016956332
0.00016927081
0.00016898055
0.00016870437
0.0001684587
0.00016827078
0.00016819147
0.00016829421
0.00016874009
0.0001697326
0.00017178348
0.00017585517
0.00018390576
0.00020036296
0.00023277203
0.00029922618
0.00042512235
0.00063425006
0.00094139651
0.0013470864
0.001833094
0.0023700731
0.0029297444
0.0034914509
0.0040418931
0.0045727752
0.0050791335
0.0055582787
0.006009032
0.0064312108
0.0068252827
0.0071921302
0.0075328911
0.0078488478
0.0081413525
0.0084117755
0.0086614718
0.0088917577
0.0091038966
0.0092990902
0.0094784749
0.0096431201
0.0097940287
0.0099321386
0.010058325
0.010173405
0.010278137
0.010373229
0.010459339
0.010537078
0.010607017
0.010669687
0.010725582
0.01077517
0.010818871
0.010857126
0.010890261
0.010918785
0.010942815
0.010963289
0.010979462
0.010994872
0.011003865
0.011013644
0.00015487581
0.0001561684
0.00015752799
0.00015888772
0.00016019625
0.00016142137
0.00016255178
0.00016358857
0.00016453604
0.00016539756
0.00016617514
0.0001668699
0.000167483
0.00016801646
0.00016847371
0.00016885958
0.00016917968
0.00016943996
0.00016964653
0.00016980523
0.00016992142
0.00016999979
0.00017004438
0.00017005859
0.00017004523
0.00017000658
0.00016994452
0.00016986053
0.00016975584
0.00016963143
0.0001694881
0.00016932656
0.00016914745
0.00016895137
0.00016873916
0.00016851173
0.00016827031
0.00016801685
0.00016775381
0.00016748525
0.00016721703
0.00016695753
0.00016672177
0.00016652968
0.00016641854
0.00016644972
0.00016672633
0.00016743096
0.00016887979
0.00017181185
0.00017741963
0.00018879656
0.00021181536
0.00025877403
0.00035195872
0.00051841481
0.00077624622
0.001133105
0.0015777522
0.0020839204
0.0026225076
0.0031705541
0.0037127534
0.0042393881
0.0047444643
0.0052245314
0.0056778454
0.0061037991
0.0065025392
0.0068747037
0.0072212419
0.0075432902
0.0078420874
0.0081189156
0.0083750606
0.0086117843
0.0088303086
0.0090318035
0.0092173817
0.0093880952
0.0095449342
0.0096888283
0.0098206476
0.0099412057
0.010051262
0.010151525
0.010242656
0.010325273
0.01039995
0.010467231
0.010527611
0.010581592
0.010629572
0.010672102
0.010709393
0.010742381
0.010770449
0.010797233
0.010816204
0.010841402
0.00015415213
0.00015523085
0.00015636468
0.00015750322
0.00015860539
0.00015964337
0.00016060618
0.00016149419
0.00016231213
0.00016306502
0.00016375677
0.00016438972
0.00016496493
0.00016548296
0.0001659446
0.00016635138
0.00016670551
0.00016700981
0.00016726759
0.00016748246
0.00016765801
0.00016779764
0.00016790445
0.00016798119
0.00016803024
0.00016805362
0.00016805302
0.00016802987
0.00016798535
0.00016792043
0.00016783594
0.00016773255
0.00016761086
0.00016747137
0.00016731463
0.00016714121
0.00016695175
0.00016674716
0.00016652859
0.0001662977
0.00016605694
0.00016580961
0.00016556115
0.00016531884
0.00016509428
0.00016490621
0.00016478249
0.00016477019
0.00016494891
0.00016547646
0.00016656855
0.0001687419
0.00017296204
0.00018130784
0.00019835733
0.00023247998
0.00030309345
0.00043630924
0.00065387262
0.00096842922
0.0013750566
0.0018512713
0.0023682032
0.0029012769
0.0034334915
0.0039538741
0.0044555163
0.0049342872
0.0053879364
0.0058154737
0.0062167524
0.0065921824
0.0069425347
0.0072688051
0.0075721206
0.0078536739
0.0081146795
0.0083563431
0.0085798416
0.0087863098
0.0089768329
0.009152441
0.0093141081
0.0094627515
0.0095992326
0.0097243593
0.0098388879
0.0099435273
0.010038939
0.010125748
0.010204527
0.010275849
0.010340191
0.010398151
0.010450035
0.010496788
0.010537918
0.010577189
0.010607095
0.010649133
0.00015353127
0.0001544366
0.00015538755
0.00015634598
0.00015727895
0.00015816226
0.00015898486
0.00015974555
0.00016044791
0.00016109713
0.00016169825
0.0001622552
0.00016277045
0.00016324527
0.00016368027
0.00016407591
0.00016443274
0.0001647516
0.00016503375
0.00016528082
0.00016549467
0.00016567723
0.00016583039
0.00016595597
0.00016605562
0.0001661308
0.0001661828
0.00016621273
0.00016622156
0.00016621011
0.00016617907
0.00016612904
0.00016606053
0.00016597397
0.00016586978
0.00016574834
0.00016561008
0.00016545547
0.0001652851
0.00016509976
0.00016490057
0.00016468902
0.0001644674
0.00016423882
0.00016400788
0.00016378156
0.00016356998
0.00016338844
0.0001632602
0.00016322731
0.00016335132
0.00016375139
0.00016462523
0.00016633727
0.00016969646
0.00017609552
0.00018914783
0.000215461
0.0002704511
0.0003785845
0.00056396976
0.00084287174
0.0012157501
0.0016640749
0.0021598842
0.0026775793
0.0031988091
0.0037115528
0.0042081359
0.0046838524
0.0051360167
0.0055633044
0.0059653082
0.0063422328
0.0066946852
0.0070235295
0.0073297859
0.0076145609
0.007878999
0.0081242489
0.0083514414
0.0085616741
0.0087560017
0.0089354304
0.009100915
0.0092533583
0.0093936108
0.0095224734
0.0096406972
0.0097489923
0.0098480164
0.0099384152
0.010020749
0.01009567
0.010163584
0.010225455
0.010280909
0.010333871
0.010375752
0.010436176
0.00015299575
0.00015375946
0.00015456121
0.00015537202
0.00015616551
0.0001569208
0.00015762696
0.00015828122
0.00015888547
0.00015944388
0.00015996143
0.00016044276
0.00016089157
0.00016131039
0.00016170077
0.00016206359
0.00016239927
0.00016270802
0.00016299013
0.00016324603
0.00016347633
0.00016368175
0.00016386309
0.0001640212
0.00016415688
0.0001642709
0.000164364
0.0001644368
0.0001644899
0.00016452381
0.00016453898
0.00016453582
0.00016451466
0.00016447582
0.00016441957
0.00016434617
0.00016425587
0.00016414893
0.00016402567
0.00016388648
0.00016373189
0.00016356261
0.00016337969
0.00016318457
0.00016297932
0.00016276695
0.00016255178
0.00016234006
0.00016214049
0.00016196778
0.00016184221
0.00016179842
0.00016188871
0.00016221066
0.00016294782
0.00016436489
0.00016711238
0.00017231365
0.0001827805
0.00020405922
0.00024833762
0.00033778951
0.00049819735
0.0007480194
0.001092023
0.0015153513
0.0019913466
0.0024939201
0.0030037421
0.0035079713
0.0039983231
0.004469628
0.0049188432
0.0053443651
0.0057455643
0.0061224662
0.0064755324
0.0068055072
0.0071133129
0.007399975
0.0076665707
0.0079141935
0.0081439279
0.0083568336
0.0085539341
0.0087362105
0.0089045974
0.0090599821
0.0092032029
0.009335055
0.0094562815
0.0095676056
0.0096696735
0.0097631987
0.0098486862
0.0099271281
0.0099982658
0.010066215
0.010121197
0.01020169
0.00015253161
0.00015317891
0.00015385807
0.00015454705
0.00015522478
0.00015587344
0.00015648256
0.00015704823
0.00015757072
0.00015805277
0.00015849844
0.00015891219
0.00015929811
0.00015965959
0.00015999918
0.00016031865
0.00016061907
0.00016090099
0.00016116466
0.00016141021
0.00016163768
0.00016184714
0.00016203865
0.00016221232
0.00016236827
0.00016250663
0.00016262752
0.00016273109
0.00016281746
0.00016288676
0.00016293911
0.00016297463
0.00016299341
0.00016299556
0.00016298117
0.00016295034
0.00016290314
0.00016283968
0.00016276009
0.00016266451
0.00016255318
0.0001624264
0.00016228465
0.00016212859
0.00016195919
0.00016177784
0.00016158654
0.00016138819
0.00016118661
0.00016098795
0.00016080051
0.00016063726
0.00016051655
0.00016046819
0.0001605448
0.00016082108
0.00016145618
0.00016268247
0.0001650289
0.00016947241
0.00017826011
0.00019611916
0.00023297057
0.00030905528
0.00045044373
0.00067714386
0.00099723939
0.001398967
0.0018570466
0.0023452889
0.0028437461
0.0033389991
0.0038223187
0.0042881894
0.0047332942