/*--------------------------------*- C++ -*----------------------------------*\
| =========                 |                                                 |
| \\      /  F ield         | OpenFOAM: The Open Source CFD Toolbox           |
|  \\    /   O peration     | Version:  2206                                  |
|   \\  /    A nd           | Website:  www.openfoam.com                      |
|    \\/     M anipulation  |                                                 |
\*---------------------------------------------------------------------------*/
FoamFile
{
    version     2.0;
    format      ascii;
    arch        "LSB;label=32;scalar=64";
    class       volScalarField;
    location    "1800";
    object      nut;
}
// * * * * * * * * * * * * * * * * * * * * * * * * * * * * * * * * * * * * * //

dimensions      [0 2 -1 0 0 0 0];

internalField   nonuniform List<scalar> 
7480
(
1.6141047e-05
2.2440979e-05
2.361372e-05
2.2660758e-05
2.1078007e-05
1.9614207e-05
1.8487212e-05
1.7629806e-05
1.6942309e-05
1.6360667e-05
1.5856403e-05
1.5417839e-05
1.5037339e-05
1.4707905e-05
1.4422878e-05
1.4175574e-05
1.3960734e-05
1.3774114e-05
1.3611464e-05
1.3469326e-05
1.3343327e-05
1.3230522e-05
1.3128349e-05
1.30347e-05
1.2948174e-05
1.2867607e-05
1.2792195e-05
1.2721122e-05
1.2653646e-05
1.2589138e-05
1.2527252e-05
1.246777e-05
1.2410445e-05
1.2355072e-05
1.2301411e-05
1.2249335e-05
1.2198532e-05
1.214893e-05
1.2100416e-05
1.205286e-05
1.2006171e-05
1.1960268e-05
1.1915087e-05
1.1870588e-05
1.1826722e-05
1.1783455e-05
1.1740739e-05
1.169852e-05
1.165677e-05
1.1615457e-05
1.157456e-05
1.1534063e-05
1.1493947e-05
1.1454204e-05
1.1414815e-05
1.1375767e-05
1.133705e-05
1.1298647e-05
1.1260538e-05
1.1222713e-05
1.1185174e-05
1.1147917e-05
1.1110935e-05
1.1074222e-05
1.1037775e-05
1.1001588e-05
1.0965654e-05
1.0929964e-05
1.0894516e-05
1.0859308e-05
1.0824336e-05
1.0789595e-05
1.0755082e-05
1.0720797e-05
1.0686736e-05
1.0652893e-05
1.0619264e-05
1.0585848e-05
1.0552639e-05
1.0519634e-05
1.048683e-05
1.0454222e-05
1.0421805e-05
1.0389574e-05
1.0357523e-05
1.0325645e-05
1.029393e-05
1.0262367e-05
1.0230945e-05
1.0199634e-05
1.0168438e-05
1.0137253e-05
1.0106179e-05
1.0074807e-05
1.0043719e-05
1.0011291e-05
9.9798174e-06
9.9437099e-06
9.9147298e-06
9.858761e-06
1.6758241e-06
5.1481235e-06
8.7911969e-06
1.1681743e-05
1.3403425e-05
1.4480769e-05
1.5238441e-05
1.5811925e-05
1.6226099e-05
1.6524192e-05
1.6751667e-05
1.694078e-05
1.7109024e-05
1.7264319e-05
1.7411461e-05
1.7542763e-05
1.7668275e-05
1.7794825e-05
1.7922045e-05
1.8044453e-05
1.8159574e-05
1.8264779e-05
1.8358094e-05
1.8440098e-05
1.8512628e-05
1.8576468e-05
1.8633547e-05
1.8682447e-05
1.8722854e-05
1.8755112e-05
1.8780687e-05
1.8800542e-05
1.8815115e-05
1.8824961e-05
1.8829864e-05
1.8830669e-05
1.8826455e-05
1.8818447e-05
1.8806797e-05
1.8791569e-05
1.8772922e-05
1.8751085e-05
1.8726342e-05
1.8698897e-05
1.8668942e-05
1.8636697e-05
1.8602175e-05
1.8565503e-05
1.8526818e-05
1.848624e-05
1.8443941e-05
1.8400036e-05
1.8354647e-05
1.8307894e-05
1.8259839e-05
1.8210606e-05
1.8160263e-05
1.8108858e-05
1.8056426e-05
1.8003052e-05
1.7948842e-05
1.7893872e-05
1.7838192e-05
1.7781858e-05
1.7724935e-05
1.7667473e-05
1.7609496e-05
1.7551044e-05
1.7492172e-05
1.7432924e-05
1.7373335e-05
1.7313436e-05
1.7253264e-05
1.7192861e-05
1.7132251e-05
1.7071456e-05
1.7010505e-05
1.6949421e-05
1.688823e-05
1.6826953e-05
1.6765611e-05
1.6704223e-05
1.6642808e-05
1.6581383e-05
1.6519962e-05
1.645856e-05
1.6397188e-05
1.6335861e-05
1.6274578e-05
1.6213372e-05
1.6152185e-05
1.609116e-05
1.6029992e-05
1.5969311e-05
1.5907821e-05
1.5847981e-05
1.5785329e-05
1.5726685e-05
1.5668644e-05
1.5563292e-05
4.5797073e-07
4.7676009e-07
9.4965987e-07
2.2197284e-06
4.1428232e-06
6.4071063e-06
8.5107013e-06
1.0324384e-05
1.2007777e-05
1.3628669e-05
1.5179568e-05
1.6642205e-05
1.8008697e-05
1.9285354e-05
2.0483813e-05
2.1629993e-05
2.2725372e-05
2.3764061e-05
2.4742064e-05
2.5657466e-05
2.6511112e-05
2.730403e-05
2.8035628e-05
2.8711714e-05
2.9337078e-05
2.9912962e-05
3.045281e-05
3.0949885e-05
3.1407394e-05
3.1827228e-05
3.2214918e-05
3.2573332e-05
3.290438e-05
3.3210597e-05
3.34918e-05
3.3751881e-05
3.3987743e-05
3.4205088e-05
3.4403599e-05
3.4584102e-05
3.4747651e-05
3.4895346e-05
3.5028322e-05
3.5147521e-05
3.5253852e-05
3.5348238e-05
3.5430971e-05
3.5502731e-05
3.5564155e-05
3.5615813e-05
3.5658384e-05
3.5692398e-05
3.5718393e-05
3.5736885e-05
3.5748212e-05
3.575287e-05
3.5751199e-05
3.5743466e-05
3.5729893e-05
3.5710842e-05
3.5686718e-05
3.5657835e-05
3.5624433e-05
3.5586767e-05
3.5545107e-05
3.5499674e-05
3.5450614e-05
3.5398118e-05
3.5342409e-05
3.5283676e-05
3.5222078e-05
3.5157762e-05
3.509089e-05
3.5021638e-05
3.4950123e-05
3.4876461e-05
3.4800776e-05
3.4723188e-05
3.4643807e-05
3.4562742e-05
3.4480092e-05
3.4395954e-05
3.4310419e-05
3.4223575e-05
3.4135505e-05
3.4046292e-05
3.3956009e-05
3.3864744e-05
3.3772542e-05
3.367955e-05
3.3585677e-05
3.3491388e-05
3.3395945e-05
3.3301227e-05
3.3203825e-05
3.3110868e-05
3.3010295e-05
3.2923859e-05
3.2830029e-05
3.2666566e-05
6.8270153e-06
1.2013191e-06
4.5491724e-07
4.0459848e-07
5.9059389e-07
9.4127938e-07
1.7991971e-06
3.1755143e-06
4.8682694e-06
6.6123614e-06
8.3642665e-06
1.0248796e-05
1.2276291e-05
1.4409214e-05
1.6588799e-05
1.8761613e-05
2.0889035e-05
2.2949588e-05
2.4935013e-05
2.6841835e-05
2.8665926e-05
3.0403297e-05
3.2054345e-05
3.3617528e-05
3.5094619e-05
3.6485086e-05
3.7793043e-05
3.90237e-05
4.0179939e-05
4.1268738e-05
4.2293429e-05
4.3258128e-05
4.4166514e-05
4.5023947e-05
4.5831691e-05
4.6595054e-05
4.7303114e-05
4.7972805e-05
4.8598397e-05
4.9184122e-05
4.9732035e-05
5.0244313e-05
5.0723127e-05
5.1170347e-05
5.1587891e-05
5.1977616e-05
5.2340012e-05
5.2676761e-05
5.2989113e-05
5.327829e-05
5.3545717e-05
5.3792507e-05
5.4019847e-05
5.4228858e-05
5.4420277e-05
5.4595225e-05
5.4754436e-05
5.4898532e-05
5.5028038e-05
5.5143774e-05
5.524662e-05
5.5337276e-05
5.5416288e-05
5.5484258e-05
5.5541796e-05
5.5589408e-05
5.5627448e-05
5.5656372e-05
5.5676686e-05
5.5688818e-05
5.5693146e-05
5.5690014e-05
5.5679811e-05
5.5662938e-05
5.5639678e-05
5.5610318e-05
5.5575152e-05
5.5534464e-05
5.5488523e-05
5.5437586e-05
5.5381895e-05
5.5321688e-05
5.5257186e-05
5.5188606e-05
5.5116154e-05
5.5040034e-05
5.4960432e-05
5.4877559e-05
5.479156e-05
5.4702735e-05
5.4611031e-05
5.4517228e-05
5.4420332e-05
5.4323232e-05
5.4221074e-05
5.4124424e-05
5.4015877e-05
5.3929291e-05
5.3827321e-05
5.3654322e-05
6.5991966e-05
1.8733265e-05
5.3505007e-06
2.0886446e-06
1.0936449e-06
7.3257561e-07
6.365668e-07
7.2386656e-07
9.4483622e-07
1.4811718e-06
2.4022643e-06
3.5607748e-06
5.0037821e-06
6.640457e-06
8.5179975e-06
1.0678892e-05
1.3102159e-05
1.5725098e-05
1.8464387e-05
2.1238823e-05
2.3987579e-05
2.6676018e-05
2.9289232e-05
3.1818607e-05
3.4256524e-05
3.6595596e-05
3.8832711e-05
4.09686e-05
4.3008065e-05
4.4953573e-05
4.6806636e-05
4.8570157e-05
5.0247563e-05
5.1840005e-05
5.3352819e-05
5.479261e-05
5.6156399e-05
5.7451392e-05
5.8680882e-05
5.9845879e-05
6.0948792e-05
6.1993256e-05
6.2982228e-05
6.3918252e-05
6.4804284e-05
6.5643101e-05
6.6436382e-05
6.7185372e-05
6.7891595e-05
6.8557077e-05
6.9184126e-05
6.977441e-05
7.0329652e-05
7.0851645e-05
7.1341864e-05
7.1802302e-05
7.2234024e-05
7.263807e-05
7.3015312e-05
7.336722e-05
7.3695258e-05
7.4000566e-05
7.4284065e-05
7.4546827e-05
7.4789892e-05
7.5014124e-05
7.522013e-05
7.5408738e-05
7.558083e-05
7.5737134e-05
7.5878321e-05
7.6005003e-05
7.6117885e-05
7.6217674e-05
7.630487e-05
7.6379999e-05
7.644359e-05
7.6496155e-05
7.6538182e-05
7.6570136e-05
7.6592461e-05
7.6605588e-05
7.6609925e-05
7.6605869e-05
7.65938e-05
7.6574091e-05
7.6547091e-05
7.6513179e-05
7.6472646e-05
7.6425979e-05
7.6373225e-05
7.6315462e-05
7.6251594e-05
7.6185279e-05
7.6110795e-05
7.6040996e-05
7.5954966e-05
7.5895995e-05
7.5812407e-05
7.5675933e-05
0.00017252409
9.6833188e-05
4.4698008e-05
2.0717293e-05
1.0302611e-05
5.6334789e-06
3.3666105e-06
2.189153e-06
1.5445884e-06
1.2092755e-06
1.0975005e-06
1.1517007e-06
1.3426894e-06
1.8462542e-06
2.6425267e-06
3.7357475e-06
5.1941041e-06
6.9628946e-06
9.0990046e-06
1.1623254e-05
1.4494412e-05
1.7622551e-05
2.0898168e-05
2.4221736e-05
2.7524605e-05
3.0769545e-05
3.393802e-05
3.701756e-05
3.9998893e-05
4.2876258e-05
4.5647383e-05
4.8312234e-05
5.0871679e-05
5.3326071e-05
5.5677601e-05
5.7930939e-05
6.008677e-05
6.2148652e-05
6.4120306e-05
6.6004609e-05
6.7804869e-05
6.9523332e-05
7.1162805e-05
7.2726283e-05
7.4216053e-05
7.5634359e-05
7.6985335e-05
7.8271723e-05
7.9496389e-05
8.0661749e-05
8.1769898e-05
8.2822688e-05
8.3822475e-05
8.4771501e-05
8.567204e-05
8.6527105e-05
8.7337734e-05
8.8105434e-05
8.8831969e-05
8.9519424e-05
9.0169388e-05
9.078342e-05
9.1362831e-05
9.1909018e-05
9.2423697e-05
9.2908206e-05
9.3363405e-05
9.3790604e-05
9.4191114e-05
9.4565987e-05
9.4916236e-05
9.524279e-05
9.5546747e-05
9.5829178e-05
9.6090818e-05
9.633249e-05
9.6555016e-05
9.6759182e-05
9.694574e-05
9.7115415e-05
9.7268897e-05
9.7406859e-05
9.7529939e-05
9.763876e-05
9.7733919e-05
9.7816e-05
9.7885558e-05
9.7943174e-05
9.798933e-05
9.8024728e-05
9.8049567e-05
9.8065214e-05
9.8070584e-05
9.8069923e-05
9.805705e-05
9.8046306e-05
9.8014377e-05
9.8012505e-05
9.7972629e-05
9.7920007e-05
0.00024106288
0.000192248
0.0001333447
8.5612808e-05
5.3423293e-05
3.348719e-05
2.1353253e-05
1.3919954e-05
9.3029453e-06
6.3408544e-06
4.4417219e-06
3.1842005e-06
2.3608102e-06
1.8723942e-06
1.6333181e-06
1.596296e-06
1.7259435e-06
2.1935141e-06
2.981255e-06
4.1359106e-06
5.7500669e-06
7.7795412e-06
1.0294969e-05
1.3286544e-05
1.6678653e-05
2.0347017e-05
2.4158313e-05
2.8005908e-05
3.1825147e-05
3.5583889e-05
3.9263991e-05
4.2851047e-05
4.6334281e-05
4.9707494e-05
5.2968098e-05
5.61162e-05
5.9151337e-05
6.2074453e-05
6.4887707e-05
6.7593333e-05
7.0193916e-05
7.2691802e-05
7.5089497e-05
7.7389786e-05
7.9595257e-05
8.1708308e-05
8.3732379e-05
8.5670658e-05
8.7526293e-05
8.9302189e-05
9.100094e-05
9.2625613e-05
9.41785e-05
9.5661854e-05
9.7078276e-05
9.8429265e-05
9.9718082e-05
0.00010094732
0.00010211967
0.000103237
0.0001043013
0.00010531455
0.00010627838
0.00010719482
0.00010806613
0.0001088939
0.00010967918
0.00011042388
0.00011112955
0.00011179779
0.0001124301
0.00011302797
0.00011359252
0.00011412505
0.00011462674
0.00011509877
0.00011554229
0.00011595839
0.00011634813
0.00011671251
0.00011705252
0.00011736909
0.00011766315
0.00011793555
0.00011818717
0.00011841882
0.00011863129
0.00011882542
0.0001190019
0.00011916166
0.00011930512
0.00011943392
0.00011954706
0.00011964926
0.00011973415
0.00011981706
0.00011987284
0.00011996025
0.00011999012
0.00012007106
0.00027081314
0.00025074961
0.0002136283
0.0001701932
0.00012976918
9.6718106e-05
7.1186978e-05
5.2204508e-05
3.8253167e-05
2.8023292e-05
2.0551662e-05
1.5073491e-05
1.1040307e-05
8.0700974e-06
5.9185525e-06
4.3677695e-06
3.2845214e-06
2.5976146e-06
2.2145447e-06
2.0897916e-06
2.1884987e-06
2.6975987e-06
3.5850844e-06
4.9437689e-06
6.8557126e-06
9.312678e-06
1.2357698e-05
1.5937105e-05
1.9923463e-05
2.4157794e-05
2.8498396e-05
3.2850568e-05
3.7163817e-05
4.1410677e-05
4.5570989e-05
4.9629713e-05
5.3577426e-05
5.7409264e-05
6.1122789e-05
6.4716807e-05
6.8191461e-05
7.1547653e-05
7.4786683e-05
7.7910341e-05
8.0920675e-05
8.3819734e-05
8.6610205e-05
8.9295009e-05
9.1877176e-05
9.4359688e-05
9.6745329e-05
9.9037134e-05
0.00010123783
0.00010334997
0.00010537634
0.00010731907
0.00010918113
0.00011096547
0.00011267503
0.00011431231
0.0001158797
0.00011737952
0.00011881439
0.00012018624
0.00012149675
0.00012274816
0.0001239432
0.00012508359
0.00012617118
0.00012720788
0.00012819557
0.00012913609
0.00013003096
0.00013088192
0.00013169037
0.00013245786
0.00013318588
0.00013387584
0.00013452911
0.00013514702
0.00013573085
0.00013628184
0.00013680118
0.00013729004
0.00013774955
0.00013818081
0.00013858486
0.0001389628
0.00013931558
0.00013964439
0.00013994987
0.00014023393
0.00014049575
0.00014074043
0.00014096158
0.00014117523
0.00014135459
0.00014156627
0.00014169361
0.00014196036
0.00028173575
0.00027699129
0.00026056184
0.00023371192
0.00020157334
0.00016905445
0.00013910433
0.00011319215
9.1415667e-05
7.3407396e-05
5.864476e-05
4.6597572e-05
3.6783393e-05
2.8829564e-05
2.2414224e-05
1.7254604e-05
1.3119432e-05
9.8814107e-06
7.3996282e-06
5.5459518e-06
4.1998e-06
3.3242883e-06
2.8187939e-06
2.6349806e-06
2.7994268e-06
3.4413264e-06
4.5808879e-06
6.3442408e-06
8.7390552e-06
1.1824486e-05
1.5567371e-05
1.9842168e-05
2.4468378e-05
2.9271961e-05
3.4129074e-05
3.8970503e-05
4.3758787e-05
4.8467987e-05
5.3078488e-05
5.7577722e-05
6.1958677e-05
6.6217079e-05
7.0350264e-05
7.4357166e-05
7.8237821e-05
8.1992791e-05
8.5623395e-05
8.9131543e-05
9.2519523e-05
9.5789844e-05
9.8945026e-05
0.00010198781
0.00010492091
0.00010774696
0.00011046871
0.0001130886
0.00011560943
0.0001180342
0.00012036598
0.00012260762
0.00012476181
0.00012683116
0.00012881845
0.00013072609
0.00013255622
0.00013431121
0.0001359939
0.00013760657
0.00013915141
0.00014063065
0.00014204648
0.00014340105
0.00014469644
0.00014593431
0.00014711674
0.00014824554
0.0001493225
0.00015034935
0.0001513278
0.00015225947
0.00015314596
0.00015398881
0.00015478952
0.00015554956
0.00015627034
0.00015695324
0.0001575996
0.00015821078
0.000158788
0.00015933273
0.00015984584
0.00016032956
0.00016078324
0.00016121232
0.00016161051
0.00016199439
0.0001623355
0.00016270917
0.00016296389
0.00016347128
0.00028494139
0.00028671545
0.00028214545
0.00026948226
0.00024991463
0.00022617973
0.0002009098
0.00017590129
0.00015240277
0.00013100692
0.00011189008
9.5007295e-05
8.0193476e-05
6.72952e-05
5.6089616e-05
4.6369103e-05
3.7964236e-05
3.0728744e-05
2.4554419e-05
1.933943e-05
1.4979975e-05
1.1445491e-05
8.6514937e-06
6.5089587e-06
4.9576307e-06
3.9456765e-06
3.3908875e-06
3.2318105e-06
3.6370621e-06
4.5859918e-06
6.2106078e-06
8.587066e-06
1.1743276e-05
1.5671718e-05
2.0245763e-05
2.5262977e-05
3.051988e-05
3.5867917e-05
4.1221938e-05
4.6535049e-05
5.1775391e-05
5.6919436e-05
6.1951884e-05
6.6863502e-05
7.1648276e-05
7.6302295e-05
8.0823602e-05
8.5211607e-05
8.9466665e-05
9.358986e-05
9.7582691e-05
0.00010144707
0.00010518518
0.00010879927
0.00011229181
0.00011566514
0.00011892184
0.00012206471
0.00012509674
0.00012802087
0.00013083993
0.00013355667
0.00013617396
0.0001386945
0.00014112073
0.00014345519
0.00014570079
0.00014786016
0.00014993579
0.00015193017
0.00015384576
0.00015568499
0.00015745024
0.00015914356
0.00016076725
0.00016232344
0.00016381424
0.00016524168
0.00016660776
0.00016791442
0.00016916356
0.00017035703
0.00017149662
0.00017258408
0.00017362113
0.00017460944
0.00017555064
0.00017644636
0.00017729809
0.00017810761
0.00017887603
0.00017960587
0.00018029671
0.00018095431
0.00018157249
0.00018216839
0.0001827117
0.00018328759
0.00018370207
0.00018450757
0.00028537517
0.00028931287
0.00029029465
0.00028631485
0.00027677366
0.00026244453
0.00024478571
0.00022523139
0.00020500767
0.00018501463
0.00016583464
0.00014780468
0.00013108429
0.00011561023
0.00010139806
8.841195e-05
7.6582938e-05
6.5827732e-05
5.6086867e-05
4.7321742e-05
3.9447678e-05
3.2430956e-05
2.6246994e-05
2.0854961e-05
1.6245887e-05
1.2434558e-05
9.3895556e-06
7.046427e-06
5.4254369e-06
4.4136445e-06
3.9343872e-06
4.0708541e-06
4.8688376e-06
6.4202008e-06
8.834983e-06
1.212999e-05
1.6308238e-05
2.1230162e-05
2.6666629e-05
3.2387511e-05
3.822618e-05
4.4086952e-05
4.9915719e-05
5.5675377e-05
6.1339209e-05
6.6889878e-05
7.2316442e-05
7.7611584e-05
8.2770689e-05
8.7791263e-05
9.267215e-05
9.7413252e-05
0.00010201526
0.00010647933
0.00011080706
0.0001150002
0.00011906078
0.00012299115
0.00012679394
0.00013047188
0.00013402769
0.00013746411
0.00014078393
0.00014398994
0.00014708475
0.000150071
0.00015295159
0.00015572932
0.00015840692
0.00016098706
0.00016347238
0.00016586554
0.00016816914
0.00017038557
0.0001725173
0.00017456675
0.00017653628
0.00017842821
0.00018024482
0.00018198831
0.00018366088
0.00018526464
0.00018680168
0.00018827403
0.0001896837
0.00019103263
0.00019232273
0.00019355592
0.00019473397
0.00019585893
0.0001969322
0.00019795655
0.00019893183
0.00019986405
0.00020074727
0.00020159911
0.00020238723
0.00020320796
0.00020381709
0.00020498089
0.00028511826
0.00028933001
0.00029236041
0.00029275763
0.00028954334
0.00028248284
0.00027200115
0.00025884703
0.00024384823
0.00022777028
0.00021124642
0.00019475858
0.00017865824
0.00016312044
0.00014826646
0.00013417539
0.00012088372
0.00010840122
9.6670291e-05
8.5621279e-05
7.5245585e-05
6.553613e-05
5.647852e-05
4.8092231e-05
4.0376826e-05
3.33446e-05
2.70187e-05
2.1397851e-05
1.6583904e-05
1.2605693e-05
9.4410232e-06
7.1349523e-06
5.6157313e-06
4.7891423e-06
4.6883378e-06
5.3848423e-06
6.9428152e-06
9.4789816e-06
1.3013697e-05
1.7538654e-05
2.2883875e-05
2.878689e-05
3.4995555e-05
4.1334303e-05
4.7703239e-05
5.4043641e-05
6.0314722e-05
6.6488028e-05
7.2545147e-05
7.8473993e-05
8.4266404e-05
8.9917279e-05
9.5423657e-05
0.00010078398
0.00010599777
0.00011106527
0.00011598729
0.00012076521
0.00012540085
0.00012989634
0.00013425398
0.00013847616
0.00014256545
0.00014652448
0.00015035583
0.0001540621
0.0001576461
0.00016111067
0.00016445859
0.00016769263
0.00017081556
0.00017383013
0.00017673911
0.0001795451
0.00018225074
0.00018485866
0.00018737143
0.00018979159
0.00019212164
0.00019436404
0.00019652122
0.00019859556
0.00020058938
0.000202505
0.00020434466
0.00020611058
0.00020780495
0.00020942994
0.0002109876
0.00021248025
0.00021390954
0.00021527853
0.00021658732
0.00021784218
0.00021903738
0.0002201911
0.00022126872
0.0002223791
0.0002232203
0.00022480537
0.00028499165
0.00028877897
0.00029219472
0.00029435096
0.00029446139
0.000292017
0.00028688973
0.00027926564
0.00026951859
0.00025810665
0.00024549729
0.00023211719
0.00021833529
0.00020442894
0.000190604
0.00017701618
0.00016377895
0.00015097549
0.00013864185
0.00012677157
0.00011536587
0.00010442899
9.3973889e-05
8.3943985e-05
7.4300407e-05
6.5068706e-05
5.6280622e-05
4.7959588e-05
4.0187907e-05
3.3026594e-05
2.650292e-05
2.0745271e-05
1.5861952e-05
1.1884585e-05
8.8990149e-06
6.878012e-06
5.7146522e-06
5.4419836e-06
6.1060527e-06
7.7763911e-06
1.0545645e-05
1.4451598e-05
1.9444671e-05
2.5303419e-05
3.1727905e-05
3.8453306e-05
4.5306416e-05
5.2189103e-05
5.9040402e-05
6.5817766e-05
7.249262e-05
7.904644e-05
8.5466705e-05
9.1744944e-05
9.7875716e-05
0.00010385561
0.00010968272
0.00011535632
0.00012087656
0.00012624428
0.00013146078
0.00013652772
0.00014144704
0.00014622092
0.00015085165
0.00015534159
0.0001596933
0.00016390947
0.00016799279
0.000171946
0.00017577184
0.00017947309
0.00018305258
0.00018651302
0.00018985716
0.00019308772
0.00019620744
0.00019921901
0.00020212511
0.00020492839
0.00020763146
0.00021023692
0.00021274732
0.00021516517
0.00021749297
0.00021973317
0.0002218882
0.00022396047
0.0002259523
0.00022786623
0.0002297042
0.0002314695
0.00023316251
0.00023478972
0.00023634565
0.00023784904
0.00023926282
0.00024070968
0.00024182284
0.00024389494
0.00028528099
0.00028846354
0.00029159848
0.00029417423
0.00029569111
0.00029571266
0.00029395114
0.00029029822
0.00028480255
0.0002776308
0.0002690242
0.00025925601
0.00024860355
0.00023732003
0.00022562232
0.00021369182
0.0002016771
0.00018969972
0.00017785133
0.00016618848
0.00015474899
0.00014356052
0.00013265507
0.00012203168
0.00011166948
0.00010156517
9.1738089e-05
8.2170031e-05
7.2800212e-05
6.3684938e-05
5.4869397e-05
4.6442141e-05
3.85271e-05
3.1184893e-05
2.4570509e-05
1.8860475e-05
1.4132268e-05
1.0536931e-05
8.0744694e-06
6.6318846e-06
6.3004879e-06
7.0357878e-06
8.9611634e-06
1.2108595e-05
1.6543288e-05
2.2137794e-05
2.8601092e-05
3.5598916e-05
4.2868354e-05
5.0249544e-05
5.7650664e-05
6.501161e-05
7.2290866e-05
7.9460933e-05
8.6503434e-05
9.3405742e-05
0.00010015941
0.00010675889
0.00011320074
0.00011948302
0.00012560496
0.00013156661
0.00013736867
0.00014301237
0.00014849926
0.00015383113
0.00015901006
0.00016403831
0.00016891831
0.00017365256
0.00017824365
0.00018269425
0.00018700709
0.00019118489
0.0001952304
0.00019914638
0.00020293562
0.0002066009
0.000210145
0.00021357068
0.00021688069
0.00022007779
0.00022316469
0.00022614409
0.00022901866
0.00023179106
0.00023446391
0.00023703987
0.00023952145
0.00024191143
0.000244212
0.00024642665
0.00024855605
0.00025060687
0.0002525739
0.00025447648
0.00025627488
0.00025810695
0.00025953428
0.000262162
0.00028605463
0.00028865223
0.00029131018
0.00029372989
0.00029562446
0.00029671191
0.00029674404
0.00029553568
0.00029298115
0.00028905967
0.00028382723
0.00027739673
0.00026991792
0.00026155711
0.0002524805
0.00024284442
0.00023279007
0.00022244269
0.00021191017
0.0002012788
0.00019061555
0.00017997206
0.00016939476
0.00015891658
0.00014855193
0.00013830803
0.0001282005
0.00011823806
0.0001083883
9.864836e-05
8.9043269e-05
7.9541914e-05
7.0128068e-05
6.0869184e-05
5.1844168e-05
4.3246205e-05
3.5161679e-05
2.7787679e-05
2.1353047e-05
1.5971371e-05
1.1890962e-05
9.1001991e-06
7.4906181e-06
7.25998e-06
8.2228723e-06
1.0587497e-05
1.4322074e-05
1.9454123e-05
2.5766278e-05
3.2898997e-05
4.050308e-05
4.8336002e-05
5.6257217e-05
6.418169e-05
7.2052004e-05
7.982959e-05
8.7488861e-05
9.501226e-05
0.00010238774
0.00010960718
0.0001166652
0.00012355848
0.00013028514
0.00013684444
0.00014323643
0.00014946173
0.00015552146
0.00016141712
0.00016715052
0.00017272367
0.0001781388
0.00018339825
0.00018850454
0.00019346022
0.00019826792
0.00020293032
0.00020745016
0.0002118302
0.00021607324
0.00022018208
0.00022415956
0.00022800848
0.00023173168
0.00023533197
0.00023881216
0.00024217506
0.00024542345
0.00024856017
0.00025158791
0.00025450966
0.00025732779
0.00026004602
0.00026266526
0.00026519232
0.00026762231
0.00026997515
0.00027220835
0.00027447603
0.00027626193
0.00027951663
0.00028730033
0.0002893952
0.0002915727
0.00029364787
0.00029545732
0.00029684272
0.00029764731
0.00029771966
0.00029692646
0.00029517043
0.00029240191
0.00028861878
0.00028386019
0.00027819669
0.00027171906
0.00026452827
0.00025672759
0.00024841779
0.00023969414
0.00023064263
0.00022133791
0.000211843
0.00020221299
0.00019249499
0.00018272469
0.00017292707
0.00016312403
0.00015333651
0.00014356628
0.00013381005
0.0001240799
0.00011436837
0.00010465011
9.492629e-05
8.5241143e-05
7.5511152e-05
6.5806699e-05
5.6235134e-05
4.700054e-05
3.8231282e-05
3.0193942e-05
2.315064e-05
1.7248565e-05
1.2854483e-05
9.8905434e-06
8.3097437e-06
8.3030844e-06
9.7542002e-06
1.2746859e-05
1.7304465e-05
2.3319787e-05
3.0458185e-05
3.8310076e-05
4.6543938e-05
5.4954446e-05
6.3422473e-05
7.1871209e-05
8.0248696e-05
8.8520321e-05
9.6662545e-05
0.00010465914
0.00011249907
0.00012017485
0.00012768158
0.0001350162
0.00014217695
0.0001491631
0.00015597468
0.00016261235
0.00016907722
0.00017537077
0.00018149478
0.00018745126
0.00019324241
0.00019887057
0.00020433817
0.00020964779
0.00021480204
0.00021980364
0.00022465533
0.00022935992
0.00023392021
0.00023833908
0.00024261937
0.00024676399
0.00025077582
0.00025465776
0.00025841276
0.00026204367
0.00026555361
0.00026894515
0.00027222215
0.00027538576
0.00027844292
0.00028138904
0.00028424461
0.00028696432
0.00028971963
0.00029191048
0.00029586623
0.00028898234
0.00029066457
0.00029242246
0.00029413276
0.00029569568
0.00029702566
0.0002980407
0.00029865015
0.00029875354
0.00029825197
0.00029706244
0.0002951267
0.000292415
0.00028892547
0.00028468039
0.00027972068
0.00027409985
0.00026787914
0.00026112381
0.00025389953
0.00024626936
0.00023829156
0.00023001945
0.00022150164
0.00021278059
0.00020389125
0.00019486286
0.00018572219
0.00017648772
0.00016716891
0.00015777683
0.00014831764
0.00013878487
0.0001291685
0.00011948934
0.00010970615
9.9806936e-05
8.9826746e-05
7.9750698e-05
6.9586758e-05
5.9474794e-05
4.9642377e-05
4.0243325e-05
3.1654652e-05
2.4116666e-05
1.7909994e-05
1.3361169e-05
1.0406422e-05
9.2231095e-06
9.6701618e-06
1.1860818e-05
1.5746889e-05
2.1338089e-05
2.8358095e-05
3.6367477e-05
4.4949556e-05
5.3820458e-05
6.2814878e-05
7.1831324e-05
8.080217e-05
8.9682432e-05
9.844187e-05
0.00010705965
0.00011552142
0.00012381729
0.00013194051
0.00013988659
0.00014765271
0.00015523733
0.00016263983
0.00016986036
0.00017689961
0.00018375873
0.00019043925
0.00019694292
0.00020327176
0.00020942795
0.00021541383
0.00022123186
0.00022688463
0.00023237479
0.00023770505
0.00024287822
0.00024789713
0.00025276465
0.0002574837
0.00026205723
0.00026648824
0.00027077968
0.00027493477
0.00027895621
0.00028284795
0.0002866114
0.00029025352
0.00029377008
0.00029718212
0.00030044142
0.00030373776
0.0003063818
0.00031111527
0.00029106362
0.00029241269
0.00029382324
0.00029520815
0.00029649948
0.0002976475
0.00029861374
0.00029935568
0.00029981689
0.00029992883
0.00029961903
0.00029881971
0.00029747464
0.00029554361
0.00029300409
0.00028985058
0.00028609214
0.0002817497
0.00027685334
0.00027143954
0.00026554849
0.00025922171
0.00025250048
0.00024542502
0.00023803352
0.00023036078
0.00022243771
0.00021429259
0.00020594968
0.00019742712
0.00018874001
0.00017990053
0.00017091445
0.000161779
0.00015250243
0.00014307438
0.00013347686
0.00012371321
0.0001137705
0.00010362129
9.3292774e-05
8.2807912e-05
7.213768e-05
6.1481529e-05
5.1058179e-05
4.1122173e-05
3.2080722e-05
2.4174332e-05
1.7934778e-05
1.3488212e-05
1.0857144e-05
1.0276868e-05
1.1556944e-05
1.4739918e-05
1.9835178e-05
2.6647676e-05
3.4738351e-05
4.36196e-05
5.2923291e-05
6.2428083e-05
7.2002761e-05
8.1562011e-05
9.1049045e-05
0.00010042585
0.00010966631
0.00011875234
0.00012767132
0.00013641448
0.00014497587
0.00015335155
0.0001615391
0.00016953724
0.00017734556
0.00018496435
0.00019239438
0.00019963686
0.00020669333
0.0002135656
0.00022025571
0.00022676587
0.00023309846
0.00023925597
0.00024524102
0.0002510563
0.00025670459
0.00026218876
0.0002675117
0.00027267641
0.00027768588
0.00028254335
0.00028725161
0.00029181465
0.00029623411
0.0003005169
0.0003046592
0.0003086825
0.00031253571
0.00031642775
0.00031957486
0.00032516518
0.00029351304
0.00029459372
0.00029572212
0.00029683431
0.00029787952
0.00029882392
0.00029964904
0.00030033955
0.00030087193
0.00030121036
0.00030130855
0.00030111405
0.00030057349
0.00029963764
0.00029826529
0.00029642548
0.000294098
0.00029127315
0.00028795086
0.00028413935
0.00027985346
0.000275113
0.00026994117
0.00026436343
0.00025840641
0.00025209683
0.00024546045
0.00023852193
0.00023130431
0.00022382763
0.0002161091
0.00020816349
0.00020000213
0.00019163004
0.00018305329
0.00017427244
0.00016527891
0.00015606754
0.00014663059
0.00013694727
0.0001270098
0.00011681954
0.00010633258
9.5592202e-05
8.4611865e-05
7.3395201e-05
6.2177576e-05
5.1162497e-05
4.0791138e-05
3.1422257e-05
2.344308e-05
1.7408345e-05
1.3332436e-05
1.1559693e-05
1.1840557e-05
1.4300406e-05
1.8837298e-05
2.5364892e-05
3.3467138e-05
4.2601685e-05
5.2314491e-05
6.2318626e-05
7.2446586e-05
8.2592666e-05
9.2687031e-05
0.00010268309
0.00011254896
0.00012226249
0.00013180822
0.00014117535
0.00015035636
0.00015934615
0.00016814141
0.00017674014
0.00018514138
0.00019334492
0.00020135118
0.00020916107
0.00021677588
0.00022419721
0.00023142696
0.0002384672
0.00024532022
0.00025198844
0.00025847443
0.00026478087
0.00027091054
0.00027686635
0.00028265121
0.00028826834
0.00029372056
0.00029901184
0.00030414399
0.00030912382
0.00031394791
0.00031863819
0.00032314068
0.00032768417
0.00033138566
0.00033791427
0.00029630646
0.00029717004
0.0002980699
0.00029895832
0.00029979523
0.00030055388
0.00030122303
0.00030179896
0.00030227609
0.00030264147
0.000302873
0.00030293985
0.00030280469
0.0003024269
0.00030176603
0.00030078463
0.00029945017
0.00029773633
0.00029562365
0.00029309961
0.00029015811
0.00028679885
0.00028302647
0.00027884964
0.00027428031
0.00026933278
0.00026402283
0.00025836708
0.00025238245
0.0002460853
0.00023949083
0.00023261288
0.00022546355
0.00021805143
0.00021038348
0.0002024641
0.00019429214
0.00018586395
0.0001771743
0.00016821059
0.0001589588
0.00014941181
0.00013954056
0.00012933806
0.00011879981
0.00010788278
9.6659024e-05
8.5086866e-05
7.3276603e-05
6.1454159e-05
4.9939507e-05
3.9263753e-05
2.9724669e-05
2.2092713e-05
1.6550412e-05
1.3336722e-05
1.2627738e-05
1.4301946e-05
1.8269053e-05
2.4489482e-05
3.2571063e-05
4.1932593e-05
5.204035e-05
6.2538457e-05
7.321879e-05
8.3953046e-05
9.4657322e-05
0.00010527593
0.00011577098
0.0001261162
0.0001362932
0.00014628903
0.00015609458
0.00016570356
0.00017511171
0.00018431631
0.00019331578
0.00020210947
0.00021069742
0.00021908021
0.00022725891
0.00023523493
0.00024300997
0.00025058601
0.00025796524
0.00026515002
0.00027214289
0.00027894656
0.00028556378
0.00029199765
0.00029825094
0.00030432751
0.00031022932
0.000315963
0.00032152555
0.00032693924
0.00033214724
0.00033739887
0.00034170731
0.00034925773
0.00029942588
0.00030011264
0.00030082664
0.00030153208
0.00030219659
0.00030279726
0.0003033247
0.00030377834
0.00030415979
0.00030446808
0.00030469694
0.00030483323
0.00030485687
0.00030474195
0.00030445856
0.00030397493
0.00030325923
0.0003022813
0.00030101394
0.00029943384
0.00029752203
0.00029526402
0.00029264977
0.00028967344
0.00028633297
0.00028262964
0.00027856753
0.00027415293
0.00026939387
0.00026429947
0.00025887936
0.00025314317
0.00024710018
0.0002407583
0.00023412409
0.00022720261
0.00021999598
0.00021250339
0.00020472194
0.00019664453
0.00018825982
0.00017955797
0.00017051957
0.00016112612
0.0001513651
0.00014119969
0.00013063576
0.00011964008
0.00010819489
9.6389391e-05
8.4144127e-05
7.1708368e-05
5.9262476e-05
4.7423267e-05
3.6569905e-05
2.7326855e-05
2.029368e-05
1.5677858e-05
1.3922317e-05
1.4746874e-05
1.812581e-05
2.4024984e-05
3.206998e-05
4.1645764e-05
5.214293e-05
6.3134917e-05
7.437014e-05
8.5696342e-05
9.7015054e-05
0.00010826119
0.00011939068
0.000130373
0.00014118676
0.00015181684
0.00016225254
0.00017248633
0.00018251299
0.00019232906
0.0002019324
0.00021132187
0.00022049713
0.00022945849
0.00023820674
0.00024674311
0.00025506916
0.00026318677
0.00027109804
0.00027880533
0.00028631113
0.00029361828
0.00030072944
0.00030764825
0.00031437676
0.00032092132
0.00032727937
0.00033347342