/*--------------------------------*- C++ -*----------------------------------*\
| =========                 |                                                 |
| \\      /  F ield         | OpenFOAM: The Open Source CFD Toolbox           |
|  \\    /   O peration     | Version:  2206                                  |
|   \\  /    A nd           | Website:  www.openfoam.com                      |
|    \\/     M anipulation  |                                                 |
\*---------------------------------------------------------------------------*/
FoamFile
{
    version     2.0;
    format      ascii;
    arch        "LSB;label=32;scalar=64";
    class       volScalarField;
    location    "1800";
    object      p;
}
// * * * * * * * * * * * * * * * * * * * * * * * * * * * * * * * * * * * * * //

dimensions      [0 2 -2 0 0 0 0];

internalField   nonuniform List<scalar> 
7480
(
0.062987414
0.052095333
0.03669695
0.027312098
0.021996083
0.018793818
0.016767274
0.015215373
0.013854919
0.012721164
0.011821368
0.011113758
0.010576975
0.010184355
0.0099044229
0.0097147569
0.0095948588
0.0095298481
0.0095029101
0.0094968282
0.0095141534
0.0095347681
0.009549378
0.0095597759
0.0095640587
0.0095610117
0.0095513694
0.0095353018
0.0095113932
0.0094801784
0.0094429114
0.0094000965
0.0093521747
0.0092999468
0.0092434584
0.0091827706
0.0091181805
0.009049666
0.0089774748
0.0089020619
0.0088235269
0.0087417705
0.0086573297
0.0085702855
0.0084806315
0.0083887521
0.0082944598
0.0081978787
0.0080992018
0.0079981984
0.0078951955
0.0077901594
0.0076831146
0.0075742143
0.0074632436
0.0073504188
0.0072356475
0.0071189426
0.0070002866
0.0068796405
0.0067571104
0.0066325625
0.0065061013
0.0063776189
0.0062471466
0.0061146352
0.0059800548
0.0058433734
0.0057045638
0.0055636208
0.0054204975
0.0052751913
0.0051276555
0.0049779014
0.0048258767
0.0046715937
0.0045150091
0.0043561563
0.0041950052
0.0040316098
0.0038659642
0.0036981473
0.003528214
0.0033562465
0.0031824163
0.0030068461
0.0028298699
0.0026516823
0.0024729843
0.0022939049
0.0021163565
0.0019391656
0.0017694908
0.0015976118
0.0014547365
0.0012875135
0.0012305065
0.0010255952
0.001835894
-0.001834796
0.059299107
0.051093504
0.038761981
0.02945464
0.02311698
0.019291993
0.017012023
0.015367576
0.013970196
0.012820837
0.011910148
0.01119287
0.010647868
0.010247437
0.0099599379
0.0097634194
0.0096376439
0.0095674986
0.0095372018
0.0095327607
0.0095439543
0.009557732
0.00956997
0.009578353
0.0095808294
0.0095762332
0.0095652451
0.0095479736
0.009522997
0.0094908549
0.009452776
0.0094092312
0.009360653
0.0093078326
0.0092508047
0.0091896291
0.0091245998
0.0090556868
0.0089831303
0.0089073836
0.0088285405
0.0087465
0.0086617975
0.0085745096
0.0084846289
0.0083925386
0.008298049
0.0082012846
0.0081024361
0.0080012717
0.0078981182
0.0077929402
0.0076857618
0.0075767353
0.0074656454
0.0073527083
0.0072378306
0.0071210251
0.0070022741
0.0068815378
0.0067589221
0.0066342928
0.0065077543
0.0063791983
0.0062486561
0.0061160782
0.0059814345
0.0058446929
0.0057058259
0.0055648283
0.0054216528
0.0052762969
0.0051287137
0.0049789143
0.0048268465
0.0046725223
0.0045158985
0.0043570082
0.0041958213
0.0040323917
0.0038667136
0.0036988655
0.0035289025
0.0033569067
0.0031830496
0.0030074538
0.0028304531
0.0026522424
0.0024735226
0.0022944226
0.0021168552
0.0019396464
0.0017699564
0.0015980626
0.0014551787
0.0012879477
0.0012309451
0.0010261154
0.0018363065
-0.0018342332
0.055534206
0.048788623
0.038001249
0.029224671
0.023378613
0.019802205
0.017509058
0.015769994
0.014288754
0.01308905
0.012141741
0.011393672
0.010824754
0.010404128
0.010099174
0.0098881085
0.0097494911
0.0096677621
0.0096274532
0.0096146753
0.0096148075
0.0096206684
0.0096265992
0.0096292346
0.0096266784
0.0096177981
0.0096030923
0.0095824254
0.0095544053
0.0095196179
0.0094792367
0.0094336256
0.0093831918
0.0093286966
0.0092701476
0.0092075813
0.0091412993
0.0090712653
0.0089976718
0.0089209805
0.0088412709
0.0087584344
0.008673004
0.0085850431
0.0084945408
0.0084018752
0.008306849
0.0082095888
0.00811028
0.008008686
0.0079051336
0.0077995823
0.0076920551
0.0075827019
0.0074713048
0.00735808
0.0072429314
0.0071258711
0.0070068802
0.0068859182
0.0067630896
0.006638259
0.0065115303
0.0063827946
0.0062520823
0.0061193433
0.005984547
0.0058476609
0.005708657
0.0055675294
0.0054242306
0.0052787575
0.005131063
0.0049811578
0.0048289894
0.0046745696
0.0045178549
0.0043588781
0.004197609
0.0040341012
0.0038683486
0.0037004298
0.0035303994
0.0033583396
0.0031844216
0.003008768
0.0028317126
0.0026534501
0.0024746815
0.0022955354
0.002117926
0.0019406768
0.0017709541
0.0015990255
0.0014561266
0.0012888692
0.0012318944
0.0010270668
0.001837386
-0.0018335011
0.052629175
0.047080772
0.037753721
0.029540249
0.023954044
0.020354894
0.017968546
0.016178548
0.014664571
0.013435184
0.012454412
0.011671294
0.011073466
0.010627269
0.010298986
0.010067153
0.009909328
0.0098103883
0.0097549518
0.0097288053
0.0097175956
0.0097137808
0.0097110696
0.0097060469
0.0096966006
0.009681626
0.0096615384
0.0096359528
0.0096034946
0.0095648181
0.0095209901
0.0094722442
0.0094189799
0.0093619246
0.0093010386
0.0092362709
0.0091679941
0.0090961844
0.0090209194
0.0089427098
0.0088616058
0.008777485
0.0086908796
0.0086018315
0.0085103253
0.0084167293
0.0083208328
0.0082227687
0.008122713
0.008020422
0.0079162234
0.007810068
0.0077019775
0.007592097
0.0074802046
0.007366517
0.0072509326
0.0071334625
0.0070140861
0.0068927622
0.0067695932
0.0066444411
0.0065174096
0.0063883877
0.0062574054
0.0061244108
0.0059893727
0.005852258
0.0057130377
0.005571705
0.0054282117
0.0052825542
0.0051346848
0.0049846137
0.0048322877
0.0046777182
0.0045208614
0.0043617496
0.0042003522
0.0040367224
0.003870854
0.003702825
0.0035326899
0.0033605306
0.0031865183
0.003010775
0.0028336348
0.0026552919
0.0024764478
0.0022972302
0.0021195553
0.0019422435
0.0017724689
0.0016004863
0.0014575597
0.0012902608
0.001233319
0.0010284364
0.0018390507
-0.0018325196
0.049884718
0.045251721
0.03729835
0.029898428
0.024592171
0.02093775
0.018428611
0.016543537
0.014958492
0.013712341
0.01272841
0.011937876
0.011324067
0.010855593
0.010507451
0.010257706
0.010083456
0.0099696342
0.0098987866
0.0098577244
0.0098337219
0.0098183758
0.0098063224
0.0097936684
0.0097774301
0.0097562901
0.0097306717
0.0097000269
0.0096629193
0.00962007
0.0095724196
0.0095201094
0.0094635565
0.0094034938
0.0093398466
0.0092724526
0.009201776
0.0091278013
0.0090504905
0.0089704064
0.0088875699
0.0088018452
0.0087137666
0.0086233493
0.0085305743
0.0084358003
0.0083387962
0.0082397023
0.0081386868
0.0080354985
0.0079304674
0.0078235321
0.0077147137
0.0076041522
0.0074916202
0.0073773354
0.0072611876
0.0071431869
0.0070233114
0.0069015196
0.006777911
0.0066523436
0.0065249209
0.0063955299
0.0062641994
0.0061308752
0.0059955254
0.005858116
0.0057186172
0.0055770206
0.0054332771
0.0052873825
0.0051392886
0.0049890045
0.0048364763
0.004681715
0.0045246759
0.0043653913
0.0042038296
0.0040400439
0.0038740272
0.0037058574
0.0035355886
0.0033633023
0.0031891693
0.0030133117
0.002836063
0.0026576175
0.0024786766
0.0022993677
0.0021216083
0.0019442163
0.0017743729
0.0016023215
0.001459352
0.0012919996
0.0012350812
0.0010301325
0.0018411199
-0.0018312987
0.047305715
0.043306665
0.036604278
0.030032103
0.025017544
0.021424801
0.018875816
0.016936111
0.015315024
0.014029079
0.013005513
0.01217482
0.011534838
0.011047941
0.010690895
0.010429648
0.010238262
0.010113588
0.010033526
0.0099839519
0.009952437
0.0099284522
0.0099074482
0.0098861399
0.0098619202
0.0098339888
0.0098029404
0.0097676866
0.0097263622
0.0096797158
0.0096285272
0.0095728134
0.0095130182
0.0094499227
0.009383432
0.0093133371
0.0092401656
0.0091638775
0.0090843799
0.0090022716
0.0089175429
0.0088300443
0.0087403242
0.0086483665
0.0085541492
0.0084580334
0.0083597662
0.0082594941
0.0081573776
0.0080531538
0.0079471575
0.007839314
0.0077296457
0.0076182882
0.0075050089
0.0073900251
0.0072732158
0.0071545917
0.0070341302
0.0069117883
0.0067876622
0.0066616052
0.0065337211
0.0064038948
0.0062721539
0.0061384411
0.0060027234
0.0058649667
0.0057251393
0.0055832316
0.0054391931
0.0052930192
0.0051446608
0.004994126
0.0048413596
0.0046863725
0.0045291192
0.0043696312
0.0042078763
0.0040439072
0.0038777163
0.0037093812
0.0035389553
0.0033665198
0.0031922452
0.0030162531
0.0028388772
0.002660311
0.0024812563
0.0023018398
0.0021239804
0.0019464938
0.0017765667
0.0016044341
0.0014614058
0.0012939894
0.001237077
0.001032062
0.0018434599
-0.0018298795
0.045037333
0.04143732
0.035742614
0.029951152
0.025291221
0.021821611
0.019269029
0.017298414
0.015667277
0.014356313
0.013303936
0.01244562
0.01177462
0.011257001
0.010871213
0.01058286
0.010368877
0.010231317
0.010143224
0.010085631
0.010047088
0.010019513
0.0099967128
0.0099735806
0.009946403
0.0099138503
0.009877312
0.0098365614
0.0097901936
0.00973956
0.0096851668
0.0096265382
0.0095639881
0.0094982943
0.0094292736
0.0093567092
0.0092812126
0.0092027
0.0091210592
0.0090369491
0.0089503191
0.0088610066
0.0087695912
0.008676023
0.0085802792
0.0084827345
0.0083831162
0.0082815817
0.0081782806
0.0080729335
0.0079658848
0.0078570466
0.0077464423
0.0076342047
0.0075200935
0.0074043287
0.0072867808
0.0071674618
0.0070463461
0.0069233875
0.0067986794
0.0066720708
0.0065436661
0.0064133484
0.006281144
0.0061469914
0.0060108573
0.0058727071
0.0057325074
0.0055902471
0.0054458744
0.0052993839
0.0051507254
0.0049999059
0.0048468694
0.004691626
0.0045341293
0.0043744105
0.0042124363
0.0040482591
0.0038818705
0.0037133476
0.0035427433
0.0033701384
0.003195703
0.0030195583
0.0028420376
0.0026633342
0.00248415
0.0023046109
0.0021266368
0.001949042
0.0017790168
0.0016067915
0.0014636875
0.0012961964
0.0012392693
0.0010341833
0.0018460145
-0.0018282676
0.043077674
0.039798364
0.034861458
0.029734284
0.025437895
0.022121948
0.019601604
0.017624645
0.015990432
0.014661661
0.013588881
0.012713447
0.01202068
0.011478076
0.011069074
0.010756359
0.010517455
0.010358495
0.010249655
0.010173611
0.010121357
0.010086417
0.010060553
0.010035224
0.010007941
0.0099770536
0.0099418233
0.0099015238
0.0098536391
0.0097998793
0.0097417597
0.0096794891
0.009613904
0.00954584
0.0094747263
0.0094001511
0.0093227695
0.0092423953
0.0091588908
0.0090729984
0.0089846259
0.0088936108
0.0088005802
0.0087054499
0.0086082065
0.0085092422
0.0084082615
0.0083054437
0.0082009283
0.0080944196
0.007986278
0.0078763998
0.0077648104
0.0076516408
0.0075366407
0.0074200379
0.007301697
0.0071816304
0.0070598085
0.0069361814
0.0068108408
0.0066836313
0.0065546588
0.0064238028
0.0062910889
0.0061564532
0.0060198615
0.005881278
0.0057406676
0.0055980181
0.0054532765
0.005306436
0.0051574451
0.0050063103
0.0048529742
0.0046974465
0.0045396799
0.0043797047
0.0042174871
0.0040530785
0.0038864701
0.0037177384
0.0035469358
0.0033741423
0.0031995279
0.0030232132
0.0028455312
0.0026666747
0.0024873456
0.0023076695
0.0021295664
0.0019518503
0.0017817126
0.0016093829
0.0014661857
0.0012986087
0.0012416438
0.001036478
0.0018487526
-0.0018264468
0.041345295
0.038384464
0.034066281
0.029487786
0.025514744
0.022352518
0.019883491
0.017916309
0.016286613
0.014949911
0.013863172
0.012973102
0.01226058
0.011697545
0.01126552
0.010931929
0.010674895
0.010495804
0.010367634
0.010274697
0.010207752
0.010158875
0.010120659
0.010084785
0.010050782
0.01001851
0.0099835129
0.0099437573
0.0098988653
0.009848266
0.0097923755
0.0097304374
0.0096632759
0.0095926711
0.0095188825
0.0094419804
0.0093628493
0.0092809854
0.0091960362
0.0091087771
0.0090190202
0.0089265948
0.0088321874
0.0087356777
0.0086370756
0.0085368
0.0084345321
0.0083304858
0.0082247935
0.0081171436
0.0080079194
0.0078970002
0.0077844174
0.0076703012
0.0075543914
0.0074369262
0.0073177628
0.0071969166
0.0070743546
0.0069500245
0.0068240164
0.0066961708
0.0065665955
0.0064351651
0.0063019054
0.006166752
0.0060296695
0.0058906198
0.0057495666
0.0056064967
0.0054613557
0.0053141361
0.0051647847
0.0050133072
0.0048596453
0.0047038082
0.0045457474
0.0043854927
0.0042230092
0.004058348
0.0038914993
0.0037225393
0.0035515194
0.0033785194
0.0032037088
0.0030272075
0.0028493483
0.0026703236
0.002490835
0.0023110079
0.0021327618
0.0019549114
0.0017846469
0.0016122013
0.0014688927
0.0013012183
0.0012441904
0.0010389335
0.0018516468
-0.001824394
0.039783121
0.037126428
0.033347045
0.029247496
0.025565333
0.022548915
0.020136799
0.018186065
0.016564187
0.015224354
0.014127099
0.013224491
0.012495191
0.01191383
0.011460645
0.011107751
0.01083321
0.010634369
0.01048857
0.01038092
0.010300269
0.010238336
0.010189272
0.010144125
0.010101717
0.010061711
0.010019303
0.0099735603
0.0099269238
0.0098772214
0.0098229381
0.0097640534
0.0097005269
0.0096327074
0.0095601761
0.009482655
0.0094018307
0.0093180329
0.0092313609
0.0091428371
0.0090520138
0.0089585532
0.0088631476
0.0087655897
0.0086659063
0.0085645479
0.0084611712
0.00835604
0.0082492845
0.0081405802
0.0080303423
0.0079184329
0.0078048947
0.0076898586
0.0075730549
0.0074547354
0.0073347492
0.007213117
0.0070898036
0.006964756
0.0068380631
0.0067095612
0.0065793614
0.0064473337
0.0063135046
0.0061778085
0.0060402099
0.0059006688
0.0057591476
0.005615632
0.005470067
0.0053224438
0.0051727079
0.0050208643
0.004866854
0.0047106853
0.0045523089
0.0043917538
0.0042289843
0.0040640511
0.0038969432
0.0037277368
0.0035564823
0.003383259
0.0032082359
0.0030315325
0.0028534811
0.0026742737
0.0024946115
0.0023146198
0.0021362171
0.0019582199
0.0017878142
0.0016152413
0.0014718025
0.0013040188
0.0012469009
0.0010415395
0.001854671
-0.001822082
0.038360323
0.035978771
0.032668886
0.02900117
0.025594186
0.022722523
0.02037295
0.018443965
0.016831671
0.015490671
0.014384598
0.013470628
0.01272621
0.012127677
0.011655111
0.011283529
0.010991717
0.010774282
0.010611786
0.010488785
0.010394309
0.010320292
0.010260875
0.010207221
0.010157298
0.010110351
0.010061613
0.010010666
0.0099590778
0.0099043962
0.0098454646
0.0097844553
0.0097217266
0.0096558016
0.0095860124
0.0095120901
0.0094342024
0.0093520495
0.0092652789
0.0091756032
0.0090833626
0.0089886581
0.0088923592
0.0087940357
0.0086936073
0.008591501
0.0084873091
0.0083813438
0.0082737314
0.008164138
0.008053023
0.0079402327
0.0078258286
0.007709945
0.0075923035
0.0074731743
0.0073523977
0.0072300024
0.0071059526
0.0069801957
0.0068528212
0.0067236606
0.0065928305
0.0064601967
0.006325787
0.0061895347
0.0060514046
0.0059113556
0.0057693489
0.0056253697
0.0054793618
0.0053313161
0.0051811768
0.0050289482
0.0048745705
0.0047180516
0.004559341
0.0043984675
0.0042353944
0.0040701718
0.003902788
0.0037333186
0.0035618135
0.0033883515
0.003213101
0.0030361808
0.0028579231
0.0026785193
0.0024986699
0.0023185007
0.0021399283
0.0019617719
0.0017912106
0.0016184992
0.0014749107
0.0013070056
0.001249769
0.0010442878
0.0018577999
-0.0018194792
0.037057144
0.034919288
0.032013737
0.028735377
0.025593036
0.022869789
0.020591268
0.018691263
0.017091731
0.015751796
0.014638585
0.013714131
0.012955552
0.012340597
0.011849609
0.01145977
0.011150939
0.010915656
0.010736513
0.01059828
0.010490408
0.010404509
0.010334314
0.010271831
0.010214293
0.010160649
0.0101066
0.010051103
0.0099949993
0.0099360746
0.0098736358
0.0098093231
0.0097431362
0.0096736447
0.0096016827
0.0095283769
0.0094523393
0.0093727359
0.0092894065
0.0092025813
0.0091119642
0.0090173317
0.0089201913
0.008820812
0.0087195137
0.0086167862
0.0085120372
0.0084055409
0.0082973636
0.0081871356
0.0080753627
0.0079618717
0.0078467515
0.0077301449
0.0076117669
0.007491913
0.0073704148
0.0072473124
0.0071225703
0.0069961385
0.0068681084
0.0067383076
0.0066068597
0.0064736272
0.0063386401
0.0062018308
0.0060631654
0.005922602
0.0057801015
0.0056356485
0.0054891862
0.0053407056
0.0051901494
0.0050375218
0.0048827623
0.0047258783
0.0045668188
0.0044056119
0.0042422201
0.0040766932
0.0039090188
0.0037392721
0.0035675022
0.0033937873
0.0032182956
0.0030411453
0.002862668
0.0026830549
0.0025030058
0.0023226467
0.0021438917
0.0019655643
0.0017948333
0.0016219723
0.001478214
0.0013101752
0.0012527896
0.0010471709
0.0018610079
-0.0018165489
0.035858669
0.033935346
0.031375896
0.028445824
0.025556602
0.022985475
0.02078712
0.018924605
0.017342726
0.016007198
0.014889205
0.013955552
0.013183877
0.012553287
0.012044681
0.011637069
0.011311412
0.011058693
0.010863033
0.01070977
0.010588449
0.010490567
0.010409643
0.01033825
0.010272926
0.010212368
0.010152751
0.010092424
0.010031927
0.0099694475
0.0099041034
0.0098369404
0.0097678154
0.0096956741
0.0096213434
0.0095455086
0.0094666976
0.0093852566
0.0093025403
0.0092174902
0.009129326
0.009037904
0.0089433799
0.0088453422
0.0087440676
0.0086406675
0.0085351272
0.0084280599
0.0083194702
0.0082088455
0.0080966822
0.0079827411
0.0078671253
0.0077499837
0.0076310249
0.007510578
0.0073884676
0.00726475
0.0071393923
0.0070123491
0.0068837157
0.0067533163
0.0066212842
0.0064874788
0.006351934
0.0062145818
0.0060753903
0.005934318
0.0057913256
0.005646398
0.0054994781
0.0053505571
0.0051995773
0.0050465425
0.0048913918
0.0047341327
0.0045747133
0.0044131616
0.0042494394
0.0040835963
0.003915619
0.0037455827
0.0035735356
0.0033995557
0.0032238106
0.0030464181
0.0028677093
0.002687875
0.0025076141
0.0023270535
0.0021481039
0.001969594
0.0017986791
0.0016256578
0.0014817091
0.0013135242
0.0012559575
0.0010501819
0.0018642679
-0.0018132492
0.034752802
0.033018178
0.030754484
0.028133763
0.025484035
0.023066798
0.02095667
0.019140193
0.017581789
0.016254859
0.015135132
0.01419415
0.013410794
0.012765602
0.012240296
0.011815502
0.01147327
0.01120351
0.010991556
0.010823363
0.010688544
0.010578601
0.010486916
0.010406411
0.010333244
0.010265708
0.010200223
0.010134866
0.0100699
0.010003727
0.0099352497
0.0098652239
0.0097935798
0.0097193953
0.0096431318
0.0095651622
0.0094843301
0.0094011389
0.0093164768
0.0092292119
0.0091397099
0.0090490014
0.0089561955
0.0088605866
0.0087622386
0.0086610972
0.0085564981
0.0084493222
0.0083401811
0.0082289957
0.0081164684
0.0080022461
0.0078863627
0.0077689203
0.007649594
0.007528742
0.0074061777
0.0072819792
0.0071561187
0.0070285596
0.0068994039
0.0067684735
0.0066359141
0.0065015826
0.0063655186
0.0062276545
0.0060879613
0.0059463989
0.0058029285
0.0056575361
0.0055101649
0.0053608068
0.0052094039
0.0050559604
0.0049004151
0.004742776
0.0045829906
0.004421087
0.0042570264
0.0040908583
0.0039225689
0.0037522333
0.0035798991
0.003405644
0.0032296351
0.0030519898
0.0028730388
0.0026929726
0.0025124893
0.0023317163
0.0021525605
0.0019738574
0.0018027449
0.0016295528
0.0014853927
0.0013170491
0.0012592675
0.0010533136
0.0018675504
-0.0018095326
0.033729355
0.032160936
0.030150234
0.02780292
0.025377372
0.023113333
0.021097617
0.019334944
0.017806091
0.016492442
0.015374563
0.014428666
0.013635435
0.012976971
0.012436056
0.011994809
0.011636384
0.011350027
0.011122052
0.010939055
0.010790765
0.010668733
0.010566228
0.010476447
0.010395283
0.01032064
0.010249108
0.010178632
0.010109109
0.010039029
0.0099672471
0.0098942748
0.0098200351
0.0097436573
0.0096654007
0.0095855821
0.0095032658
0.0094187103
0.0093324681
0.0092436698
0.0091528169
0.0090604857
0.0089658508
0.0088695432
0.0087720614
0.0086725951
0.0085704362
0.0084658174
0.0083584151
0.0082477877
0.0081350345
0.0080203667
0.0079041492
0.007786495
0.0076669754
0.0075459279
0.0074231126
0.007298615
0.0071724084
0.0070444667
0.0069149022
0.0067835368
0.0066505325
0.0065157448
0.0063792212
0.006240895
0.0061007417
0.0059587232
0.0058148025
0.0056689673
0.0055211617
0.0053713795
0.0052195628
0.005065717
0.0049097806
0.0047517629
0.0045916108
0.0044293529
0.0042649502
0.0040984524
0.0039298449
0.0037592035
0.0035865749
0.0034120366
0.0032357557
0.0030578489
0.0028786468
0.0026983396
0.0025176241
0.0023366291
0.0021572564
0.0019783499
0.0018070265
0.0016336536
0.0014892606
0.0013207458
0.0012627139
0.0010565579
0.0018708228
-0.0018053457
0.03277957
0.031357868
0.029564179
0.027457812
0.025240221
0.023126406
0.02120917
0.019506801
0.018013306
0.01671775
0.015605614
0.014657624
0.013856672
0.013186564
0.012631335
0.012174546
0.011800468
0.011498031
0.01125438
0.011056764
0.010895084
0.010760963
0.010647602
0.010548426
0.010459122
0.010377251
0.010299532
0.01022379
0.010149578
0.010075452
0.01000025
0.009924241
0.0098472916
0.0097685874
0.0096882556
0.0096065408
0.0095226282
0.0094366474
0.0093490645
0.0092591858
0.0091672973
0.0090737443
0.0089779482
0.008880561
0.0087815968
0.0086806123
0.0085784384
0.0084748565
0.0083691082
0.0082609496
0.0081503456
0.0080368077
0.0079207862
0.0078028702
0.0076830332
0.0075618009
0.0074388611
0.0073142429
0.0071878761
0.0070597241
0.0069299028
0.0067982321
0.0066648946
0.0065297461
0.006392845
0.0062541271
0.006113574
0.0059711505
0.0058268225
0.0056805803
0.00553237
0.0053821877
0.0052299765
0.0050757434
0.0049194275
0.0047610394
0.0046005263
0.0044379176
0.0042731741
0.0041063461
0.0039374189
0.0037664686
0.0035935415
0.003418715
0.0032421562
0.0030639815
0.0028845212
0.0027039653
0.0025230095
0.002341784
0.0021621848
0.0019830659
0.0018115186
0.0016379556
0.0014933077
0.0013246095
0.00126629
0.0010599059
0.0018740487
-0.0018006281
0.031895827
0.030603947
0.028997124
0.027102843
0.025076799
0.023108438
0.021291763
0.019654752
0.018201807
0.016928989
0.01582656
0.014879543
0.014073286
0.013393414
0.01282537
0.012354133
0.011965115
0.011647213
0.011388318
0.011176341
0.011001404
0.010855237
0.010731016
0.010622357
0.010524793
0.010435592
0.010351554
0.010270398
0.010191382
0.010113096
0.010034354
0.0099552004
0.00987544
0.009794308
0.0097118151
0.0096281286
0.0095425251
0.0094550488
0.0093660856
0.0092750315
0.0091820769
0.0090875414
0.0089909498
0.0088927004
0.0087927462
0.0086908509
0.0085877549
0.0084827778
0.0083760166
0.0082683029
0.0081589802
0.0080473132
0.0079334753
0.007817137
0.0076979014
0.0075766078
0.0074534259
0.0073286452
0.0072021942
0.0070739754
0.0069440637
0.0068122481
0.0066787226
0.0065433386
0.0064061682
0.0062671518
0.0061262794
0.0059835205
0.0058388449
0.005692247
0.0055436755
0.0053931297
0.0052405545
0.0050859593
0.0049292845
0.0047705426
0.0046096814
0.0044467317
0.0042816545
0.0041145013
0.0039452571
0.0037739989
0.0036007728
0.0034256564
0.0032488169
0.0030703704
0.002890647
0.0027098369
0.0025286343
0.0023471715
0.0021673374
0.0019879978
0.0018162146
0.0016424529
0.0014975279
0.0013286343
0.0012699879
0.0010633472
0.001877187
-0.0017953122
0.031071466
0.02989471
0.028449503
0.026741904
0.024891346
0.023062375
0.021346654
0.019778641
0.018370656
0.017124849
0.016035983
0.015093091
0.014284097
0.013596529
0.013017337
0.012532913
0.012129829
0.011797186
0.011523575
0.011297574
0.011109577
0.010951454
0.010816405
0.010698209
0.010592292
0.010495672
0.010405196
0.010318494
0.010234568
0.010152011
0.01006961
0.0099872126
0.0099045545
0.009820906
0.009736172
0.0096504413
0.0095630668
0.0094740181
0.0093836049
0.0092913015
0.0091972323
0.0091016754
0.0090041976
0.0089051129
0.0088044321
0.0087019244
0.0085980516
0.0084922698
0.0083847906
0.0082761159
0.0081655957
0.0080537169
0.0079406034
0.0078255826
0.0077084102
0.0075889117
0.0074666607
0.0073420587
0.0072154616
0.0070871014
0.006957131
0.0068252811
0.0066917142
0.0065562435
0.0064189406
0.0062797453
0.0061386573
0.0059956526
0.0058507074
0.0057038214
0.0055549471
0.0054040883
0.0052511922
0.0050962716
0.0049392686
0.0047801987
0.0046190106
0.0044557373
0.0042903402
0.0041228725
0.0039533194
0.0037817592
0.0036082379
0.0034328335
0.0032557137
0.0030769945
0.002897006
0.0027159383
0.0025344846
0.0023527792
0.0021727034
0.0019931365
0.001821106
0.0016471379
0.0015019134
0.0013328128
0.0012737983
0.0010668695
0.0018801912
-0.0017893221
0.030300635
0.02922618
0.027921394
0.026378265
0.024687816
0.022991308
0.02137557
0.019878921
0.018519475
0.01730448
0.016232798
0.01529715
0.014488048
0.013794963
0.013206413
0.012710202
0.012294071
0.011947516
0.011659811
0.011420204
0.011219409
0.011049478
0.010903674
0.010775923
0.010661587
0.010557477
0.01046046
0.010368096
0.010279159
0.010192226
0.010106054
0.010020317
0.009934678
0.0098484268
0.0097613759
0.0096735373
0.009584324
0.0094936402
0.0094017205
0.0093081052
0.0092128569
0.0091162099
0.0090177853
0.0089178388
0.008816385
0.0087131827
0.00860863
0.0085023136
0.0083943123
0.0082849568
0.0081737796
0.0080612842
0.0079471198
0.0078313065
0.007714478
0.0075960511
0.0074754427
0.0073526366
0.0072272108
0.0070992607
0.0069692588
0.0068372897
0.0067036791
0.0065682053
0.0064308967
0.0062916582
0.0061504817
0.0060073444
0.005862228
0.0057151395
0.005566037
0.0054149304
0.0052617699
0.005106573
0.0049492841
0.0047899221
0.0046284377
0.0044648664
0.0042991709
0.0041314063
0.0039615585
0.0037897076
0.0036158997
0.0034402138
0.003262818
0.0030838286
0.0029035759
0.0027222503
0.0025405434
0.0023585925
0.0021782697
0.0019984703
0.0018261823
0.0016520012
0.0015064546
0.0013371359
0.0012777104
0.0010704587
0.0018830088
-0.0017825725
0.02957818
0.028594807
0.027412596
0.026014586
0.024469767
0.022898269
0.021380463
0.019956435
0.018648303
0.017467405
0.016416227
0.015490823
0.014684231
0.013987858
0.01339182
0.012885325
0.012457285
0.012097743
0.011796655
0.01154394
0.011330679
0.011149143
0.010992697
0.010855414
0.010732623
0.010620971
0.010517331
0.010419202
0.01032516
0.010233754
0.010143707
0.010054539
0.009965837
0.0098768999
0.0097874583
0.0096974503
0.0096063337
0.0095139566
0.009420482
0.0093255022
0.0092290254
0.0091312421
0.0090318208
0.0089309553
0.0088286615
0.0087247178
0.008619474
0.008512561
0.0084039988
0.0082941217
0.0081825297
0.0080695021
0.0079547648
0.0078384445
0.007720856
0.0076015223
0.0074808336
0.0073587584
0.007234605
0.0071083821
0.0069797157
0.0068483357
0.0067147891
0.0065792369
0.0064418989
0.006302677
0.0061615202
0.0060183726
0.0058732029
0.005726018
0.0055767803
0.005425507
0.0052721532
0.0051167421
0.0049592216
0.0047996149
0.004637875
0.0044740409
0.0043080767
0.0041400405
0.003969919
0.0037977949
0.0036237148
0.0034477587
0.0032700958
0.0030908427
0.0029103302
0.0027287493
0.00254679
0.0023645929
0.0021840203
0.0020039849
0.0018314305
0.0016570313
0.0015111401
0.0013415929
0.0012817111
0.0010740977
0.001885579
-0.0017749682
0.028899545
0.027997426
0.026922698
0.025652991
0.024240333
0.022786119
0.021363362
0.020012266
0.018757468
0.017613432
0.016585739
0.015673412
0.014871881
0.014174455
0.013572842
0.013057636
0.01261892
0.012247398
0.011933717
0.011668466
0.011443138
0.011250257
0.011083327
0.010936573
0.010805324
0.010686101
0.010575774
0.010471792
0.010372564
0.010276595
0.010182576
0.010089891
0.0099980472
0.0099063448
0.0098144411
0.009722203
0.0096291202
0.0095349928
0.0094399161
0.0093435221
0.0092457728
0.0091468156
0.0090463563
0.0089445324
0.0088413589
0.0087366325
0.0086306431
0.0085230715
0.008413921
0.0083035016
0.0081914269
0.0080779152
0.0079628048
0.0078461086
0.0077280166
0.0076082012
0.0074869881
0.0073640736
0.0072395914
0.0071137714
0.0069860583
0.0068562823
0.0067241257
0.0065892868
0.0064521095
0.0063128501
0.0061716762
0.0060285592
0.0058834279
0.0057362571
0.005586993
0.0054356521
0.0052821922
0.0051266436
0.0049689584
0.0048091662
0.0046472225
0.0044831708
0.0043169771
0.0041487031
0.0039783368
0.003805964
0.0036316321
0.0034554228
0.0032775067
0.0030980011
0.0029172374
0.0027354074
0.0025531998
0.0023707587
0.0021899355
0.0020096629
0.0018368349
0.0016622138
0.0015159557
0.0013461706
0.0012857855
0.0010777667
0.0018878335
-0.0017664029
0.028260691
0.027431212
0.026451145
0.025295139
0.024002233
0.022657515
0.02132629
0.020047639
0.018847502
0.017742578
0.016741002
0.015844381
0.015050364
0.014354089
0.013748824
0.013226529
0.012778443
0.012396016
0.0120706
0.011793456
0.011556522
0.01135261
0.011175401
0.011019278
0.0108796
0.0107528
0.010635742
0.010525838
0.010421351
0.010320739
0.01022266
0.010126376
0.010031316
0.0099367724
0.0098423375
0.0097478099
0.0096527005
0.009556767
0.0094600411
0.0093621847
0.0092631199
0.0091629517
0.0090614158
0.0089586008
0.0088545173
0.0087489751
0.0086422078
0.0085339431
0.0084241659
0.0083131448
0.0082005391
0.00808654
0.007971006
0.0078539025
0.0077354338
0.0076153088
0.0074936881
0.0073703451
0.0072454941
0.007118943
0.0069906711
0.0068611111
0.0067297709
0.0065963025
0.0064604876
0.0063220202
0.0061810865
0.0060379714
0.0058928369
0.0057457072
0.0055964953
0.0054451865
0.0052917209
0.0051361268
0.0049783587
0.0048184527
0.0046563684
0.0044921548
0.0043257806
0.0041573118
0.0039867379
0.0038141486
0.0036395926
0.0034631535
0.0032850039
0.0031052619
0.0029242602
0.0027421915
0.0025597432
0.0023770637
0.0021959922
0.0020154837
0.0018423765
0.0016675317
0.0015208848
0.0013508533
0.0012899156
0.0010814427
0.0018897064
-0.0017567571
0.027658028
0.026893638
0.025997291
0.024942302
0.023757803
0.022514889
0.021271217
0.020063855
0.018919076
0.017855021
0.016881836
0.016003328
0.015219152
0.014526176
0.013919175
0.013391437
0.012935341
0.012543141
0.012206907
0.011918574
0.011670553
0.011455978
0.01126874
0.01110339
0.010955347
0.010820989
0.010697178
0.010581298
0.010471492
0.010366168
0.010263949
0.010163989
0.010065642
0.0099681862
0.0098711539
0.0097742792
0.0096770848
0.0095792911
0.0094808697
0.009381504
0.0092810812
0.0091796652
0.0090770153
0.0089731775
0.0088681541
0.0087617661
0.0086541972
0.0085452137
0.0084347812
0.0083231301
0.0082099633
0.0080954353
0.0079794205
0.0078618832
0.0077430195
0.0076225348
0.0075005566
0.0073769426
0.007251757
0.0071248296
0.0069962426
0.0068661073
0.0067341669
0.0066007205
0.0064655684
0.0063282788
0.0061886567
0.0060463761
0.0059015389
0.0057544438
0.0056052419
0.0054539832
0.0053005799
0.0051450309
0.0049872722
0.0048273379
0.004665189
0.0045008806
0.0043343852
0.0041657739
0.0039950387
0.0038222734
0.0036475284
0.00347089
0.0032925329
0.0031125766
0.0029313553
0.002749063
0.0025663858
0.002383477
0.0022021626
0.0020214223
0.0018480327
0.0016729646
0.0015259075
0.0013556224
0.001294081
0.001085098
0.0018911416
-0.0017458961
0.027088362
0.026382441
0.025560431