/*--------------------------------*- C++ -*----------------------------------*\
| =========                 |                                                 |
| \\      /  F ield         | OpenFOAM: The Open Source CFD Toolbox           |
|  \\    /   O peration     | Version:  2206                                  |
|   \\  /    A nd           | Website:  www.openfoam.com                      |
|    \\/     M anipulation  |                                                 |
\*---------------------------------------------------------------------------*/
FoamFile
{
    version     2.0;
    format      ascii;
    arch        "LSB;label=32;scalar=64";
    class       surfaceScalarField;
    location    "1800";
    object      phi;
}
// * * * * * * * * * * * * * * * * * * * * * * * * * * * * * * * * * * * * * //

dimensions      [0 3 -1 0 0 0 0];

oriented        oriented;

internalField   nonuniform List<scalar> 
14782
(
0.00064615265
7.5276103e-05
-0.00072142876
0.00055262265
9.3530001e-05
0.00046313341
8.9489242e-05
0.00039127479
7.185862e-05
0.00034008218
5.119261e-05
0.0003040222
3.6059979e-05
0.00027728631
2.673589e-05
0.00025616394
2.1122371e-05
0.00023867379
1.7490152e-05
0.00022393287
1.4740914e-05
0.00021146455
1.2468321e-05
0.00020088985
1.0574703e-05
0.00019190937
8.9804787e-06
0.00018426932
7.6400552e-06
0.0001777447
6.5246103e-06
0.00017215458
5.5901252e-06
0.00016735043
4.8041521e-06
0.00016320761
4.1428145e-06
0.00015961748
3.5901337e-06
0.00015646861
3.1488666e-06
0.00015368701
2.7816046e-06
0.00015119576
2.4912512e-06
0.00014893717
2.2585838e-06
0.00014687223
2.0649419e-06
0.00014496883
1.9034031e-06
0.00014320159
1.7672431e-06
0.00014155109
1.6504969e-06
0.00013999986
1.5512258e-06
0.00013853112
1.4687419e-06
0.00013713328
1.3978453e-06
0.00013579953
1.3337477e-06
0.00013452363
1.2758989e-06
0.0001332995
1.2241278e-06
0.00013212211
1.1773933e-06
0.00013098685
1.1352573e-06
0.00012988847
1.0983808e-06
0.00012882275
1.0657166e-06
0.00012778715
1.0356015e-06
0.00012677854
1.0086087e-06
0.0001257945
9.8404631e-07
0.00012483304
9.614543e-07
0.0001238921
9.4094493e-07
0.00012297052
9.2157288e-07
0.00012206716
9.0336728e-07
0.00012118073
8.8642954e-07
0.00012031041
8.7031731e-07
0.00011945485
8.5556303e-07
0.00011861304
8.4180915e-07
0.00011778439
8.2865176e-07
0.00011696797
8.1641848e-07
0.00011616339
8.0457594e-07
0.00011537014
7.9325165e-07
0.00011458775
7.8239228e-07
0.00011381594
7.7180759e-07
0.00011305414
7.6180169e-07
0.00011230211
7.5202653e-07
0.00011155944
7.426752e-07
0.00011082569
7.3375023e-07
0.0001101005
7.2518594e-07
0.00010938364
7.1685779e-07
0.00010867507
7.0857274e-07
0.00010797452
7.0054568e-07
0.00010728186
6.9266744e-07
0.00010659685
6.8500314e-07
0.00010591938
6.7747115e-07
0.00010524924
6.7014297e-07
0.00010458621
6.6303131e-07
0.00010393013
6.5607668e-07
0.00010328089
6.492435e-07
0.00010263836
6.425241e-07
0.00010200241
6.3595106e-07
0.00010137292
6.2949237e-07
0.00010074978
6.2314074e-07
0.0001001329
6.1687916e-07
9.9522139e-05
6.1076219e-07
9.8917377e-05
6.0476141e-07
9.8318487e-05
5.9889029e-07
9.772537e-05
5.9311697e-07
9.71379e-05
5.8747025e-07
9.6555975e-05
5.8192471e-07
9.5979462e-05
5.765127e-07
9.5408248e-05
5.7121399e-07
9.48422e-05
5.6604785e-07
9.4281165e-05
5.6103546e-07
9.3724994e-05
5.5617146e-07
9.3173483e-05
5.5151091e-07
9.2626435e-05
5.4704739e-07
9.2083555e-05
5.4287997e-07
9.1544551e-05
5.3900405e-07
9.1008921e-05
5.3563026e-07
9.0476211e-05
5.327094e-07
8.9945299e-05
5.3091273e-07
8.9415677e-05
5.2962195e-07
8.8883831e-05
5.3184597e-07
8.8351019e-05
5.3281159e-07
8.7801335e-05
5.4968408e-07
8.725067e-05
5.5066542e-07
8.6601771e-05
6.488992e-07
8.6345153e-05
2.5661774e-07
1.2058864e-06
0.00078827041
8.1482682e-05
-0.00079447699
0.00076959743
0.00011220299
0.00073472388
0.00012436279
0.00068747295
0.00011910955
0.00063541296
0.00010325259
0.00058582222
8.565072e-05
0.00054216651
7.0391599e-05
0.00050505481
5.8234071e-05
0.00047377581
4.8769151e-05
0.00044737521
4.1141519e-05
0.00042496364
3.4879893e-05
0.00040580641
2.9731929e-05
0.00038935567
2.5431216e-05
0.00037518406
2.1811668e-05
0.00036294201
1.8766661e-05
0.00035234163
1.6190508e-05
0.00034312695
1.4018828e-05
0.00033507538
1.2194389e-05
0.00032799516
1.0670348e-05
0.00032172379
9.4202436e-06
0.00031612706
8.3783333e-06
0.00031108591
7.5324028e-06
0.00030650667
6.83782e-06
0.00030231621
6.2554053e-06
0.00029845444
5.7651668e-06
0.0002948731
5.3485854e-06
0.00029153368
4.9899193e-06
0.00028840216
4.6827424e-06
0.00028544904
4.4218608e-06
0.00028265181
4.1950771e-06
0.00027999413
3.9914321e-06
0.00027746152
3.8085054e-06
0.00027504095
3.644696e-06
0.00027272122
3.4971282e-06
0.00027049267
3.363804e-06
0.0002683449
3.2461502e-06
0.00026626922
3.1413941e-06
0.00026425984
3.0449868e-06
0.00026231014
2.9583102e-06
0.00026041479
2.8793965e-06
0.00025856941
2.8068363e-06
0.0002567698
2.7405533e-06
0.00025501288
2.6784937e-06
0.0002532958
2.62044e-06
0.00025161584
2.5663973e-06
0.0002499707
2.515452e-06
0.00024835772
2.4685424e-06
0.00024677471
2.4248235e-06
0.00024522
2.3833613e-06
0.00024369177
2.3446462e-06
0.00024218878
2.307561e-06
0.00024070978
2.2722545e-06
0.00023925364
2.2385354e-06
0.00023781946
2.2059893e-06
0.00023640611
2.1751493e-06
0.00023501283
2.1453039e-06
0.00023363869
2.116814e-06
0.00023228276
2.0896828e-06
0.00023094423
2.0637202e-06
0.00022962251
2.0385703e-06
0.00022831728
2.0138051e-06
0.00022702798
1.9898507e-06
0.00022575414
1.966503e-06
0.0002244953
1.943846e-06
0.00022325107
1.921704e-06
0.00022202098
1.9002273e-06
0.00022080457
1.8794407e-06
0.00021960146
1.8591855e-06
0.00021841134
1.839362e-06
0.00021723392
1.8199497e-06
0.00021606886
1.8010078e-06
0.00021491589
1.7824623e-06
0.00021377476
1.764276e-06
0.00021264522
1.7464183e-06
0.00021152697
1.7290051e-06
0.00021041976
1.7119763e-06
0.0002093233
1.6953465e-06
0.00020823737
1.6790488e-06
0.00020716171
1.6631357e-06
0.00020609607
1.6475568e-06
0.00020504021
1.6323778e-06
0.00020399386
1.6175581e-06
0.00020295677
1.6031411e-06
0.00020192863
1.5891777e-06
0.00020090913
1.5756725e-06
0.00019989789
1.5627451e-06
0.00019889451
1.5504267e-06
0.00019789848
1.5389147e-06
0.00019690914
1.5283401e-06
0.00019592576
1.5190109e-06
0.00019494708
1.5113909e-06
0.00019397194
1.5060534e-06
0.00019299741
1.5041535e-06
0.00019202138
1.5078775e-06
0.00019103704
1.5171499e-06
0.00019003407
1.5526569e-06
0.00018900217
1.5825577e-06
0.00018789321
1.7578679e-06
0.00018700502
1.1448018e-06
2.7628176e-06
0.0008300468
7.8112002e-05
-0.00082667612
0.00083430301
0.00010794678
0.00083531449
0.0001233513
0.00082846143
0.00012596261
0.00081025302
0.000121461
0.00078266749
0.00011323626
0.00075001081
0.00010304828
0.00071584299
9.2401887e-05
0.00068235506
8.2257081e-05
0.00065087618
7.2620399e-05
0.00062205824
6.3697831e-05
0.00059610732
5.5682858e-05
0.00057297863
4.8559901e-05
0.00055246752
4.2322781e-05
0.00053430019
3.6933992e-05
0.0005182001
3.229059e-05
0.00050390088
2.8318055e-05
0.00049116428
2.4930984e-05
0.00047977938
2.2055252e-05
0.00046956464
1.9634982e-05
0.00046035634
1.7586636e-05
0.00045201253
1.5876213e-05
0.0004444123
1.4438044e-05
0.00043745321
1.3214494e-05
0.00043104726
1.217112e-05
0.00042511809
1.1277754e-05
0.00041960348
1.0504529e-05
0.00041445308
9.8331481e-06
0.00040962327
9.2516616e-06
0.00040507742
8.7409333e-06
0.0004007845
8.2843555e-06
0.00039671756
7.8754413e-06
0.00039285317
7.5090897e-06
0.00038917151
7.1787856e-06
0.00038565542
6.8798879e-06
0.00038228745
6.6141259e-06
0.00037905314
6.3757005e-06
0.0003759413
6.1568318e-06
0.00037294039
5.959216e-06
0.00037004112
5.7786709e-06
0.00036723538
5.6125721e-06
0.00036451562
5.4603184e-06
0.00036187553
5.3185786e-06
0.00035930944
5.1865286e-06
0.00035681206
5.0637801e-06
0.00035437878
4.948729e-06
0.00035200498
4.842341e-06
0.00034968664
4.743172e-06
0.00034742035
4.6496467e-06
0.0003452028
4.5621934e-06
0.00034303128
4.4790817e-06
0.0003409032
4.4003334e-06
0.00033881624
4.3254996e-06
0.00033676839
4.253841e-06
0.00033475758
4.1859536e-06
0.00033278212
4.120768e-06
0.00033084021
4.0587209e-06
0.00032893017
3.9997215e-06
0.00032705051
3.9433797e-06
0.00032520001
3.8890763e-06
0.00032337767
3.8361469e-06
0.00032158236
3.7851529e-06
0.0003198131
3.7357687e-06
0.00031806891
3.6880364e-06
0.00031634894
3.6416715e-06
0.0003146523
3.596867e-06
0.00031297812
3.553624e-06
0.00031132564
3.5116597e-06
0.00030969421
3.470795e-06
0.00030808319
3.4309744e-06
0.00030649194
3.3922529e-06
0.0003049199
3.3544998e-06
0.00030336654
3.3176343e-06
0.00030183136
3.2816072e-06
0.00030031379
3.2465731e-06
0.00029881333
3.2124317e-06
0.00029732949
3.1791845e-06
0.00029586182
3.1467261e-06
0.00029440983
3.1151183e-06
0.00029297311
3.0842837e-06
0.00029155117
3.0543119e-06
0.00029014359
3.0251409e-06
0.0002887499
2.9968348e-06
0.0002873696
2.9694747e-06
0.00028600219
2.9430868e-06
0.00028464708
2.9178526e-06
0.00028330363
2.893879e-06
0.0002819711
2.8714449e-06
0.00028064849
2.8509448e-06
0.00027933486
2.8326459e-06
0.00027802819
2.8180539e-06
0.00027672742
2.8068264e-06
0.00027542736
2.8042094e-06
0.00027412767
2.8075674e-06
0.00027281385
2.8309744e-06
0.00027148302
2.8834847e-06
0.00027009818
2.9674034e-06
0.00026866727
3.1887748e-06
0.00026724252
2.5695556e-06
4.4385748e-06
0.0008604925
7.4536588e-05
-0.00085691709
0.00086663557
0.00010180372
0.00087265958
0.00011732729
0.00087690627
0.00012171592
0.00087834203
0.00012002524
0.00087552001
0.00011605828
0.00086720034
0.00011136795
0.00085309371
0.00010650851
0.00083407312
0.00010127768
0.00081182149
9.4872022e-05
0.00078772391
8.7795415e-05
0.00076288638
8.052039e-05
0.00073823107
7.3215212e-05
0.0007144474
6.6106448e-05
0.0006919973
5.9384089e-05
0.00067114143
5.3146463e-05
0.00065196552
4.7493965e-05
0.00063443805
4.2458455e-05
0.00061845599
3.803731e-05
0.00060388923
3.4201741e-05
0.00059059917
3.0876695e-05
0.00057845353
2.8021856e-05
0.00056732858
2.5562997e-05
0.00055710982
2.3433247e-05
0.0005476923
2.1588645e-05
0.00053897999
1.9990059e-05
0.00053089022
1.8594302e-05
0.0005233545
1.736887e-05
0.00051631223
1.6293933e-05
0.00050971
1.5343159e-05
0.00050350108
1.4493273e-05
0.00049764454
1.3731983e-05
0.00049210409
1.3049545e-05
0.00048684887
1.2433999e-05
0.00048185237
1.1876392e-05
0.00047709059
1.1375906e-05
0.00047254234
1.0923952e-05
0.0004681888
1.0510368e-05
0.00046401306
1.0134954e-05
0.00046000024
9.7914903e-06
0.00045613728
9.4755399e-06
0.00045241213
9.1854633e-06
0.00044881435
8.91636e-06
0.00044533448
8.6663967e-06
0.00044196381
8.4344569e-06
0.00043869477
8.2177643e-06
0.00043552022
8.0168877e-06
0.00043243369
7.8297086e-06
0.00042942956
7.6537718e-06
0.00042650253
7.489229e-06
0.00042364793
7.3336755e-06
0.00042086142
7.1868417e-06
0.00041813905
7.0478757e-06
0.00041547735
6.9155338e-06
0.00041287302
6.7902915e-06
0.00041032307
6.6707102e-06
0.00040782462
6.5571708e-06
0.00040537502
6.4493238e-06
0.00040297191
6.3464916e-06
0.00040061318
6.2478053e-06
0.00039829696
6.152367e-06
0.00039602135
6.060768e-06
0.00039378462
5.9724953e-06
0.00039158517
5.887487e-06
0.00038942152
5.8053206e-06
0.00038729221
5.7261747e-06
0.00038519587
5.6499669e-06
0.00038313126
5.5762674e-06
0.00038109725
5.5048064e-06
0.00037909276
5.4354607e-06
0.00037711678
5.368238e-06
0.00037516835
5.3029314e-06
0.00037324657
5.2394085e-06
0.00037135059
5.1775863e-06
0.00036947955
5.117622e-06
0.00036763262
5.0593576e-06
0.00036580904
5.0027678e-06
0.00036400806
4.9477004e-06
0.00036222897
4.8942101e-06
0.00036047107
4.8421842e-06
0.00035873366
4.7917237e-06
0.00035701606
4.7427395e-06
0.00035531759
4.6953086e-06
0.00035363752
4.6495378e-06
0.00035197513
4.6054786e-06
0.00035032961
4.5633699e-06
0.00034870008
4.5234156e-06
0.00034708556
4.4859647e-06
0.00034548475
4.4517537e-06
0.00034389646
4.4209292e-06
0.00034231816
4.3963623e-06
0.00034074867
4.3763163e-06
0.00033918134
4.3715366e-06
0.0003376167
4.3722043e-06
0.00033603544
4.4122371e-06
0.00033443892
4.4800052e-06
0.00033277294
4.6333843e-06
0.00033108013
4.8815872e-06
0.00032923764
4.412044e-06
6.2229094e-06
0.00089053501
7.1486034e-05
-0.00088748446
0.00089637448
9.5964251e-05
0.00090270826
0.00011099351
0.00090805524
0.00011636894
0.00091183004
0.00011625044
0.0009143768
0.00011351151
0.00091548819
0.00011025657
0.00091476728
0.00010722942
0.00091191625
0.00010412871
0.00090593592
0.00010085235
0.00089641371
9.7317623e-05
0.00088347659
9.345751e-05
0.00086775028
8.8941523e-05
0.00084994506
8.3911669e-05
0.00083070157
7.8627578e-05
0.00081065754
7.3190488e-05
0.00079042124
6.773027e-05
0.00077052051
6.2359186e-05
0.00075135858
5.7199242e-05
0.00073320148
5.2358842e-05
0.00071618016
4.7898008e-05
0.00070032036
4.3881655e-05
0.00068558498
4.0298375e-05
0.00067190744
3.7110794e-05
0.00065920999
3.4286098e-05
0.00064741153
3.1788513e-05
0.00063643228
2.9573554e-05
0.00062619636
2.7604793e-05
0.00061663185
2.5858436e-05
0.0006076737
2.4301309e-05
0.00059926394
2.2903035e-05
0.00059135002
2.1645909e-05
0.00058388417
2.0515391e-05
0.0005768246
1.9493573e-05
0.00057013417
1.8566819e-05
0.00056378069
1.7729384e-05
0.00055773542
1.6969221e-05
0.00055197142
1.6274372e-05
0.00054646508
1.5641295e-05
0.00054119542
1.5061151e-05
0.00053614357
1.4527383e-05
0.00053129205
1.4036991e-05
0.00052662543
1.358298e-05
0.00052212974
1.3162087e-05
0.00051779204
1.2772156e-05
0.00051360115
1.2408648e-05
0.00050954693
1.207111e-05
0.00050562016
1.1756481e-05
0.00050181265
1.1461285e-05
0.00049811654
1.1185338e-05
0.00049452478
1.0925427e-05
0.00049103089
1.0680738e-05
0.00048762891
1.0449851e-05
0.0004843136
1.0230843e-05
0.00048107998
1.0023919e-05
0.0004779235
9.8271854e-06
0.00047483993
9.6407465e-06
0.00047182546
9.4637885e-06
0.00046887667
9.2952839e-06
0.00046599031
9.1341673e-06
0.0004631634
8.9792711e-06
0.0004603931
8.8310757e-06
0.00045767679
8.6887977e-06
0.00045501207
8.5522105e-06
0.00045239669
8.420704e-06
0.0004498285
8.2943657e-06
0.00044730551
8.1729543e-06
0.0004448259
8.0558753e-06
0.00044238796
7.9427512e-06
0.00043999007
7.8333448e-06
0.00043763074
7.727567e-06
0.00043530856
7.6251131e-06
0.00043302217
7.5257944e-06
0.0004307703
7.429465e-06
0.00042855168
7.3362377e-06
0.00042636516
7.2458752e-06
0.00042420962
7.1583101e-06
0.00042208399
7.0733304e-06
0.00041998724
6.9909644e-06
0.00041791837
6.9110509e-06
0.00041587641
6.8336872e-06
0.0004138604
6.7587474e-06
0.0004118694
6.6863097e-06
0.00040990244
6.6164993e-06
0.00040795852
6.5493901e-06
0.00040603662
6.4852725e-06
0.00040413558
6.4244572e-06
0.00040225419
6.3673568e-06
0.00040039085
6.3150944e-06
0.00039854412
6.2676581e-06
0.00039671101
6.2294693e-06
0.00039489017
6.197155e-06
0.00039307396
6.1877516e-06
0.00039126313
6.1830306e-06
0.00038943547
6.2398931e-06
0.00038759423
6.3212452e-06
0.00038567456
6.5530552e-06
0.00038373944
6.8167153e-06
0.00038154121
6.6102661e-06
8.1419975e-06
0.00092133039
6.8802266e-05
-0.00091864662
0.00092655001
9.0744635e-05
0.00093237536
0.00010516816
0.00093750303
0.00011124127
0.00094160918
0.00011214428
0.00094461531
0.00011050538
0.00094675389
0.00010811799
0.00094823966
0.00010574365
0.00094920501
0.00010316336
0.00094951853
0.00010053883
0.00094886201
9.797415e-05
0.00094693959
9.5379926e-05
0.00094312974
9.2751371e-05
0.00093697252
9.0068893e-05
0.00092825647
8.7343623e-05
0.00091709079
8.4356166e-05
0.00090380982
8.1011246e-05
0.00088874582
7.742318e-05
0.0008722914
7.3653663e-05
0.00085492779
6.9722458e-05
0.00083717064
6.5655155e-05
0.00081949087
6.1561423e-05
0.00080226717
5.7522077e-05
0.00078575375
5.3624216e-05
0.00077008397
4.9955871e-05
0.00075530052
4.6571971e-05
0.00074139427
4.3479804e-05
0.00072833042
4.0668636e-05
0.00071606107
3.8127792e-05
0.00070453394
3.5828436e-05
0.00069369514
3.3741838e-05
0.00068349043
3.1850617e-05
0.00067386788
3.0137946e-05
0.00066477979
2.8581661e-05
0.00065618136
2.7165246e-05
0.00064803182
2.587892e-05
0.00064029504
2.4706002e-05
0.00063293715
2.3632262e-05
0.00062592728
2.2651169e-05
0.00061923814
2.1750287e-05
0.00061284488
2.0920641e-05
0.00060672434
2.0157539e-05
0.00060085582
1.9451499e-05
0.00059522046
1.8797447e-05
0.00058980084
1.8191776e-05
0.00058458155
1.762794e-05
0.00057954857
1.710409e-05
0.00057468933
1.6615721e-05
0.00056999251
1.6158102e-05
0.00056544735
1.57305e-05
0.00056104414
1.5328639e-05
0.00055677393
1.4950948e-05
0.00055262846
1.459532e-05
0.00054860031
1.4258993e-05
0.00054468239
1.3941839e-05
0.0005408683
1.3641276e-05
0.00053715227
1.3356776e-05
0.00053352911
1.308695e-05
0.00052999399
1.2830403e-05
0.00052654231
1.2585844e-05
0.00052316986
1.2351725e-05
0.00051987265
1.2128287e-05
0.00051664706
1.1914382e-05
0.00051348969
1.170958e-05
0.00051039735
1.1513043e-05
0.00050736708
1.1324641e-05
0.00050439615
1.1143884e-05
0.00050148201
1.097001e-05
0.00049862227
1.0802496e-05
0.00049581468
1.0640928e-05
0.00049305718
1.0485067e-05
0.0004903478
1.0334494e-05
0.00048768464
1.0188958e-05
0.00048506591
1.0048199e-05
0.00048248991
9.9122311e-06
0.00047995507
9.7807165e-06
0.00047745985
9.6535277e-06
0.00047500281
9.5303727e-06
0.00047258254
9.4112321e-06
0.00047019772
9.2958779e-06
0.00046784702
9.1843859e-06
0.00046552919
9.0765792e-06
0.00046324297
8.9725236e-06
0.00046098712
8.8723506e-06
0.00045876036
8.7761501e-06
0.00045656138
8.6842558e-06
0.00045438875
8.5970868e-06
0.00045224099
8.5151149e-06
0.00045011621
8.439874e-06
0.00044801269
8.3711772e-06
0.00044592706
8.315104e-06
0.00044385768
8.2665291e-06
0.0004417962
8.2492351e-06
0.00043974327
8.2359604e-06
0.0004376748
8.3083652e-06
0.0004355947
8.401339e-06
0.00043343103
8.7167292e-06
0.00043126002
8.9877261e-06
0.00042873446
9.1358272e-06
1.0214286e-05
0.00095308095
6.6411355e-05
-0.00095069004
0.00095774557
8.608001e-05
0.00096308381
9.9829919e-05
0.00096785943
0.00010646565
0.00097172884
0.00010827488
0.00097470848
0.00010752574
0.00097702639
0.00010580008
0.00097891477
0.00010385527
0.0009803811
0.00010169703
0.00098146496
9.9454974e-05
0.00098221627
9.7222834e-05
0.00098265371
9.494249e-05
0.00098271372
9.2691364e-05
0.00098220633
9.0576282e-05
0.00098098279
8.8567156e-05
0.00097866428
8.6674678e-05
0.00097476664
8.4908888e-05
0.00096900262
8.3187196e-05
0.00096117516
8.1481131e-05
0.00095128506
7.9612551e-05
0.00093947923
7.7460985e-05
0.00092596326
7.5077397e-05
0.00091106373
7.2421603e-05
0.00089522361
6.9464343e-05
0.00087893092
6.6248556e-05
0.00086263173
6.2871164e-05
0.00084667436
5.943717e-05
0.00083128293
5.6060062e-05
0.00081656977
5.2840957e-05
0.0008025751
4.9823108e-05
0.00078930012
4.7016821e-05
0.00077672585
4.4424885e-05
0.00076482231
4.2041479e-05
0.00075355359
3.9850382e-05
0.00074287961
3.783923e-05
0.00073275947
3.5999061e-05
0.00072315476
3.4310708e-05
0.00071402843
3.2758597e-05
0.00070534492
3.1334669e-05
0.00069707184
3.002337e-05
0.00068917922
2.8813258e-05
0.00068163898
2.769778e-05
0.00067442557
2.6664913e-05
0.00066751538
2.5707637e-05
0.0006608866
2.4820556e-05
0.00065451946
2.3995074e-05
0.00064839563
2.3227926e-05
0.00064249855
2.2512796e-05
0.00063681332
2.1843329e-05
0.00063132594
2.1217882e-05
0.00062602375
2.0630837e-05
0.000620895
2.007969e-05
0.00061592889
1.9561436e-05
0.00061111556
1.9072317e-05
0.00060644567
1.8611727e-05
0.00060191073
1.8176219e-05
0.00059750303
1.7764476e-05
0.00059321558
1.7374404e-05
0.00058904187
1.700411e-05
0.00058497581
1.6651907e-05
0.00058101178
1.6315753e-05
0.00057714452
1.5995543e-05
0.00057336923
1.5689677e-05
0.00056968129
1.5397517e-05
0.00056607641
1.5117919e-05
0.00056255071
1.485035e-05
0.00055910058
1.4594004e-05
0.00055572263
1.434796e-05
0.00055241364
1.4111488e-05
0.00054917063
1.3883938e-05
0.00054599083
1.3664873e-05
0.00054287161
1.3453708e-05
0.00053981048
1.3250093e-05
0.00053680506
1.3053619e-05
0.00053385314
1.2864152e-05
0.00053095262
1.268123e-05
0.00052810152
1.2504635e-05
0.00052529792
1.233397e-05
0.00052254001
1.2169143e-05
0.00051982605
1.2009836e-05
0.00051715435
1.1856082e-05
0.0005145233
1.1707637e-05
0.00051193129
1.1564535e-05
0.00050937674
1.14269e-05
0.00050685806
1.1294826e-05
0.00050437363
1.1168681e-05
0.00050192173
1.1048988e-05
0.00049950057
1.0936273e-05
0.00049710796
1.0832492e-05
0.00049474186
1.0737277e-05
0.00049239853
1.065843e-05
0.00049007604
1.0589023e-05
0.00048776542
1.0559852e-05
0.00048546706
1.0534324e-05
0.00048315553
1.0619893e-05
0.00048083483
1.072204e-05
0.00047842781
1.112375e-05
0.00047602064
1.1394894e-05
0.00047317886
1.1977612e-05
1.2453441e-05
0.00098596288
6.4288149e-05
-0.00098383968
0.00099013855
8.1904349e-05
0.00099505693
9.4911529e-05
0.0009995771
0.00010194548
0.0010032906
0.00010456137
0.0010061954
0.00010462092
0.0010084796
0.00010351591
0.0010103459
0.000101989
0.0010118692
0.00010017371
0.0010131172
9.8207001e-05
0.0010141414
9.6198551e-05
0.0010149338
9.4150093e-05
0.0010154903
9.2134956e-05
0.0010158718
9.0194733e-05
0.0010160354
8.8403507e-05
0.0010159405
8.6769658e-05
0.0010155648
8.5284554e-05
0.0010147381
8.4013941e-05
0.0010132691
8.2950129e-05
0.0010108295
8.2052115e-05
0.0010070375
8.1252946e-05
0.001001583
8.0531953e-05
0.00099425663
7.9747952e-05
0.0009850038
7.8717177e-05
0.00097388752
7.736483e-05
0.00096109455
7.5664134e-05
0.00094696945
7.356227e-05
0.00093197473
7.105479e-05
0.00091659015
6.8225531e-05
0.00090122978
6.518348e-05
0.00088618889
6.2057713e-05
0.00087164075
5.8973024e-05
0.00085766916
5.6013065e-05
0.00084430694
5.3212603e-05
0.0008315591
5.0587072e-05
0.00081941411
4.8144053e-05
0.00080785105
4.5873767e-05
0.00079684245
4.3767197e-05
0.00078635736
4.1819757e-05
0.00077636486
4.0015874e-05
0.00076683429
3.8343822e-05
0.00075773555
3.6796524e-05
0.00074904033
3.536013e-05
0.00074072175
3.4026215e-05
0.00073275447
3.2787844e-05
0.00072511509
3.1634454e-05
0.0007177815
3.0561509e-05
0.00071073344
2.9560865e-05
0.00070395236
2.8624401e-05
0.00069742089
2.7749355e-05
0.00069112315
2.6928574e-05
0.00068504441
2.6158434e-05
0.00067917109
2.5434755e-05
0.00067349078
2.4752626e-05
0.00066799177
2.411074e-05
0.0006626633
2.3504686e-05
0.00065749541
2.2932367e-05
0.00065247899
2.2390828e-05
0.00064760563
2.1877463e-05
0.00064286755
2.1389991e-05
0.00063825754
2.0925761e-05
0.00063376885
2.0484232e-05
0.00062939528
2.0063251e-05
0.00062513093
1.9661868e-05
0.00062097029
1.9278556e-05
0.00061690834
1.8912301e-05
0.00061294044
1.8561903e-05
0.0006090622
1.8226198e-05
0.0006052695
1.7904192e-05
0.00060155848
1.7594957e-05
0.00059792554
1.7297809e-05
0.00059436733
1.701192e-05
0.00059088064
1.6736786e-05
0.00058746244
1.6471812e-05
0.00058410992
1.6216679e-05
0.00058082038
1.5970764e-05
0.00057759129
1.5733727e-05
0.00057442023
1.5505032e-05
0.00057130489
1.5284483e-05
0.00056824307
1.5071649e-05
0.00056523266
1.4866493e-05
0.00056227162
1.4668681e-05
0.00055935796
1.4478197e-05
0.00055648972
1.4295139e-05
0.00055366495
1.411959e-05
0.0005508817
1.3951939e-05
0.00054813788
1.3792804e-05
0.00054543139
1.3642758e-05
0.0005427597
1.3504184e-05
0.00054012045
1.3376531e-05
0.00053750952
1.3269358e-05
0.00053492462
1.3173925e-05
0.00053235627
1.3128197e-05
0.00052980447
1.3086129e-05
0.00052724277
1.3181586e-05
0.00052467494
1.3289874e-05
0.00052201971
1.377898e-05
0.00051937169
1.4042916e-05
0.00051621506
1.513424e-05
1.4871473e-05
0.0010200511
6.2392298e-05
-0.0010181553
0.0010237817
7.8173805e-05
0.0010283076
9.0385594e-05
0.00103261
9.7643095e-05
0.0010362376
0.00010093376
0.0010391313
0.00010172722
0.0010414269
0.00010122037
0.0010432929
0.0001001229
0.0010448176
9.8649108e-05
0.0010460709
9.6953607e-05
0.0010471086
9.5160872e-05
0.0010479535
9.3305234e-05
0.0010486289
9.1459559e-05
0.0010491542
8.9669439e-05
0.0010495466
8.8011087e-05
0.0010498051
8.651115e-05
0.0010499409
8.5148807e-05
0.0010499613
8.3993535e-05
0.0010498482
8.306323e-05
0.0010495614
8.2338861e-05
0.0010489978
8.181657e-05
0.0010480332
8.1496514e-05
0.0010464536
8.1327572e-05
0.0010439167
8.1254103e-05
0.0010400647
8.1216836e-05
0.0010345689
8.1159895e-05
0.0010272238
8.0907346e-05
0.001017981
8.0297639e-05
0.0010069054
7.9301111e-05
0.00099424045
7.7848444e-05
0.00098039738
7.5900782e-05
0.00096586301
7.3507391e-05
0.00095109153
7.0784544e-05
0.00093643154
6.78726e-05
0.00092210451
6.4914093e-05
0.00090823002
6.2018552e-05
0.00089486687
5.9236917e-05
0.0008820399
5.6594158e-05
0.00086975329
5.4106375e-05
0.00085799849
5.1770674e-05
0.00084675822
4.9584088e-05
0.00083601015
4.7544597e-05
0.00082573028
4.5639994e-05
0.00081589344
4.3863057e-05
0.00080647424
4.2207045e-05
0.00079744822
4.0660469e-05
0.00078879141
3.9218324e-05
0.00078048112
3.7871157e-05
0.00077249611
3.6609407e-05
0.00076481612
3.5429351e-05
0.00075742241
3.4322279e-05
0.00075029742
3.3283422e-05
0.00074342487
3.2307313e-05
0.00073678973
3.1387762e-05
0.00073037783
3.052264e-05
0.00072417608
2.9706435e-05
0.00071817222
2.8936228e-05
0.00071235494
2.8208112e-05
0.00070671376
2.7518639e-05
0.00070123898
2.6864767e-05
0.00069592165
2.6243096e-05
0.00069075332
2.5652564e-05
0.00068572622
2.5090351e-05
0.00068083306
2.455503e-05
0.00067606702
2.4044596e-05
0.00067142174
2.3557572e-05
0.00066689137
2.3092277e-05
0.00066247041
2.2647159e-05
0.0006581537
2.2220899e-05
0.00065393642
2.1812237e-05
0.00064981404
2.1420191e-05
0.00064578233
2.104363e-05
0.0006418373
2.0681822e-05
0.00063797517
2.0333938e-05
0.00063419241
1.9999437e-05
0.00063048568
1.9677496e-05
0.0006268518
1.9367606e-05
0.00062328778
1.9069058e-05
0.00061979074
1.878152e-05
0.00061635797
1.8504414e-05
0.00061298686
1.8237607e-05
0.00060967489
1.7980648e-05
0.00060641964
1.7733448e-05
0.00060321872
1.7496056e-05
0.00060006979
1.7268528e-05
0.00059697047
1.7051254e-05
0.00059391834
1.6844938e-05
0.0005909109
1.665019e-05
0.00058794527
1.6469816e-05
0.00058501872
1.6303083e-05
0.00058212675
1.6161327e-05
0.00057926668
1.6033999e-05
0.00057642855
1.5966329e-05
0.00057361188
1.5902797e-05
0.0005707894
1.600406e-05
0.00056796447
1.6114807e-05
0.00056505231
1.6691142e-05
0.00056215541
1.6939811e-05
0.0005586791
1.8610558e-05
1.7480159e-05
0.0010553587
6.0673057e-05
-0.0010536395
0.0010586931
7.4839444e-05
0.0010628393
8.6239417e-05
0.0010669187
9.356371e-05
0.0010704682
9.7384194e-05
0.0010733722
9.882329e-05
0.0010757105
9.8882063e-05
0.0010776169
9.8216482e-05
0.0010791766
9.7089405e-05
0.0010804563
9.5673859e-05
0.0010815106
9.4106607e-05
0.0010823704
9.2445411e-05
0.0010830657
9.0764249e-05
0.001083618
8.9117193e-05
0.0010840543
8.7574749e-05
0.0010843927
8.6172781e-05
0.0010846377
8.4903789e-05
0.0010848046
8.3826586e-05
0.0010849073
8.2960534e-05
0.0010849416
8.2304572e-05
0.0010849081
8.18501e-05
0.0010848086
8.1596036e-05
0.0010846015
8.1534615e-05
0.0010842197
8.1635909e-05
0.0010835601
8.1876443e-05
0.0010824842
8.2235801e-05
0.0010807194
8.2672195e-05
0.0010778925
8.3124462e-05
0.0010736435
8.3550172e-05
0.0010676687
8.3823258e-05
0.0010598028
8.3766655e-05
0.0010500263
8.3283938e-05
0.0010385021
8.2308716e-05
0.0010255915
8.0783134e-05
0.0010117748
7.873083e-05
0.00099752806
7.6265298e-05
0.00098323357
7.3531414e-05
0.0009691443
7.0683423e-05
0.00095540488
6.7845794e-05
0.00094209355
6.5082012e-05
0.00092925033
6.24273e-05
0.00091689168
5.9903249e-05
0.00090501905
5.7512628e-05
0.00089362335
5.5258753e-05
0.00088268941
5.3140984e-05
0.00087219907
5.1150807e-05
0.00086213178
4.9285615e-05
0.00085246634
4.7536601e-05
0.00084318159
4.5894157e-05
0.00083425637
4.435457e-05
0.00082567054
4.2908113e-05
0.0008174047
4.154926e-05
0.00080944055
4.0271466e-05
0.00080176094
3.9067371e-05
0.00079434949
3.7934086e-05
0.00078719096
3.6864963e-05
0.00078027095
3.5856244e-05
0.000773576
3.4903054e-05
0.00076709359
3.400105e-05
0.00076081203
3.3146336e-05
0.00075472048
3.2334646e-05
0.00074880873
3.1564311e-05
0.00074306733
3.083175e-05
0.00073748743
3.0134929e-05
0.00073206077
2.9471254e-05
0.00072677961
2.8838739e-05
0.00072163672
2.8235168e-05
0.00071662538
2.7658499e-05
0.00071173928
2.7106997e-05
0.0007069725
2.657901e-05
0.0007023195
2.6073199e-05
0.00069777505
2.5588071e-05
0.00069333429
2.512259e-05
0.00068899259
2.4675638e-05
0.00068474561
2.4246414e-05
0.00068058927
2.383384e-05
0.00067651968
2.3437196e-05
0.00067253317
2.3055559e-05
0.00066862627
2.2688422e-05
0.00066479566
2.2335025e-05
0.00066103816
2.1995109e-05
0.00065735074
2.1668073e-05
0.00065373045
2.135373e-05
0.00065017446
2.1052055e-05
0.00064667993
2.0763052e-05
0.00064324409
2.0487098e-05
0.00063986406
2.0224965e-05
0.00063653697
1.9977285e-05
0.0006332595
1.9747284e-05
0.00063002854
1.9534042e-05
0.00062683918
1.9350681e-05
0.00062368832
1.9184866e-05
0.00062056552
1.908913e-05
0.00061746978
1.8998529e-05
0.00061437311
1.9100738e-05
0.00061127834
1.9209569e-05
0.00060809753
1.9871955e-05
0.00060494103
2.0096313e-05
0.00060113571
2.2415879e-05
2.0291707e-05
0.0010918817
5.9084854e-05
-0.0010902935
0.0010948773
7.1843825e-05
0.001098665
8.2451682e-05
0.0011025079
8.9720813e-05
0.0011059607
9.39314e-05
0.001108866
9.5918001e-05
0.001111251
9.6497085e-05
0.0011132126
9.6254828e-05
0.001114826
9.5476024e-05
0.0011161526
9.4347262e-05
0.0011172447
9.3014565e-05
0.0011181361
9.1553962e-05
0.0011188579
9.0042494e-05
0.0011194341
8.8541004e-05
0.0011198918
8.7116987e-05
0.0011202531
8.5811541e-05
0.001120528
8.4628897e-05
0.0011207348
8.3619715e-05
0.0011208891
8.2806308e-05
0.0011209996
8.2194063e-05
0.0011210697
8.1779983e-05
0.0011211084
8.1557286e-05
0.001121118
8.1525038e-05
0.0011210937
8.166019e-05
0.0011210233
8.1946854e-05
0.0011208795
8.2379592e-05
0.0011206159
8.2935785e-05
0.001120149
8.3591383e-05
0.0011193627
8.4336449e-05
0.0011180442
8.5141814e-05
0.0011158558
8.5955055e-05
0.0011124128
8.6726904e-05
0.0011073523
8.7369195e-05
0.0011004273
8.7708133e-05
0.0010915547
8.7603458e-05
0.0010808402
8.6979789e-05
0.0010686104
8.5761225e-05
0.001055339
8.3954788e-05
0.0010415139
8.1670887e-05
0.0010275339
7.9062081e-05
0.0010136667
7.6294431e-05
0.0010000707
7.3499308e-05
0.00098683612
7.0747193e-05
0.00097401339
6.8081484e-05
0.00096162773
6.5526643e-05
0.00094968794
6.3090595e-05
0.00093819117
6.0782388e-05
0.0009271279
5.8599866e-05
0.00091648445
5.6537614e-05
0.00090624407
5.4594946e-05