/*--------------------------------*- C++ -*----------------------------------*\
| =========                 |                                                 |
| \\      /  F ield         | OpenFOAM: The Open Source CFD Toolbox           |
|  \\    /   O peration     | Version:  2206                                  |
|   \\  /    A nd           | Website:  www.openfoam.com                      |
|    \\/     M anipulation  |                                                 |
\*---------------------------------------------------------------------------*/
FoamFile
{
    version     2.0;
    format      ascii;
    arch        "LSB;label=32;scalar=64";
    class       volVectorField;
    location    "1800";
    object      U;
}
// * * * * * * * * * * * * * * * * * * * * * * * * * * * * * * * * * * * * * //

dimensions      [0 1 -1 0 0 0 0];

internalField   nonuniform List<vector> 
7480
(
(0.86077695 0.01477155 5.8332912e-16)
(0.74496811 0.025621432 0)
(0.62910021 0.027249985 0)
(0.52586775 0.019477343 0)
(0.45028198 0.0094017112 0)
(0.3981166 0.0037521399 0)
(0.36042885 0.0017201544 0)
(0.33133402 0.0012088552 0)
(0.30764162 0.0010855455 0)
(0.28775351 0.00096798611 0)
(0.27092149 0.00081793925 0)
(0.25666293 0.0006715945 0)
(0.24456369 0.00054372015 0)
(0.23427824 0.00043822149 0)
(0.22551289 0.00035452871 0)
(0.21801122 0.00028724944 0)
(0.2115734 0.00023272553 0)
(0.2060347 0.00018701087 0)
(0.20123999 0.00018470331 -4.2558733e-18)
(0.19707891 0.00027693558 -1.6276356e-17)
(0.19340327 0.00013458966 0)
(0.19013152 9.0765983e-05 0)
(0.18718511 7.770159e-05 0)
(0.18450007 6.9102341e-05 0)
(0.18203426 6.1761122e-05 0)
(0.17975136 5.5526979e-05 0)
(0.17762614 5.0239139e-05 0)
(0.17563464 4.5924341e-05 0)
(0.1737554 4.2528034e-05 0)
(0.17197005 3.9625556e-05 0)
(0.17026818 3.6922582e-05 0)
(0.16864242 3.4475215e-05 0)
(0.16708465 3.2298346e-05 0)
(0.16558841 3.0332134e-05 0)
(0.16414688 2.8568996e-05 0)
(0.16275566 2.704227e-05 0)
(0.16140624 2.5671355e-05 0)
(0.16009631 2.4379167e-05 0)
(0.15882201 2.3221168e-05 0)
(0.15757958 2.2151153e-05 0)
(0.15636649 2.1153735e-05 0)
(0.15518015 2.0240491e-05 0)
(0.15401855 1.9361514e-05 0)
(0.15288042 1.852824e-05 0)
(0.15176411 1.7747983e-05 0)
(0.1506685 1.6997946e-05 0)
(0.14959213 1.6305257e-05 0)
(0.1485334 1.565029e-05 0)
(0.14749147 1.5017962e-05 0)
(0.14646531 1.4426217e-05 0)
(0.14545413 1.3850983e-05 0)
(0.14445741 1.3301068e-05 0)
(0.14347447 1.27747e-05 0)
(0.14250496 1.2264506e-05 0)
(0.14154825 1.1782982e-05 0)
(0.14060387 1.1315742e-05 0)
(0.13967146 1.0870751e-05 0)
(0.13875045 1.0446348e-05 0)
(0.1378403 1.0040216e-05 0)
(0.13694062 9.6497684e-06 0)
(0.13605133 9.2695991e-06 0)
(0.13517224 8.9063924e-06 0)
(0.13430306 8.5554718e-06 0)
(0.13344357 8.2192096e-06 0)
(0.13259355 7.8948685e-06 0)
(0.13175284 7.5840101e-06 0)
(0.13092111 7.2861917e-06 0)
(0.13009814 6.9998978e-06 0)
(0.12928377 6.7243702e-06 0)
(0.12847786 6.4591653e-06 0)
(0.12768024 6.2047164e-06 0)
(0.12689075 5.9599386e-06 0)
(0.12610923 5.7246499e-06 0)
(0.12533561 5.4981001e-06 0)
(0.1245697 5.2810076e-06 0)
(0.12381136 5.0723663e-06 0)
(0.12306041 4.8722896e-06 0)
(0.12231673 4.6798486e-06 0)
(0.12158018 4.4953591e-06 0)
(0.12085061 4.3180032e-06 0)
(0.12012788 4.1480573e-06 0)
(0.11941182 3.9848566e-06 0)
(0.11870231 3.8283838e-06 0)
(0.11799914 3.6785845e-06 0)
(0.11730215 3.5349032e-06 0)
(0.11661109 3.3978168e-06 0)
(0.11592576 3.2664089e-06 0)
(0.11524578 3.1419074e-06 0)
(0.11457094 3.0223126e-06 0)
(0.11390043 2.9116424e-06 0)
(0.11323441 2.8026314e-06 0)
(0.11257026 2.7122606e-06 0)
(0.11191069 2.6070688e-06 0)
(0.11124533 2.5632176e-06 0)
(0.11058951 2.4291798e-06 0)
(0.10990202 2.5352021e-06 0)
(0.1092425 2.2247922e-06 -4.1166466e-21)
(0.10847197 6.2372048e-06 7.2331569e-20)
(0.10787228 -1.7431572e-06 -3.2251773e-19)
(0.10669894 1.2413191e-05 -1.1189908e-18)
(0.95770043 0.024846421 0)
(0.94369983 0.032457151 0)
(0.91263452 0.032563018 0)
(0.8611347 0.028739997 0)
(0.79844103 0.022898 0)
(0.73555324 0.017265327 0)
(0.67875966 0.012881549 0)
(0.63007869 0.0098200723 0)
(0.58911469 0.0077449433 0)
(0.55463599 0.0062557715 0)
(0.52544519 0.0051170721 0)
(0.50056398 0.0042192007 0)
(0.47923271 0.0034901807 0)
(0.46087831 0.002891717 0)
(0.44503937 0.0024007764 0)
(0.43134261 0.0019963192 0)
(0.41946243 0.0016650725 0)
(0.40911025 0.0013952374 0)
(0.40003445 0.0011767676 0)
(0.39202444 0.00099871214 0)
(0.38490188 0.00085045824 0)
(0.37851483 0.00074467795 0)
(0.3727349 0.00065596514 0)
(0.36746256 0.00058153657 0)
(0.36262023 0.00051985166 0)
(0.35814046 0.00046811746 0)
(0.35397552 0.00042401348 0)
(0.35007962 0.00038655791 0)
(0.34641513 0.0003549377 0)
(0.34295007 0.00032757884 0)
(0.33966218 0.00030315394 0)
(0.33653365 0.0002813118 0)
(0.33354748 0.00026180513 0)
(0.33068966 0.00024428141 0)
(0.32794658 0.00022849435 0)
(0.3253088 0.00021448095 0)
(0.32276073 0.00020190871 0)
(0.32029681 0.00019035405 0)
(0.31790875 0.0001798905 0)
(0.31558902 0.00017030616 0)
(0.3133321 0.00016146587 0)
(0.31113277 0.00015333337 0)
(0.3089866 0.00014573106 0)
(0.30689022 0.00013862537 0)
(0.30484013 0.00013199719 0)
(0.30283354 0.00012576763 0)
(0.30086733 0.00011997897 0)
(0.29893842 0.00011455873 0)
(0.29704465 0.00010943791 0)
(0.29518386 0.0001046339 0)
(0.29335421 0.00010007093 0)
(0.29155428 9.5748366e-05 0)
(0.28978252 9.1647287e-05 0)
(0.28803787 8.7738838e-05 0)
(0.28631899 8.4042437e-05 0)
(0.28462478 8.0514772e-05 0)
(0.28295428 7.7165508e-05 0)
(0.2813063 7.3987212e-05 0)
(0.27967975 7.096507e-05 0)
(0.27807375 6.8078689e-05 0)
(0.27648788 6.5305861e-05 0)
(0.27492161 6.2659271e-05 0)
(0.27337426 6.0125795e-05 0)
(0.27184529 5.7704654e-05 0)
(0.27033418 5.5385188e-05 0)
(0.26884047 5.3168448e-05 0)
(0.26736353 5.1051024e-05 0)
(0.26590284 4.9024034e-05 0)
(0.26445801 4.7080979e-05 0)
(0.2630287 4.5218026e-05 0)
(0.26161451 4.3433897e-05 0)
(0.26021507 4.1723384e-05 0)
(0.25883006 4.0082717e-05 0)
(0.25745922 3.8508286e-05 0)
(0.25610219 3.7000497e-05 0)
(0.25475864 3.5555125e-05 0)
(0.25342823 3.4170111e-05 0)
(0.25211067 3.2841423e-05 0)
(0.25080567 3.1568075e-05 0)
(0.24951291 3.0346673e-05 0)
(0.24823212 2.917653e-05 0)
(0.24696296 2.8054652e-05 0)
(0.24570515 2.6979902e-05 0)
(0.24445833 2.5951212e-05 0)
(0.24322214 2.4966533e-05 0)
(0.24199616 2.4026083e-05 0)
(0.24077997 2.3128009e-05 0)
(0.2395729 2.227378e-05 0)
(0.23837452 2.1462258e-05 0)
(0.23718343 2.0697156e-05 0)
(0.23599979 1.9978854e-05 0)
(0.23481919 1.9319033e-05 0)
(0.23364589 1.8713567e-05 0)
(0.23246268 1.8216996e-05 0)
(0.23129423 1.7754816e-05 0)
(0.23007285 1.7696123e-05 0)
(0.22889447 1.7374314e-05 7.3861524e-21)
(0.22752915 1.9296834e-05 0)
(0.2264426 9.7073421e-06 0)
(0.22435544 3.1190458e-05 0)
(0.96681582 0.026246523 0)
(0.97166287 0.035067895 0)
(0.97663564 0.038594625 0)
(0.9754159 0.037465889 0)
(0.96083241 0.034247549 0)
(0.93272747 0.029912333 0)
(0.8961541 0.025223961 0)
(0.85622917 0.02083967 0)
(0.81620481 0.017125363 0)
(0.77800569 0.01407579 0)
(0.74268423 0.011598965 0)
(0.71069374 0.0096036549 0)
(0.68208709 0.0079832319 0)
(0.65668697 0.0066600107 0)
(0.63418942 0.0055795947 0)
(0.61426539 0.0046935285 0)
(0.59659274 0.0039654167 0)
(0.58087493 0.0033657616 0)
(0.56684997 0.0028714039 0)
(0.55428852 0.0024646008 0)
(0.54299309 0.0021349962 0)
(0.53278299 0.0018665906 0)
(0.52350555 0.0016443685 0)
(0.51503168 0.0014592755 0)
(0.50725125 0.0013042895 0)
(0.5000685 0.001173534 0)
(0.49340179 0.0010617721 0)
(0.4871871 0.00096578434 0)
(0.48136994 0.00088346173 0)
(0.47590426 0.00081180562 0)
(0.47075047 0.0007483068 0)
(0.4658752 0.00069182364 0)
(0.46124907 0.00064149853 0)
(0.45684705 0.0005963897 0)
(0.45264749 0.00055580996 0)
(0.44863212 0.00051970873 0)
(0.4447785 0.00048730374 0)
(0.44107524 0.00045769535 0)
(0.43750761 0.00043087831 0)
(0.43406358 0.00040637492 0)
(0.43073328 0.00038385635 0)
(0.42750758 0.00036317616 0)
(0.42437829 0.00034398266 0)
(0.42133863 0.00032614703 0)
(0.41838212 0.00030957864 0)
(0.41550311 0.00029410588 0)
(0.41269618 0.0002797492 0)
(0.40995616 0.00026635703 0)
(0.40727884 0.00025378089 0)
(0.40466028 0.00024201167 0)
(0.40209695 0.00023090431 0)
(0.39958586 0.00022043185 0)
(0.39712401 0.00021054134 0)
(0.39470904 0.00020116709 0)
(0.39233846 0.00019232081 0)
(0.39001014 0.00018392118 0)
(0.38772206 0.00017597132 0)
(0.38547216 0.00016844766 0)
(0.38325854 0.00016131326 0)
(0.38107959 0.00015452224 0)
(0.37893414 0.00014802977 0)
(0.37682094 0.00014184896 0)
(0.37473871 0.0001359528 0)
(0.37268631 0.00013033198 0)
(0.37066269 0.00012496349 0)
(0.36866688 0.00011984428 0)
(0.36669777 0.00011496401 0)
(0.36475443 0.00011030254 0)
(0.36283604 0.00010584448 0)
(0.36094187 0.00010157974 0)
(0.35907116 9.7502525e-05 0)
(0.35722321 9.3600932e-05 0)
(0.35539738 8.9865338e-05 0)
(0.35359309 8.628741e-05 0)
(0.3518097 8.2865401e-05 0)
(0.35004659 7.9589991e-05 0)
(0.34830318 7.6455251e-05 0)
(0.34657891 7.3452497e-05 0)
(0.34487325 7.0577998e-05 0)
(0.34318567 6.7824445e-05 0)
(0.34151564 6.5189016e-05 0)
(0.33986263 6.2665242e-05 0)
(0.33822614 6.0249853e-05 0)
(0.33660558 5.7939906e-05 0)
(0.33500039 5.5731136e-05 0)
(0.33340991 5.3622774e-05 0)
(0.33183351 5.1611773e-05 0)
(0.33027022 4.9699105e-05 0)
(0.32871939 4.7885559e-05 0)
(0.32717914 4.6172478e-05 0)
(0.32564953 4.4574231e-05 0)
(0.32412491 4.3087494e-05 0)
(0.32261041 4.1765025e-05 0)
(0.32108433 4.0596777e-05 0)
(0.3195771 3.9687202e-05 0)
(0.31800415 3.9308522e-05 0)
(0.31648366 3.909662e-05 5.4342726e-21)
(0.31472822 4.1298995e-05 0)
(0.31330769 2.943943e-05 0)
(0.31063583 5.7417368e-05 -8.1529128e-21)
(0.96989255 0.024399779 0)
(0.97539755 0.032522777 0)
(0.98338106 0.036262125 0)
(0.98998851 0.036520909 0)
(0.99353468 0.034760022 0)
(0.99319783 0.032287454 0)
(0.98700774 0.029666017 0)
(0.97419318 0.027050775 0)
(0.95491369 0.024395465 0)
(0.9311188 0.021556611 0)
(0.90454997 0.018741079 0)
(0.87658641 0.016125874 0)
(0.84837833 0.013791223 0)
(0.8208345 0.011763307 0)
(0.79460414 0.010024885 0)
(0.77008618 0.0085450188 0)
(0.74746179 0.0072971644 0)
(0.72674568 0.0062516247 0)
(0.70784769 0.0053828511 0)
(0.69062495 0.0046649561 0)
(0.67492373 0.0040684816 0)
(0.66058767 0.0035721825 0)
(0.64747218 0.0031563121 0)
(0.63544299 0.0028045129 0)
(0.62437523 0.0025059403 0)
(0.61415635 0.0022516497 0)
(0.60468254 0.0020332254 0)
(0.59587036 0.0018446021 0)
(0.58764787 0.0016814476 0)
(0.57995112 0.0015389271 0)
(0.57272326 0.0014129998 0)
(0.56591507 0.0013013831 0)
(0.55948348 0.0012022429 0)
(0.55338979 0.0011136491 0)
(0.54760269 0.0010341064 0)
(0.5420936 0.00096304207 0)
(0.53683712 0.00089921404 0)
(0.53181053 0.00084122126 0)
(0.52699407 0.00078871843 0)
(0.52236947 0.00074090375 0)
(0.51792119 0.00069713021 0)
(0.51363516 0.00065704417 0)
(0.50949857 0.0006200533 0)
(0.50550035 0.00058586113 0)
(0.50163023 0.00055424193 0)
(0.49787896 0.00052486537 0)
(0.49423845 0.0004976714 0)
(0.49070081 0.00047239975 0)
(0.48725931 0.00044878544 0)
(0.48390783 0.00042675695 0)
(0.48064071 0.00040607977 0)
(0.47745294 0.00038667432 0)
(0.47433973 0.00036842975 0)
(0.47129699 0.00035122082 0)
(0.46832088 0.00033502827 0)
(0.46540789 0.00031972346 0)
(0.46255471 0.00030528748 0)
(0.45975814 0.0002916639 0)
(0.45701539 0.00027878123 0)
(0.45432391 0.00026656143 0)
(0.45168154 0.00025493153 0)
(0.44908613 0.00024389422 0)
(0.4465356 0.00023340083 0)
(0.44402809 0.00022342542 0)
(0.44156185 0.00021392724 0)
(0.43913527 0.00020489307 0)
(0.43674669 0.00019629973 0)
(0.43439464 0.00018811136 0)
(0.43207781 0.0001803002 0)
(0.42979494 0.00017284596 0)
(0.42754486 0.00016573413 0)
(0.42532644 0.00015894305 0)
(0.42313866 0.00015245459 0)
(0.42098052 0.00014625328 0)
(0.41885105 0.00014033217 0)
(0.41674929 0.00013467457 0)
(0.41467436 0.00012926855 0)
(0.41262539 0.00012409905 0)
(0.41060157 0.00011915763 0)
(0.40860209 0.00011443155 0)
(0.40662617 0.00010991423 0)
(0.40467302 0.00010559442 0)
(0.4027419 0.00010146543 0)
(0.40083199 9.7521271e-05 0)
(0.3989425 9.3754628e-05 0)
(0.39707253 9.0162622e-05 0)
(0.39522121 8.6740746e-05 0)
(0.39338734 8.3488138e-05 0)
(0.39157002 8.0408831e-05 0)
(0.38976703 7.7498371e-05 0)
(0.38797822 7.4792877e-05 0)
(0.38619725 7.225951e-05 0)
(0.38442944 7.0043036e-05 0)
(0.38265086 6.8005394e-05 0)
(0.38089414 6.6569243e-05 0)
(0.37906705 6.5680079e-05 0)
(0.37729645 6.5771719e-05 4.1332347e-21)
(0.37526816 6.7835349e-05 0)
(0.37359687 5.644679e-05 0)
(0.37051771 8.4958239e-05 6.3404786e-21)
(0.97186498 0.023237336 0)
(0.97679936 0.030482022 0)
(0.98413839 0.034209284 0)
(0.99120973 0.034677958 0)
(0.99635257 0.033396074 0)
(0.99945615 0.03152708 0)
(1.0019142 0.029644026 0)
(1.0017888 0.027896833 0)
(1.0002128 0.026214593 0)
(0.99553327 0.024482184 0)
(0.98706366 0.022682234 0)
(0.97461811 0.020824321 0)
(0.95870094 0.018855806 0)
(0.94015808 0.016854312 0)
(0.91970287 0.014923102 0)
(0.89802379 0.013125477 0)
(0.87582485 0.011507899 0)
(0.85373729 0.01006707 0)
(0.83227881 0.0088001075 0)
(0.81181473 0.0077019969 0)
(0.79255763 0.0067571323 0)
(0.77458085 0.0059545797 0)
(0.75786598 0.0052751959 0)
(0.74234928 0.0046971316 0)
(0.72794817 0.0042026612 0)
(0.71457518 0.0037774166 0)
(0.70214087 0.003408781 0)
(0.69055942 0.0030876343 0)
(0.67975008 0.0028077535 0)
(0.66963738 0.0025622613 0)
(0.66015426 0.0023453337 0)
(0.65124061 0.0021531617 0)
(0.64284184 0.0019825561 0)
(0.6349083 0.001830303 0)
(0.6273979 0.0016938994 0)
(0.62027155 0.0015719263 0)
(0.61349831 0.001462302 0)
(0.60704593 0.0013630448 0)
(0.60088776 0.0012733146 0)
(0.59499909 0.0011917341 0)
(0.58935852 0.0011172805 0)
(0.58394616 0.0010492997 0)
(0.57874388 0.00098684917 0)
(0.57373589 0.00092937314 0)
(0.56890743 0.00087643699 0)
(0.56424512 0.0008274646 0)
(0.55973769 0.00078222493 0)
(0.55537436 0.00074029812 0)
(0.55114577 0.00070127361 0)
(0.5470432 0.00066498813 0)
(0.54305841 0.00063108618 0)
(0.53918407 0.00059939699 0)
(0.53541334 0.00056972266 0)
(0.53174013 0.00054185139 0)
(0.52815891 0.00051570812 0)
(0.52466446 0.00049109911 0)
(0.52125198 0.00046795913 0)
(0.51791702 0.0004461772 0)
(0.51465573 0.00042563442 0)
(0.51146444 0.00040621509 0)
(0.50833976 0.00038780854 0)
(0.50527851 0.00037039267 0)
(0.50227768 0.00035388656 0)
(0.49933456 0.00033823837 0)
(0.4964466 0.0003233821 0)
(0.49361141 0.00030928651 0)
(0.4908267 0.000295908 0)
(0.48809041 0.00028318996 0)
(0.48540061 0.00027108787 0)
(0.48275548 0.000259566 0)
(0.48015333 0.00024859605 0)
(0.47759256 0.00023814289 0)
(0.47507167 0.00022817701 0)
(0.47258923 0.00021867236 0)
(0.47014384 0.00020961288 0)
(0.46773419 0.0002009717 0)
(0.46535902 0.00019272842 0)
(0.46301714 0.00018485939 0)
(0.46070741 0.00017734919 0)
(0.45842873 0.0001701777 0)
(0.45618001 0.00016333267 0)
(0.45396019 0.00015679645 0)
(0.45176826 0.00015055732 0)
(0.44960315 0.00014460486 0)
(0.44746382 0.00013892755 0)
(0.44534913 0.00013351916 0)
(0.44325797 0.00012837303 0)
(0.44118889 0.00012348523 0)
(0.43914075 0.00011886344 0)
(0.43711107 0.00011449507 0)
(0.43509944 0.00011044251 0)
(0.4330991 0.00010663463 0)
(0.43111519 0.00010332959 0)
(0.42912285 0.00010022396 0)
(0.42715491 9.8142215e-05 0)
(0.42511654 9.6570864e-05 0)
(0.42313607 9.7043346e-05 3.3804912e-21)
(0.42088904 9.8537274e-05 5.8202295e-20)
(0.41900705 8.9692075e-05 0)
(0.41559787 0.00011436215 0)
(0.97331421 0.022373658 0)
(0.97776647 0.028803635 0)
(0.9840999 0.032354145 0)
(0.99029565 0.033085904 0)
(0.99530071 0.032247811 0)
(0.99904682 0.030732901 0)
(1.00167 0.029090892 0)
(1.0035256 0.02755326 0)
(1.004723 0.026049994 0)
(1.0055893 0.02459478 0)
(1.0053688 0.023213229 0)
(1.0041651 0.021884737 0)
(1.0012813 0.020573302 0)
(0.99605648 0.019260749 0)
(0.98820392 0.0179567 0)
(0.97755211 0.016607622 0)
(0.96451413 0.015202541 0)
(0.94939844 0.0138094 0)
(0.93258263 0.012463525 0)
(0.91453101 0.011198785 0)
(0.89579801 0.010032976 0)
(0.8769201 0.0089729577 0)
(0.85835928 0.0080197105 0)
(0.84045252 0.0071723554 0)
(0.82339874 0.0064284621 0)
(0.8072801 0.0057816881 0)
(0.79210423 0.0052196524 0)
(0.77784271 0.0047286695 0)
(0.76444952 0.0042981919 0)
(0.75187038 0.0039181363 0)
(0.74004841 0.0035806246 0)
(0.72892592 0.0032805967 0)
(0.71844604 0.0030136695 0)
(0.70855587 0.0027752346 0)
(0.69920704 0.0025616302 0)
(0.69035306 0.0023703207 0)
(0.68195453 0.0021982509 0)
(0.67397404 0.0020427805 0)
(0.66637732 0.0019023135 0)
(0.65913361 0.0017748195 0)
(0.65221568 0.0016587179 0)
(0.6455981 0.0015529228 0)
(0.63925754 0.0014560455 0)
(0.63317333 0.0013671687 0)
(0.62732624 0.0012855544 0)
(0.62169878 0.0012103092 0)
(0.6162756 0.001140961 0)
(0.61104256 0.0010768614 0)
(0.60598719 0.001017391 0)
(0.60109786 0.00096224484 0)
(0.5963636 0.00091090546 0)
(0.5917747 0.00086307612 0)
(0.58732198 0.00081844189 0)
(0.58299718 0.00077667189 0)
(0.57879275 0.00073761212 0)
(0.57470135 0.00070097418 0)
(0.57071668 0.00066661286 0)
(0.56683289 0.00063434393 0)
(0.56304481 0.00060398889 0)
(0.55934739 0.00057538253 0)
(0.55573599 0.00054836244 0)
(0.55220626 0.0005228668 0)
(0.54875418 0.00049876959 0)
(0.54537606 0.00047598429 0)
(0.54206841 0.00045441151 0)
(0.53882797 0.00043399046 0)
(0.53565171 0.00041464781 0)
(0.53253691 0.00039630132 0)
(0.5294809 0.00037888389 0)
(0.52648125 0.00036233778 0)
(0.52353567 0.00034661516 0)
(0.52064207 0.00033166352 0)
(0.51779836 0.00031743865 0)
(0.51500261 0.00030389916 0)
(0.51225297 0.00029101533 0)
(0.50954772 0.000278747 0)
(0.5068852 0.00026706247 0)
(0.50426384 0.00025592686 0)
(0.50168214 0.00024531514 0)
(0.49913866 0.00023519751 0)
(0.49663199 0.00022555387 0)
(0.49416077 0.00021635826 0)
(0.49172369 0.00020759209 0)
(0.4893194 0.0001992389 0)
(0.48694661 0.00019128154 0)
(0.4846039 0.00018370903 0)
(0.48228993 0.00017651156 0)
(0.48000299 0.00016968089 0)
(0.47774171 0.00016322811 0)
(0.47550332 0.00015713084 0)
(0.47328719 0.00015147987 0)
(0.47108627 0.00014616097 0)
(0.46890532 0.00014155728 0)
(0.46671922 0.00013718053 0)
(0.46456007 0.00013430245 0)
(0.46233291 0.0001318812 0)
(0.46016421 0.00013272773 0)
(0.45772743 0.00013334073 0)
(0.45565854 0.00012860007 1.1253901e-19)
(0.45196092 0.00014613831 0)
(0.974589 0.021582617 0)
(0.97853604 0.027335409 0)
(0.98408303 0.030707665 0)
(0.98954141 0.031644267 0)
(0.99405042 0.031110743 0)
(0.99753279 0.029879399 0)
(1.0001688 0.028457098 0)
(1.0022592 0.027060417 0)
(1.0039801 0.025669148 0)
(1.0052694 0.02432107 0)
(1.0061969 0.02304343 0)
(1.0067887 0.021814409 0)
(1.0070963 0.0206437 0)
(1.0069005 0.019553464 0)
(1.0060497 0.018531374 0)
(1.004377 0.01755985 0)
(1.0012694 0.016630734 0)
(0.99636969 0.015719641 0)
(0.98942297 0.014815103 0)
(0.98029258 0.013875482 0)
(0.96912206 0.012890663 0)
(0.95606835 0.011899534 0)
(0.94139729 0.010920695 0)
(0.92551418 0.009975465 0)
(0.90892286 0.0090792944 0)
(0.89211978 0.008242919 0)
(0.87552251 0.0074758526 0)
(0.85942426 0.0067829869 0)
(0.84398844 0.0061663312 0)
(0.82928208 0.0056206288 0)
(0.81531896 0.0051361657 0)
(0.80208699 0.0047043196 0)
(0.78955961 0.0043180429 0)
(0.77770199 0.003971193 0)
(0.76647482 0.0036594065 0)
(0.75583528 0.003379368 0)
(0.74574282 0.0031270135 0)
(0.73615892 0.0028989588 0)
(0.72704615 0.0026928582 0)
(0.7183695 0.0025058791 0)
(0.71009728 0.0023358004 0)
(0.7021998 0.0021810093 0)
(0.69464951 0.002039557 0)
(0.68742137 0.0019100715 0)
(0.68049211 0.0017914218 0)
(0.6738405 0.0016823103 0)
(0.66744705 0.0015819453 0)
(0.66129383 0.0014893744 0)
(0.65536491 0.0014037127 0)
(0.64964553 0.0013244656 0)
(0.64412197 0.0012509057 0)
(0.63878187 0.0011825618 0)
(0.63361362 0.0011189609 0)
(0.6286067 0.0010596212 0)
(0.62375136 0.0010042779 0)
(0.61903832 0.00095252322 0)
(0.61445938 0.00090410587 0)
(0.61000702 0.00085874003 0)
(0.60567441 0.00081616635 0)
(0.60145505 0.00077615375 0)
(0.59734299 0.00073847274 0)
(0.59333262 0.00070300419 0)
(0.58941883 0.00066956427 0)
(0.58559684 0.00063802279 0)
(0.58186203 0.00060823496 0)
(0.57821019 0.00058009535 0)
(0.57463758 0.00055349244 0)
(0.5711406 0.00052831328 0)
(0.56771584 0.00050446085 0)
(0.56436014 0.00048184837 0)
(0.56107055 0.00046040207 0)
(0.55784434 0.00044004608 0)
(0.55467889 0.00042071671 0)
(0.55157168 0.00040235297 0)
(0.54852037 0.00038490671 0)
(0.54552277 0.00036832067 0)
(0.54257678 0.00035254846 0)
(0.53968041 0.00033754081 0)
(0.53683176 0.00032326014 0)
(0.534029 0.00030966429 0)
(0.53127039 0.00029672282 0)
(0.52855422 0.00028439923 0)
(0.52587887 0.00027266602 0)
(0.52324269 0.00026149878 0)
(0.5206441 0.00025087305 0)
(0.51808141 0.00024077156 0)
(0.51555299 0.00023118006 0)
(0.51305691 0.00022208468 0)
(0.51059151 0.00021349917 0)
(0.50815381 0.00020539003 0)
(0.50574287 0.00019787716 0)
(0.50335145 0.00019080055 0)
(0.50098387 0.00018467416 0)
(0.49861507 0.0001788152 0)
(0.49627593 0.00017496673 0)
(0.49387271 0.00017152266 0)
(0.49152843 0.00017268089 0)
(0.48891858 0.00017216192 0)
(0.48667832 0.00017279691 1.0066296e-19)
(0.48271693 0.00018050919 0)
(0.97590557 0.020854156 0)
(0.97932401 0.025988819 0)
(0.98420442 0.029216598 0)
(0.9891198 0.030332408 0)
(0.99327156 0.030058313 0)
(0.99652581 0.02907537 0)
(0.99903927 0.027840556 0)
(1.0010439 0.026567563 0)
(1.0027043 0.025281257 0)
(1.0040644 0.024021063 0)
(1.0051787 0.022809339 0)
(1.0060826 0.021639311 0)
(1.0067514 0.020526507 0)
(1.0071785 0.019482799 0)
(1.0075121 0.018511116 0)
(1.0074937 0.017613561 0)
(1.0073136 0.016790691 0)
(1.0067524 0.0160374 0)
(1.0056624 0.015345603 0)
(1.0038254 0.014700054 0)
(1.0008055 0.01407804 0)
(0.9962828 0.013467365 0)
(0.98996075 0.012835406 0)
(0.98172249 0.012147608 0)
(0.9715815 0.011409729 0)
(0.95964936 0.010641374 0)
(0.94618734 0.009862114 0)
(0.93162017 0.0090964193 0)
(0.91643952 0.0083574818 0)
(0.90110733 0.0076595859 0)
(0.8859803 0.0070137002 0)
(0.87128468 0.0064267222 0)
(0.85713679 0.0058991966 0)
(0.84358558 0.0054254424 0)
(0.83064608 0.0049986056 0)
(0.81831308 0.0046133132 0)
(0.80656923 0.0042643145 0)
(0.79538978 0.0039477695 0)
(0.78474496 0.003660955 0)
(0.77460353 0.0034003811 0)
(0.76493501 0.0031632347 0)
(0.75570914 0.0029473652 0)
(0.74689676 0.0027502295 0)
(0.73847064 0.0025699546 0)
(0.73040478 0.0024049442 0)
(0.7226751 0.0022534457 0)
(0.71525908 0.0021143039 0)
(0.70813559 0.0019861921 0)
(0.70128555 0.0018678924 0)
(0.69469119 0.0017586541 0)
(0.68833601 0.0016574818 0)
(0.68220491 0.0015636885 0)
(0.67628383 0.001476602 0)
(0.67055998 0.0013955526 0)
(0.66502142 0.0013201336 0)
(0.65965701 0.0012497831 0)
(0.65445649 0.0011841119 0)
(0.6494104 0.0011227113 0)
(0.64451014 0.0010652191 0)
(0.63974765 0.0010113141 0)
(0.63511557 0.00096067853 0)
(0.63060695 0.0009131206 0)
(0.6262154 0.00086838227 0)
(0.62193496 0.0008262754 0)
(0.61775994 0.00078659947 0)
(0.61368511 0.00074919343 0)
(0.60970574 0.00071389512 0)
(0.60581736 0.00068055119 0)
(0.60201574 0.00064902689 0)
(0.59829693 0.00061919865 0)
(0.59465725 0.00059095974 0)
(0.59109325 0.00056420446 0)
(0.5876017 0.00053884428 0)
(0.5841795 0.00051479269 0)
(0.58082375 0.00049197787 0)
(0.57753174 0.00047032153 0)
(0.57430088 0.00044975855 0)
(0.57112871 0.00043022159 0)
(0.56801289 0.00041165711 0)
(0.56495119 0.00039400757 0)
(0.56194149 0.00037722933 0)
(0.55898171 0.00036127281 0)
(0.55606988 0.00034609921 0)
(0.55320404 0.00033167402 0)
(0.55038227 0.00031796358 0)
(0.5476026 0.0003049425 0)
(0.54486313 0.00029259053 0)
(0.54216164 0.00028088675 0)
(0.5394962 0.00026984645 0)
(0.5368636 0.00025942379 0)
(0.53426259 0.00024976759 0)
(0.53168579 0.00024067039 0)
(0.52913702 0.00023277982 0)
(0.52659143 0.00022521373 0)
(0.52407855 0.00022019972 0)
(0.52150641 0.00021554764 0)
(0.51899404 0.00021691793 0)
(0.51622083 0.00021502103 -2.0598155e-20)
(0.51381959 0.00022216277 0)
(0.50960969 0.00021764962 -2.2090957e-21)
(0.97727217 0.02020807 0)
(0.98020856 0.024760711 0)
(0.98447668 0.02780879 0)
(0.98892482 0.029067584 0)
(0.99280452 0.029041434 0)
(0.99591761 0.028296985 0)
(0.99836026 0.027241925 0)
(1.000314 0.026092001 0)
(1.0019177 0.024902956 0)
(1.0032362 0.023716946 0)
(1.0043225 0.022562582 0)
(1.0052185 0.021444301 0)
(1.0059436 0.02037849 0)
(1.0065105 0.019371205 0)
(1.0069533 0.018435239 0)
(1.0072591 0.017572636 0)
(1.0074419 0.016771883 0)
(1.0075253 0.016042437 0)
(1.0074761 0.015385511 0)
(1.0073047 0.014793636 0)
(1.0069222 0.014257255 0)
(1.0062179 0.013770209 0)
(1.0050645 0.013318324 0)
(1.0031731 0.012885702 0)
(1.000179 0.012454727 0)
(0.99576021 0.012011153 0)
(0.98960506 0.011518976 0)
(0.98163626 0.010954697 0)
(0.97183934 0.010340521 0)
(0.96035516 0.0096903757 0)
(0.94751355 0.0090266587 0)
(0.93377475 0.0083673263 0)
(0.91961385 0.0077296572 0)
(0.90542654 0.0071284914 0)
(0.89148335 0.0065734919 0)
(0.87793719 0.0060685675 0)
(0.86486401 0.0056105552 0)
(0.85229941 0.005194032 0)
(0.84025527 0.0048147767 0)
(0.82872794 0.0044685231 0)
(0.81770405 0.0041522327 0)
(0.80716376 0.0038635719 0)
(0.79708435 0.0035995822 0)
(0.7874421 0.0033580039 0)
(0.7782125 0.0031368276 0)
(0.76937154 0.0029338476 0)
(0.76089599 0.0027475357 0)
(0.7527633 0.0025761626 0)
(0.74495249 0.0024181366 0)
(0.73744365 0.0022724032 0)
(0.73021802 0.0021376531 0)
(0.72325827 0.0020129393 0)
(0.71654811 0.0018973435 0)
(0.71007262 0.0017899696 0)
(0.70381781 0.0016902307 0)
(0.69777061 0.001597381 0)
(0.69191888 0.0015108757 0)
(0.6862513 0.0014301556 0)
(0.68075747 0.0013547257 0)
(0.6754277 0.001284147 0)
(0.6702531 0.0012179931 0)
(0.66522532 0.0011559808 0)
(0.66033659 0.0010977616 0)
(0.65557972 0.0010430743 0)
(0.65094794 0.00099164743 0)
(0.64643493 0.00094325078 0)
(0.64203483 0.00089766084 0)
(0.63774224 0.00085467328 0)
(0.63355204 0.00081410548 0)
(0.62945946 0.000775789 0)
(0.62546 0.00073957652 0)
(0.62154947 0.00070532449 0)
(0.61772396 0.00067291171 0)
(0.61397972 0.00064222088 0)
(0.61031327 0.00061315147 0)
(0.6067213 0.00058559886 0)
(0.6032007 0.00055947459 0)
(0.5997485 0.00053468906 0)
(0.59636191 0.00051116897 0)
(0.59303824 0.00048883785 0)
(0.58977494 0.00046763568 0)
(0.58656955 0.00044749687 0)
(0.58341973 0.00042836865 0)
(0.58032315 0.00041020397 0)
(0.57727757 0.00039295769 0)
(0.57428071 0.00037659434 0)
(0.57133033 0.00036108582 0)
(0.56842396 0.00034640252 0)
(0.56555937 0.00033255992 0)
(0.56273311 0.00031949847 0)
(0.55994361 0.00030739526 0)
(0.55718335 0.00029599414 0)
(0.55445564 0.00028607752 0)
(0.55173595 0.00027656153 0)
(0.54905234 0.00027016576 0)
(0.54631491 0.00026410428 0)
(0.54363859 0.00026555805 1.1305922e-21)
(0.5407074 0.00026202323 0)
(0.53815208 0.0002767306 8.710472e-20)
(0.5337031 0.00025774053 0)
(0.97863845 0.01963197 0)
(0.9811734 0.023664477 0)
(0.98488594 0.026503186 0)
(0.98889118 0.027846984 0)
(0.99251579 0.028031817 0)
(0.99551114 0.027508718 0)
(0.99791006 0.026631991 0)
(0.99984574 0.02561107 0)
(1.0014335 0.024521799 0)
(1.0027372 0.02341269 0)
(1.0038083 0.022318409 0)
(1.0046881 0.021250878 0)
(1.0054036 0.020226399 0)
(1.0059764 0.019253772 0)
(1.0064292 0.018346247 0)
(1.0067842 0.017505922 0)
(1.0070523 0.016726114 0)
(1.0072426 0.016015903 0)
(1.0073596 0.015374442 0)
(1.0074318 0.014793509 0)
(1.0074213 0.014268216 0)
(1.0073683 0.013797692 0)
(1.007236 0.013375195 0)
(1.0069799 0.012991194 0)
(1.0065237 0.012637019 0)
(1.0057513 0.012305499 0)
(1.0045176 0.011986715 0)
(1.0024604 0.011668517 0)
(0.99925173 0.011336046 0)
(0.99454661 0.010964287 0)
(0.98812957 0.010524133 0)
(0.97991161 0.010019826 0)
(0.96994697 0.0094661088 0)
(0.95848758 0.0088823748 0)
(0.94595446 0.0082899535 0)
(0.93281891 0.0077063065 0)
(0.91949421 0.0071478254 0)
(0.90627417 0.0066257387 0)
(0.89333302 0.0061456631 0)
(0.88076453 0.0057061439 0)
(0.86861883 0.0053032358 0)
(0.85691993 0.0049336059 0)
(0.84567452 0.0045938924 0)
(0.83487795 0.0042818418 0)
(0.82451807 0.003995387 0)
(0.81457895 0.0037320802 0)
(0.80504242 0.0034901587 0)
(0.79588874 0.0032675687 0)
(0.78709821 0.0030623803 0)
(0.77865109 0.0028732422 0)
(0.7705281 0.0026985128 0)
(0.7627109 0.0025369618 0)
(0.75518192 0.0023873929 0)
(0.74792478 0.0022486527 0)
(0.74092391 0.002119944 0)
(0.73416463 0.0020003071 0)
(0.7276332 0.0018890171 0)
(0.72131668 0.0017853399 0)
(0.71520306 0.0016886231 0)
(0.70928105 0.001598285 0)
(0.70354028 0.0015137672 0)
(0.69797098 0.0014346771 0)
(0.69256401 0.0013605563 0)
(0.68731092 0.0012910503 0)
(0.68220377 0.001225801 0)
(0.67723513 0.0011644999 0)
(0.67239807 0.0011068498 0)
(0.66768614 0.0010525803 0)
(0.66309329 0.0010014504 0)
(0.65861385 0.00095323753 0)
(0.65424252 0.00090774518 0)
(0.64997429 0.00086478366 0)
(0.6458045 0.00082419123 0)
(0.64172874 0.00078581286 0)
(0.63774286 0.00074951329 0)
(0.63384296 0.00071515609 0)
(0.63002533 0.00068262418 0)
(0.62628649 0.00065180094 0)
(0.62262312 0.000622589 0)
(0.61903206 0.00059488902 0)
(0.61551032 0.00056862099 0)
(0.61205499 0.00054369999 0)
(0.60866334 0.00052005626 0)
(0.60533267 0.00049762742 0)
(0.60206036 0.00047635436 0)
(0.5988438 0.0004561892 0)
(0.59568045 0.00043709396 0)
(0.59256749 0.00041902843 0)
(0.58950242 0.00040200665 0)
(0.58648152 0.00038595395 0)
(0.58350289 0.00037107454 0)
(0.5805589 0.00035706259 0)
(0.57765231 0.00034483524 0)
(0.57475894 0.00033310598 0)
(0.57190542 0.00032509037 0)
(0.56900394 0.00031739923 0)
(0.56616549 0.00031878265 0)
(0.56307882 0.00031332898 0)
(0.5603737 0.00033662192 0)
(0.55569122 0.00030097134 0)
(0.97995919 0.019106148 0)
(0.98217319 0.022686748 0)
(0.98540213 0.025310588 0)
(0.98898646 0.026689776 0)
(0.99234953 0.027039914 0)
(0.99521886 0.026711761 0)
(0.99757297 0.026004824 0)
(0.99949831 0.025114013 0)
(1.0010854 0.024126991 0)
(1.0023922 0.023098517 0)
(1.0034669 0.022067814 0)
(1.004349 0.021052735 0)
(1.0050667 0.020070769 0)
(1.0056434 0.019133466 0)
(1.0061013 0.018253299 0)
(1.0064641 0.017434743 0)
(1.0067465 0.016674147 0)
(1.0069597 0.015978534 0)
(1.0071167 0.015346933 0)
(1.0072355 0.014775878 0)
(1.0073142 0.014261037 0)
(1.0073605 0.013796567 0)
(1.0073841 0.013377843 0)
(1.0073757 0.012998558 0)
(1.0073398 0.012654417 0)
(1.0072493 0.012341465 0)
(1.0070791 0.012053789 0)
(1.0067731 0.011784587 0)