# Region        : all region0
# Cells         : 7480
# Volume        : 2.33333000e+00
# Time          	min(p)	min(k)	min(epsilon)	min(nut)
1               	8.76788412e-05	8.80979731e-05	1.83761161e-03	1.30798437e-07
2               	6.26303631e-05	5.32277412e-05	2.82033920e-03	9.03578830e-08
3               	7.12256113e-05	3.26615792e-05	1.51357645e-03	6.34325988e-08
4               	5.99391178e-05	2.03298093e-05	8.19427262e-04	4.53940267e-08
5               	3.64822676e-05	1.29214031e-05	4.48297032e-04	3.35193815e-08
6               	1.88949703e-05	8.40937007e-06	2.48365903e-04	2.56258020e-08
7               	7.97922944e-06	5.62063147e-06	1.39707669e-04	2.03513154e-08
8               	8.38229112e-07	3.86985885e-06	8.00427339e-05	1.68387886e-08
9               	-5.39869012e-06	2.75255661e-06	4.68832626e-05	1.45444466e-08
10              	-1.18299308e-05	2.02731915e-06	2.81932573e-05	1.31202316e-08
11              	-1.88099435e-05	1.54834108e-06	1.74844934e-05	1.23402150e-08
12              	-2.57707975e-05	1.22643578e-06	1.12307243e-05	1.20538107e-08
13              	-3.25292952e-05	1.00633425e-06	7.49775416e-06	1.21561437e-08
14              	-3.90782812e-05	8.53338443e-07	5.21366734e-06	1.25701892e-08
15              	-4.54533243e-05	7.45382882e-07	3.77754807e-06	1.32370539e-08
16              	-5.16754021e-05	6.68249825e-07	2.84810563e-06	1.41112058e-08
17              	-5.77920277e-05	6.12647246e-07	2.22855487e-06	1.51579388e-08
18              	-6.38048250e-05	5.72405523e-07	1.80341150e-06	1.63514137e-08
19              	-1.68522213e-04	5.43355959e-07	1.50351491e-06	1.76727299e-08
20              	-3.93508317e-04	5.22628800e-07	1.28650514e-06	1.91081069e-08
21              	-5.97012388e-04	5.08210378e-07	1.12580998e-06	2.06473573e-08
22              	-7.27936479e-04	4.98660718e-07	1.00434880e-06	2.21716331e-08
23              	-8.44756886e-04	4.92930930e-07	9.10873347e-07	2.34777272e-08
24              	-9.30366450e-04	4.90243216e-07	8.37800775e-07	2.43362472e-08
25              	-9.69266791e-04	4.90010667e-07	7.79903830e-07	2.50188062e-08
26              	-1.00794852e-03	4.91782816e-07	7.33502394e-07	2.49250286e-08
27              	-1.01422576e-03	4.95208109e-07	6.95953903e-07	2.57829623e-08
28              	-9.88576070e-04	5.00007721e-07	6.65325558e-07	2.77357320e-08
29              	-9.65713483e-04	5.05957037e-07	6.40179292e-07	3.08954214e-08
30              	-9.24018280e-04	5.12872415e-07	6.19428058e-07	3.55434822e-08
31              	-8.60224587e-04	5.20601592e-07	6.02238033e-07	4.05028248e-08
32              	-7.93468440e-04	5.29016655e-07	5.87960924e-07	4.28383501e-08
33              	-7.28879334e-04	5.38008826e-07	5.76086353e-07	4.52203295e-08
34              	-6.49993256e-04	5.47484544e-07	5.66207842e-07	4.76291066e-08
35              	-5.61343303e-04	5.57362496e-07	5.57998178e-07	4.97971255e-08
36              	-4.77093328e-04	5.67571342e-07	5.51191319e-07	5.19987345e-08
37              	-3.95621293e-04	5.78047958e-07	5.45568950e-07	5.42307713e-08
38              	-3.04912030e-04	5.88736069e-07	5.40950377e-07	5.64191030e-08
39              	-2.09722811e-04	5.99585174e-07	5.37184847e-07	5.54913429e-08
40              	-1.66088480e-04	6.10549702e-07	5.34145651e-07	5.42730175e-08
41              	-1.70139925e-04	6.21588331e-07	5.31725558e-07	5.33276168e-08
42              	-1.74285263e-04	6.32663448e-07	5.29833238e-07	5.28503911e-08
43              	-1.78658784e-04	6.43740712e-07	5.28390455e-07	5.28881049e-08
44              	-1.83217296e-04	6.54788705e-07	5.27329839e-07	5.12404786e-08
45              	-1.87942558e-04	6.65778640e-07	5.26593096e-07	4.99103733e-08
46              	-1.92824829e-04	6.76684125e-07	5.26129570e-07	4.91285016e-08
47              	-1.97830076e-04	6.87480966e-07	5.25895084e-07	4.91435958e-08
48              	-2.02919421e-04	6.98147009e-07	5.25850995e-07	4.92689771e-08
49              	-2.08071621e-04	7.08662001e-07	5.25963417e-07	4.75898595e-08
50              	-2.13269892e-04	7.18406176e-07	5.26202584e-07	4.65173144e-08
51              	-2.18540473e-04	7.27276636e-07	5.26542316e-07	4.63101319e-08
52              	-2.23882171e-04	7.36059738e-07	5.26959581e-07	4.72938555e-08
53              	-2.29250932e-04	7.44640954e-07	5.27434111e-07	4.66108692e-08
54              	-2.34639001e-04	7.53016620e-07	5.27948087e-07	4.52391696e-08
55              	-2.40059919e-04	7.60885159e-07	5.28485862e-07	4.48141698e-08
56              	-2.45507648e-04	7.68463380e-07	5.29033721e-07	4.56697344e-08
57              	-2.50971629e-04	7.75766310e-07	5.29579670e-07	4.71911982e-08
58              	-2.56431444e-04	7.82819739e-07	5.30113249e-07	4.54928557e-08
59              	-2.61874561e-04	7.89623981e-07	5.30625367e-07	4.48063490e-08
60              	-2.67283269e-04	7.96183723e-07	5.31108152e-07	4.54715113e-08
61              	-2.72641762e-04	8.02523133e-07	5.31554822e-07	4.79091104e-08
62              	-2.77956021e-04	8.08635679e-07	5.31959559e-07	4.73725222e-08
63              	-2.83220629e-04	8.14534754e-07	5.32317407e-07	4.63200456e-08
64              	-2.88449036e-04	8.20236728e-07	5.32624170e-07	4.66639358e-08
65              	-2.93662615e-04	8.25759285e-07	5.32876329e-07	4.88223139e-08
66              	-2.98879796e-04	8.31095190e-07	5.33070956e-07	5.08795192e-08
67              	-3.04116531e-04	8.36225052e-07	5.33205641e-07	4.93142399e-08
68              	-3.09373203e-04	8.41220144e-07	5.33278426e-07	4.91565897e-08
69              	-3.14620720e-04	8.46005133e-07	5.33287730e-07	5.08191605e-08
70              	-3.19848326e-04	8.50645906e-07	5.33232292e-07	5.48218815e-08
71              	-3.25046456e-04	8.55101384e-07	5.33111101e-07	5.38000856e-08
72              	-3.30209942e-04	8.59466246e-07	5.32923333e-07	5.29445411e-08
73              	-3.35348788e-04	8.63698699e-07	5.32668283e-07	5.38671992e-08
74              	-3.40477544e-04	8.67831965e-07	5.32345298e-07	5.70580686e-08
75              	-3.45610650e-04	8.71949051e-07	5.31953709e-07	5.99447786e-08
76              	-3.50754484e-04	8.75904442e-07	5.31492770e-07	5.82094183e-08
77              	-3.55901954e-04	8.79753885e-07	5.30961599e-07	5.81462211e-08
78              	-3.61062019e-04	8.83514516e-07	5.30359149e-07	6.02159440e-08
79              	-3.66238380e-04	8.87206663e-07	5.29684203e-07	6.49888243e-08
80              	-3.71428135e-04	8.90861548e-07	5.28935423e-07	6.52926122e-08
81              	-3.76643239e-04	8.94527641e-07	5.28111482e-07	6.40327003e-08
82              	-3.81888254e-04	8.98181217e-07	5.27211306e-07	6.46903404e-08
83              	-3.87162809e-04	9.01352742e-07	5.26234488e-07	6.77710950e-08
84              	-3.92480999e-04	9.04434524e-07	5.25181923e-07	7.30204452e-08
85              	-3.97856150e-04	9.07460557e-07	5.24056756e-07	7.19925822e-08
86              	-4.03285586e-04	9.10481026e-07	5.22865723e-07	7.10389989e-08
87              	-4.08752950e-04	9.13387466e-07	5.21621021e-07	7.21488504e-08
88              	-4.14245050e-04	9.15817447e-07	5.20342834e-07	7.58576476e-08
89              	-4.19755555e-04	9.18142413e-07	5.19062677e-07	8.09331248e-08
90              	-4.25292340e-04	9.20392429e-07	5.17827739e-07	7.98382349e-08
91              	-4.30859343e-04	9.22611381e-07	5.16706425e-07	7.88854528e-08
92              	-4.36471319e-04	9.24341503e-07	5.15795294e-07	8.00058176e-08
93              	-4.42132282e-04	9.25899606e-07	5.15227614e-07	8.37378412e-08
94              	-4.47824243e-04	9.27332201e-07	5.15183707e-07	8.84605253e-08
95              	-4.53524299e-04	9.28582767e-07	5.15903247e-07	8.86147287e-08
96              	-4.59240797e-04	9.29258719e-07	5.17699589e-07	8.73006490e-08
97              	-4.64970575e-04	9.29461665e-07	5.20976109e-07	8.79064864e-08
98              	-4.70720332e-04	9.29633335e-07	5.21308299e-07	9.09491433e-08
99              	-4.76499259e-04	9.29780956e-07	5.21264923e-07	9.54398298e-08
100             	-4.82310764e-04	9.29911355e-07	5.21127403e-07	9.81593932e-08
101             	-4.88136918e-04	9.30009114e-07	5.21016358e-07	9.61958131e-08
102             	-4.93960043e-04	9.30096519e-07	5.20910230e-07	9.58323881e-08
103             	-4.99788116e-04	9.30172769e-07	5.20791967e-07	9.75520248e-08
104             	-5.05624858e-04	9.30241753e-07	5.20652900e-07	1.01884323e-07
105             	-5.11472427e-04	9.30505182e-07	5.20553846e-07	1.04788649e-07
106             	-5.17332177e-04	9.31001095e-07	5.20416990e-07	1.05738345e-07
107             	-5.23213520e-04	9.31950015e-07	5.20323001e-07	1.04280522e-07
108             	-5.29100691e-04	9.33715458e-07	5.20525430e-07	1.04407459e-07
109             	-5.34990647e-04	9.36649975e-07	5.21244982e-07	1.06592548e-07
110             	-5.40887365e-04	9.41181955e-07	5.22605824e-07	1.11158917e-07
111             	-5.46798201e-04	9.47841731e-07	5.25162886e-07	1.13802904e-07
112             	-5.52713536e-04	9.57290042e-07	5.29270460e-07	1.15641044e-07
113             	-5.58630368e-04	9.70344075e-07	5.35341456e-07	1.14995579e-07
114             	-5.64569487e-04	9.87996551e-07	5.43866981e-07	1.15881248e-07
115             	-5.70522340e-04	1.01143835e-06	5.55427610e-07	1.18758538e-07
116             	-5.76486181e-04	1.04208196e-06	5.70702516e-07	1.24123426e-07
117             	-5.82446680e-04	1.08167795e-06	5.90475358e-07	1.32543820e-07
118             	-5.88410056e-04	1.13222956e-06	6.15639198e-07	1.43171863e-07
119             	-5.94379146e-04	1.19601560e-06	6.47198192e-07	1.49278036e-07
120             	-6.00346362e-04	1.27564076e-06	6.86267522e-07	1.55537768e-07
121             	-6.06313455e-04	1.37408101e-06	7.34068630e-07	1.64198156e-07
122             	-6.12304139e-04	1.49473586e-06	7.91925382e-07	1.75869557e-07
123             	-6.18314021e-04	1.64115726e-06	8.61259410e-07	1.90898000e-07
124             	-6.24339525e-04	1.81752832e-06	9.43765383e-07	2.10166575e-07
125             	-6.30368094e-04	2.02854365e-06	1.04114064e-06	2.34520182e-07
126             	-6.36404827e-04	2.27942248e-06	1.15514137e-06	2.64917465e-07
127             	-6.42449298e-04	2.57592209e-06	1.28762982e-06	2.79782844e-07
128             	-6.48491822e-04	2.92444914e-06	1.44058539e-06	2.80191607e-07
129             	-6.54540907e-04	3.33215178e-06	1.61575175e-06	2.80594273e-07
130             	-6.60631439e-04	3.78116229e-06	1.81518771e-06	2.80991378e-07
131             	-6.66765488e-04	4.26239748e-06	2.04130961e-06	2.81383965e-07
132             	-6.72940820e-04	4.79815394e-06	2.29401734e-06	2.81772336e-07
133             	-6.79145928e-04	5.39145797e-06	2.54418053e-06	2.82156385e-07
134             	-6.85373835e-04	6.04507384e-06	2.81423421e-06	2.82535922e-07
135             	-6.91630557e-04	6.76163987e-06	3.10457984e-06	2.82910813e-07
136             	-6.97904780e-04	7.54495934e-06	3.41545322e-06	2.83281005e-07
137             	-7.04196747e-04	8.40039964e-06	3.74702619e-06	2.83646514e-07
138             	-7.10517229e-04	9.33239278e-06	4.09950798e-06	2.84007397e-07
139             	-7.16898791e-04	1.03453482e-05	4.47419417e-06	2.84363738e-07
140             	-7.23336332e-04	1.14413427e-05	4.87294054e-06	2.84715631e-07
141             	-7.29827204e-04	1.26260518e-05	5.29741671e-06	2.85063176e-07
142             	-7.36364049e-04	1.39077804e-05	5.74719605e-06	2.85406469e-07
143             	-7.42930548e-04	1.50886996e-05	6.21879489e-06	2.85745606e-07
144             	-7.49529474e-04	1.62668820e-05	6.62666982e-06	2.86080678e-07
145             	-7.56150377e-04	1.74829475e-05	7.03873924e-06	2.86411769e-07
146             	-7.62788233e-04	1.87390405e-05	7.45558399e-06	2.86738963e-07
147             	-7.69449550e-04	2.00385564e-05	7.87763585e-06	2.87062337e-07
148             	-7.76152735e-04	2.13915765e-05	8.30544231e-06	2.87381960e-07
149             	-7.82914088e-04	2.28058357e-05	8.74100858e-06	2.87696196e-07
150             	-7.89724893e-04	2.42801822e-05	9.18805607e-06	2.88002546e-07
151             	-7.96577306e-04	2.58186412e-05	9.64767045e-06	2.88307321e-07
152             	-8.03466348e-04	2.72422077e-05	1.00617625e-05	2.88610619e-07
153             	-8.10381318e-04	2.85355472e-05	1.04271429e-05	2.88911663e-07
154             	-8.17325228e-04	2.98324863e-05	1.07850737e-05	2.89209943e-07
155             	-8.24294218e-04	3.11381254e-05	1.11370670e-05	2.89505213e-07
156             	-8.31279855e-04	3.24571783e-05	1.14845133e-05	2.89797375e-07
157             	-8.38282165e-04	3.38024809e-05	1.18288543e-05	2.90087035e-07
158             	-8.45305611e-04	3.51836774e-05	1.21735430e-05	2.90374852e-07
159             	-8.52374941e-04	3.65987400e-05	1.25224867e-05	2.90663222e-07
160             	-8.59488653e-04	3.80345893e-05	1.27924618e-05	2.90951816e-07
161             	-8.66631939e-04	3.91913300e-05	1.30467754e-05	2.91239634e-07
162             	-8.73797652e-04	4.03346024e-05	1.32920926e-05	2.91525974e-07
163             	-8.80987373e-04	4.14709102e-05	1.35299814e-05	2.91810217e-07
164             	-8.88198150e-04	4.26056662e-05	1.37618829e-05	2.92092166e-07
165             	-8.95426595e-04	4.37437708e-05	1.39892213e-05	2.92372658e-07
166             	-9.02673715e-04	4.48975291e-05	1.42136528e-05	2.92651966e-07
167             	-9.09931183e-04	4.60732992e-05	1.44029563e-05	2.92927002e-07
168             	-9.17186710e-04	4.72696441e-05	1.45638710e-05	2.93195608e-07
169             	-9.24450009e-04	4.83685027e-05	1.47176363e-05	2.93447846e-07
170             	-9.31731425e-04	4.93183758e-05	1.48654526e-05	2.93694793e-07
171             	-9.39050649e-04	5.02563868e-05	1.50083617e-05	2.93950142e-07
172             	-9.46414333e-04	5.11878201e-05	1.51473004e-05	2.94194473e-07
173             	-9.53806298e-04	5.21169222e-05	1.52831914e-05	2.94430486e-07
174             	-9.61217068e-04	5.30474153e-05	1.54065019e-05	2.94663581e-07
175             	-9.68645425e-04	5.39864718e-05	1.55020881e-05	2.94896666e-07
176             	-9.76092737e-04	5.49406113e-05	1.55928797e-05	2.95127065e-07
177             	-9.83567960e-04	5.59091166e-05	1.56798038e-05	2.95354501e-07
178             	-9.91067414e-04	5.68562044e-05	1.57634673e-05	2.95579781e-07
179             	-9.98589108e-04	5.76349036e-05	1.58443374e-05	2.95803606e-07
180             	-1.00612591e-03	5.84033752e-05	1.59228751e-05	2.96026317e-07
181             	-1.01365852e-03	5.91657537e-05	1.59995286e-05	2.96247973e-07
182             	-1.02119447e-03	5.99251795e-05	1.60562722e-05	2.96468470e-07
183             	-1.02874495e-03	6.06841537e-05	1.60686466e-05	2.96687627e-07
184             	-1.03632311e-03	6.14448746e-05	1.60341007e-05	2.96905261e-07
185             	-1.04393382e-03	6.22111935e-05	1.59985121e-05	2.97121236e-07
186             	-1.05157034e-03	6.29879465e-05	1.59619601e-05	2.97335292e-07
187             	-1.05922642e-03	6.37753804e-05	1.59245190e-05	2.97547367e-07
188             	-1.06690615e-03	6.45729676e-05	1.58862591e-05	2.97757545e-07
189             	-1.07460715e-03	6.52435590e-05	1.58472462e-05	2.97965945e-07
190             	-1.08233043e-03	6.58790801e-05	1.58075423e-05	2.98172667e-07
191             	-1.09007815e-03	6.65087861e-05	1.57672059e-05	2.98377775e-07
192             	-1.09785383e-03	6.71350977e-05	1.57262916e-05	2.98581293e-07
193             	-1.10566068e-03	6.77597452e-05	1.56848512e-05	2.98783221e-07
194             	-1.11349147e-03	6.83840564e-05	1.56429330e-05	2.98983539e-07
195             	-1.12133788e-03	6.90092188e-05	1.56005825e-05	2.99182230e-07
196             	-1.12918766e-03	6.96363699e-05	1.55578425e-05	2.99379284e-07
197             	-1.13703936e-03	7.02694979e-05	1.55147530e-05	2.99574711e-07
198             	-1.14490717e-03	7.09104933e-05	1.54713515e-05	2.99768536e-07
199             	-1.15279108e-03	7.15572842e-05	1.54276734e-05	2.99960794e-07
200             	-1.16068962e-03	7.21972662e-05	1.53837516e-05	3.00151523e-07
201             	-1.16860205e-03	7.27269451e-05	1.53396169e-05	3.00340759e-07
202             	-1.17652584e-03	7.32498065e-05	1.52952981e-05	3.00528532e-07
203             	-1.18446068e-03	7.37683995e-05	1.52508223e-05	3.00714867e-07
204             	-1.19240452e-03	7.42843779e-05	1.52062145e-05	3.00899784e-07
205             	-1.20035712e-03	7.47988128e-05	1.51614980e-05	3.01083294e-07
206             	-1.20831702e-03	7.53124314e-05	1.51166947e-05	3.01265409e-07
207             	-1.21628451e-03	7.58257965e-05	1.50718247e-05	3.01446138e-07
208             	-1.22426835e-03	7.63393693e-05	1.50269067e-05	3.01625492e-07
209             	-1.23228661e-03	7.68536181e-05	1.49819580e-05	3.01803482e-07
210             	-1.24034059e-03	7.73706909e-05	1.49369945e-05	3.01980113e-07
211             	-1.24842684e-03	7.78921896e-05	1.48920311e-05	3.02155382e-07
212             	-1.25654751e-03	7.84176906e-05	1.48470811e-05	3.02329293e-07
213             	-1.26469538e-03	7.89450755e-05	1.48021571e-05	3.02501862e-07
214             	-1.27285814e-03	7.94233318e-05	1.47572703e-05	3.02673113e-07
215             	-1.28102748e-03	7.98564661e-05	1.47124312e-05	3.02843071e-07
216             	-1.28920088e-03	8.02845999e-05	1.46676491e-05	3.03011758e-07
217             	-1.29738076e-03	8.07093993e-05	1.46229325e-05	3.03179195e-07
218             	-1.30557142e-03	8.11319796e-05	1.45782894e-05	3.03345395e-07
219             	-1.31377717e-03	8.15530734e-05	1.45337265e-05	3.03510369e-07
220             	-1.32199615e-03	8.19730679e-05	1.44892503e-05	3.03674133e-07
221             	-1.33022298e-03	8.23921962e-05	1.44448665e-05	3.03836710e-07
222             	-1.33845958e-03	8.28106032e-05	1.44005800e-05	3.03998125e-07
223             	-1.34670665e-03	8.32284288e-05	1.43563956e-05	3.04158389e-07
224             	-1.35496339e-03	8.36457997e-05	1.43123173e-05	3.04317508e-07
225             	-1.36322743e-03	8.40630377e-05	1.42683487e-05	3.04475486e-07
226             	-1.37149687e-03	8.44819607e-05	1.42244933e-05	3.04632328e-07
227             	-1.37977298e-03	8.49044842e-05	1.41807540e-05	3.04788041e-07
228             	-1.38805728e-03	8.53269890e-05	1.41371334e-05	3.04942635e-07
229             	-1.39635030e-03	8.57464121e-05	1.40936340e-05	3.05096121e-07
230             	-1.40465569e-03	8.61472510e-05	1.40502581e-05	3.05248507e-07
231             	-1.41297474e-03	8.65002481e-05	1.40070075e-05	3.05399805e-07
232             	-1.42130531e-03	8.68487872e-05	1.39638843e-05	3.05550032e-07
233             	-1.42964793e-03	8.71940824e-05	1.39208902e-05	3.05699208e-07
234             	-1.43800698e-03	8.75368606e-05	1.38780268e-05	3.05847354e-07
235             	-1.44638201e-03	8.78776082e-05	1.38352958e-05	3.05994491e-07
236             	-1.45477274e-03	8.82166310e-05	1.37926985e-05	3.06140633e-07
237             	-1.46318137e-03	8.85541379e-05	1.37502364e-05	3.06285788e-07
238             	-1.47161125e-03	8.88902716e-05	1.37079111e-05	3.06429960e-07
239             	-1.48006516e-03	8.92251307e-05	1.36657238e-05	3.06573166e-07
240             	-1.48854167e-03	8.95587544e-05	1.36236759e-05	3.06715429e-07
241             	-1.49703440e-03	8.98911639e-05	1.35817687e-05	3.06856779e-07
242             	-1.50553829e-03	9.02223981e-05	1.35400037e-05	3.06997209e-07
243             	-1.51405073e-03	9.05525819e-05	1.34983821e-05	3.07136695e-07
244             	-1.52257097e-03	9.08819037e-05	1.34569053e-05	3.07275223e-07
245             	-1.53110368e-03	9.12122720e-05	1.34155745e-05	3.07412795e-07
246             	-1.53965283e-03	9.15442259e-05	1.33743909e-05	3.07549436e-07
247             	-1.54821990e-03	9.18746938e-05	1.33333559e-05	3.07685181e-07
248             	-1.55680306e-03	9.22002055e-05	1.32924708e-05	3.07820076e-07
249             	-1.56539723e-03	9.25225384e-05	1.32517366e-05	3.07954153e-07
250             	-1.57399736e-03	9.28436286e-05	1.32111546e-05	3.08087408e-07
251             	-1.58259986e-03	9.31460575e-05	1.31707260e-05	3.08219818e-07
252             	-1.59120636e-03	9.34234333e-05	1.31304519e-05	3.08351366e-07
253             	-1.59981371e-03	9.36978388e-05	1.30903333e-05	3.08482044e-07
254             	-1.60842735e-03	9.39699216e-05	1.30503712e-05	3.08611854e-07
255             	-1.61705197e-03	9.42398971e-05	1.30105667e-05	3.08740809e-07
256             	-1.62569574e-03	9.45077981e-05	1.29709207e-05	3.08868923e-07
257             	-1.63436337e-03	9.47736224e-05	1.29314340e-05	3.08996216e-07
258             	-1.64305655e-03	9.50374087e-05	1.28921075e-05	3.09122704e-07
259             	-1.65177846e-03	9.52992590e-05	1.28529419e-05	3.09248406e-07
260             	-1.66052999e-03	9.55593258e-05	1.28139379e-05	3.09373338e-07
261             	-1.66931269e-03	9.58177663e-05	1.27750962e-05	3.09497514e-07
262             	-1.67812719e-03	9.60747217e-05	1.27364174e-05	3.09620947e-07
263             	-1.68697327e-03	9.63303238e-05	1.26979020e-05	3.09743647e-07
264             	-1.69585272e-03	9.65846586e-05	1.26595505e-05	3.09865626e-07
265             	-1.70476911e-03	9.68377704e-05	1.26213633e-05	3.09986891e-07
266             	-1.71371970e-03	9.70896621e-05	1.25833407e-05	3.10107450e-07
267             	-1.72270043e-03	9.73403091e-05	1.25454832e-05	3.10227311e-07
268             	-1.73170707e-03	9.75897041e-05	1.25077908e-05	3.10346501e-07
269             	-1.74073626e-03	9.78387805e-05	1.24702640e-05	3.10465083e-07
270             	-1.74978538e-03	9.80872440e-05	1.24329028e-05	3.10583190e-07
271             	-1.75885092e-03	9.83353946e-05	1.23957073e-05	3.10700785e-07
272             	-1.76793368e-03	9.85793210e-05	1.23586776e-05	3.10817736e-07
273             	-1.77703805e-03	9.88194260e-05	1.23218138e-05	3.10933901e-07
274             	-1.78616581e-03	9.90570960e-05	1.22851158e-05	3.11049129e-07
275             	-1.79531651e-03	9.92933308e-05	1.22485837e-05	3.11163300e-07
276             	-1.80448819e-03	9.95286725e-05	1.22122172e-05	3.11276609e-07
277             	-1.81367735e-03	9.97633664e-05	1.21760163e-05	3.11389253e-07
278             	-1.82288400e-03	9.99974808e-05	1.21399809e-05	3.11501345e-07
279             	-1.83213067e-03	1.00231007e-04	1.21041107e-05	3.11612928e-07
280             	-1.84141685e-03	1.00463995e-04	1.20684055e-05	3.11724007e-07
281             	-1.85073671e-03	1.00695930e-04	1.20328651e-05	3.11834575e-07
282             	-1.86008197e-03	1.00902847e-04	1.19974892e-05	3.11944616e-07
283             	-1.86945097e-03	1.01107439e-04	1.19622775e-05	3.12054118e-07
284             	-1.87884286e-03	1.01310195e-04	1.19272296e-05	3.12163073e-07
285             	-1.88824778e-03	1.01511361e-04	1.18923453e-05	3.12271474e-07
286             	-1.89765949e-03	1.01711055e-04	1.18576240e-05	3.12379317e-07
287             	-1.90707459e-03	1.01909329e-04	1.18230655e-05	3.12486599e-07
288             	-1.91648790e-03	1.02106172e-04	1.17886693e-05	3.12593320e-07
289             	-1.92589486e-03	1.02301508e-04	1.17544349e-05	3.12699481e-07
290             	-1.93529646e-03	1.02495257e-04	1.17203619e-05	3.12805084e-07
291             	-1.94470358e-03	1.02687380e-04	1.16864498e-05	3.12910133e-07
292             	-1.95412501e-03	1.02877875e-04	1.16526982e-05	3.13014635e-07
293             	-1.96355885e-03	1.03066773e-04	1.16191064e-05	3.13118610e-07
294             	-1.97299907e-03	1.03254123e-04	1.15856741e-05	3.13222091e-07
295             	-1.98243763e-03	1.03439991e-04	1.15524005e-05	3.13325100e-07
296             	-1.99186128e-03	1.03624444e-04	1.15192853e-05	3.13427592e-07
297             	-2.00125316e-03	1.03807549e-04	1.14863277e-05	3.13529516e-07
298             	-2.01058613e-03	1.03989365e-04	1.14535272e-05	3.13630813e-07
299             	-2.01984464e-03	1.04169937e-04	1.14208833e-05	3.13731315e-07
300             	-2.02904230e-03	1.04349309e-04	1.13883953e-05	3.13830783e-07
301             	-2.03821046e-03	1.04527508e-04	1.13560626e-05	3.13929724e-07
302             	-2.04735935e-03	1.04704524e-04	1.13238846e-05	3.14028350e-07
303             	-2.05648617e-03	1.04880332e-04	1.12918605e-05	3.14126692e-07
304             	-2.06557731e-03	1.05054912e-04	1.12599899e-05	3.14224720e-07
305             	-2.07460379e-03	1.05228498e-04	1.12282721e-05	3.14322393e-07
306             	-2.08352758e-03	1.05401192e-04	1.11967063e-05	3.14419676e-07
307             	-2.09232772e-03	1.05572724e-04	1.11652919e-05	3.14516544e-07
308             	-2.10099624e-03	1.05742771e-04	1.11340282e-05	3.14612982e-07
309             	-2.10953922e-03	1.05911043e-04	1.11029146e-05	3.14708978e-07
310             	-2.11799366e-03	1.06076831e-04	1.10719504e-05	3.14804528e-07
311             	-2.12638243e-03	1.06239314e-04	1.10411348e-05	3.14899626e-07
312             	-2.13469441e-03	1.06399644e-04	1.10104672e-05	3.14994274e-07
313             	-2.14291948e-03	1.06558848e-04	1.09799469e-05	3.15088470e-07
314             	-2.15105082e-03	1.06717573e-04	1.09495731e-05	3.15182217e-07
315             	-2.15907996e-03	1.06876133e-04	1.09193452e-05	3.15275517e-07
316             	-2.16699080e-03	1.07034599e-04	1.08892625e-05	3.15368374e-07
317             	-2.17479136e-03	1.07192896e-04	1.08593241e-05	3.15460786e-07
318             	-2.18247887e-03	1.07350869e-04	1.08295295e-05	3.15552754e-07
319             	-2.19006092e-03	1.07508338e-04	1.07998778e-05	3.15644279e-07
320             	-2.19753400e-03	1.07665138e-04	1.07703684e-05	3.15735374e-07
321             	-2.20492977e-03	1.07821130e-04	1.07410005e-05	3.15826055e-07
322             	-2.21224680e-03	1.07976198e-04	1.07117734e-05	3.15916342e-07
323             	-2.21946131e-03	1.08130254e-04	1.06826863e-05	3.16006248e-07
324             	-2.22656325e-03	1.08283238e-04	1.06537387e-05	3.16095781e-07
325             	-2.23353343e-03	1.08435134e-04	1.06249296e-05	3.16184942e-07
326             	-2.24031521e-03	1.08585946e-04	1.05962583e-05	3.16273732e-07
327             	-2.24690801e-03	1.08735691e-04	1.05677243e-05	3.16362148e-07
328             	-2.25336287e-03	1.08884384e-04	1.05393266e-05	3.16450187e-07
329             	-2.25968436e-03	1.09032020e-04	1.05110645e-05	3.16537846e-07
330             	-2.26584862e-03	1.09178583e-04	1.04829375e-05	3.16625124e-07
331             	-2.27182726e-03	1.09324058e-04	1.04549446e-05	3.16712021e-07
332             	-2.27765930e-03	1.09468446e-04	1.04270852e-05	3.16798536e-07
333             	-2.28328583e-03	1.09611749e-04	1.03993585e-05	3.16884671e-07
334             	-2.28869657e-03	1.09753998e-04	1.03717638e-05	3.16970426e-07
335             	-2.29385785e-03	1.09895239e-04	1.03443004e-05	3.17055803e-07
336             	-2.29879411e-03	1.10035515e-04	1.03169676e-05	3.17140805e-07
337             	-2.30351161e-03	1.10174850e-04	1.02897645e-05	3.17225433e-07
338             	-2.30801818e-03	1.10313270e-04	1.02626906e-05	3.17309690e-07
339             	-2.31237402e-03	1.10450769e-04	1.02357450e-05	3.17393583e-07
340             	-2.31656930e-03	1.10587292e-04	1.02089271e-05	3.17477120e-07
341             	-2.32051633e-03	1.10722839e-04	1.01822360e-05	3.17560309e-07
342             	-2.32415921e-03	1.10857422e-04	1.01556712e-05	3.17643158e-07
343             	-2.32751688e-03	1.10989713e-04	1.01292318e-05	3.17725670e-07
344             	-2.33060850e-03	1.11115498e-04	1.01029172e-05	3.17807849e-07
345             	-2.33343889e-03	1.11240138e-04	1.00767267e-05	3.17889695e-07
346             	-2.33600852e-03	1.11363780e-04	1.00496457e-05	3.17971211e-07
347             	-2.33828922e-03	1.11486510e-04	1.00220466e-05	3.18052394e-07
348             	-2.34025676e-03	1.11608380e-04	9.99459870e-06	3.18133246e-07
349             	-2.34189427e-03	1.11729422e-04	9.96730066e-06	3.18213767e-07
350             	-2.34319558e-03	1.11849657e-04	9.94015129e-06	3.18293956e-07
351             	-2.34415024e-03	1.11969101e-04	9.91314938e-06	3.18373816e-07
352             	-2.34477541e-03	1.12087767e-04	9.88629373e-06	3.18453347e-07
353             	-2.34508951e-03	1.12205664e-04	9.85958316e-06	3.18532551e-07
354             	-2.34511523e-03	1.12322804e-04	9.83301648e-06	3.18611431e-07
355             	-2.34489105e-03	1.12439196e-04	9.80659255e-06	3.18689987e-07
356             	-2.34441736e-03	1.12554848e-04	9.78031021e-06	3.18768224e-07
357             	-2.34356382e-03	1.12669769e-04	9.75416833e-06	3.18846146e-07
358             	-2.34242000e-03	1.12783967e-04	9.72816579e-06	3.18923758e-07
359             	-2.34105614e-03	1.12897450e-04	9.70230148e-06	3.19001065e-07
360             	-2.33950433e-03	1.13010226e-04	9.67657430e-06	3.19078073e-07
361             	-2.33777129e-03	1.13122301e-04	9.65098316e-06	3.19154790e-07
362             	-2.33586638e-03	1.13233681e-04	9.62552698e-06	3.19231215e-07
363             	-2.33377637e-03	1.13344374e-04	9.60020470e-06	3.19307345e-07
364             	-2.33149594e-03	1.13454386e-04	9.57501527e-06	3.19383180e-07
365             	-2.32902673e-03	1.13563722e-04	9.54995764e-06	3.19458717e-07
366             	-2.32637295e-03	1.13672387e-04	9.52503079e-06	3.19533957e-07
367             	-2.32354455e-03	1.13780381e-04	9.50023368e-06	3.19608901e-07
368             	-2.32055179e-03	1.13887697e-04	9.47556532e-06	3.19683551e-07
369             	-2.31739451e-03	1.13994335e-04	9.45102470e-06	3.19757908e-07
370             	-2.31407042e-03	1.14100303e-04	9.42661084e-06	3.19831975e-07
371             	-2.31057518e-03	1.14205608e-04	9.40232274e-06	3.19905755e-07
372             	-2.30691229e-03	1.14310256e-04	9.37815945e-06	3.19979248e-07
373             	-2.30308794e-03	1.14414254e-04	9.35412001e-06	3.20052460e-07
374             	-2.29910625e-03	1.14517608e-04	9.33020346e-06	3.20125392e-07
375             	-2.29497531e-03	1.14620326e-04	9.30640886e-06	3.20198048e-07
376             	-2.29069834e-03	1.14722413e-04	9.28273529e-06	3.20270441e-07
377             	-2.28627687e-03	1.14823876e-04	9.25918183e-06	3.20342610e-07
378             	-2.28170949e-03	1.14924723e-04	9.23574756e-06	3.20414588e-07
379             	-2.27700310e-03	1.15024959e-04	9.21243158e-06	3.20486483e-07
380             	-2.27216841e-03	1.15124591e-04	9.18923299e-06	3.20558440e-07
381             	-2.26721422e-03	1.15223621e-04	9.16615092e-06	3.20630587e-07
382             	-2.26214361e-03	1.15322037e-04	9.14318449e-06	3.20703018e-07