# Region        : all region0
# Cells         : 13056
# Volume        : 2.33333000e+00
# Time          	max(p)	max(k)	max(epsilon)	max(nut)
1               	1.23973873e-02	5.60434720e-03	7.19557111e+01	1.83508391e-07
2               	1.59642793e-02	2.27988333e-02	1.67755247e+02	9.57008552e-09
3               	1.30222713e-02	4.00378938e-02	1.37644068e+03	6.89659132e-09
4               	9.26768501e-03	5.03216659e-02	3.20328367e+03	7.10077028e-09
5               	7.11020533e-03	5.43142319e-02	4.51357932e+03	1.25157832e-08
6               	6.38377301e-03	5.42975631e-02	5.06126442e+03	2.24077883e-08
7               	6.24725886e-03	5.21150568e-02	5.05893468e+03	3.55771514e-08
8               	6.25503104e-03	4.89346334e-02	4.75700258e+03	4.92173371e-08
9               	6.14494824e-03	4.54214420e-02	4.32825733e+03	6.12506709e-08
10              	6.00402912e-03	4.19303610e-02	3.87061470e+03	7.29665513e-08
11              	5.90552078e-03	3.86286383e-02	3.43306057e+03	8.50541833e-08
12              	5.86127925e-03	3.55872111e-02	3.03565674e+03	9.77351127e-08
13              	5.85338622e-03	3.28247518e-02	2.68429039e+03	1.11044966e-07
14              	5.86403867e-03	3.03336254e-02	2.37788442e+03	1.24969062e-07
15              	5.88551936e-03	2.80941559e-02	2.11239457e+03	1.39394560e-07
16              	5.91721137e-03	2.60822104e-02	1.88283623e+03	1.54458465e-07
17              	5.95959060e-03	2.42730946e-02	1.69596603e+03	1.70227932e-07
18              	6.01240093e-03	2.26434358e-02	1.55689182e+03	1.86571309e-07
19              	6.07429256e-03	2.11719859e-02	1.43028287e+03	2.03456240e-07
20              	6.14451299e-03	1.98398576e-02	1.31538852e+03	2.20938068e-07
21              	6.22245300e-03	1.86304758e-02	1.21129378e+03	2.39031785e-07
22              	6.30762220e-03	1.75293980e-02	1.11703449e+03	2.57747001e-07
23              	6.39971360e-03	1.65240861e-02	1.03166337e+03	2.77092566e-07
24              	6.49849748e-03	1.56036683e-02	9.54285761e+02	2.97077128e-07
25              	6.60374998e-03	1.47587167e-02	8.84076771e+02	3.17709189e-07
26              	6.71524227e-03	1.39810454e-02	8.20287390e+02	3.38997110e-07
27              	6.83275241e-03	1.32635339e-02	7.66639875e+02	3.60949114e-07
28              	6.95625885e-03	1.25999739e-02	7.19667214e+02	3.83573291e-07
29              	7.08563034e-03	1.19849385e-02	6.76053256e+02	4.06877597e-07
30              	7.22086714e-03	1.14136703e-02	6.35555103e+02	4.30869861e-07
31              	7.36195898e-03	1.08819874e-02	5.97939847e+02	4.55557782e-07
32              	7.50887790e-03	1.03862026e-02	5.62987177e+02	4.80948934e-07
33              	7.66157272e-03	9.92305555e-03	5.30490712e+02	5.07050767e-07
34              	7.81999685e-03	9.48965532e-03	5.00258479e+02	5.33870600e-07
35              	7.98415346e-03	9.08343093e-03	4.72112813e+02	5.61415628e-07
36              	8.15405148e-03	8.70208985e-03	4.45889901e+02	5.89692916e-07
37              	8.32968263e-03	8.34358232e-03	4.21439093e+02	6.18709401e-07
38              	8.51103464e-03	8.00607085e-03	3.98622121e+02	6.48471889e-07
39              	8.69796928e-03	7.68790411e-03	3.77312238e+02	6.78987055e-07
40              	8.89044350e-03	7.38759447e-03	3.57393333e+02	7.10261444e-07
41              	9.08845262e-03	7.10379860e-03	3.38759111e+02	7.42301467e-07
42              	9.29200366e-03	6.83530076e-03	3.21312266e+02	7.75113402e-07
43              	9.50107994e-03	6.58099824e-03	3.05623199e+02	8.08703391e-07
44              	9.71567842e-03	6.33988881e-03	2.91338627e+02	8.43077445e-07
45              	9.93561892e-03	6.11105968e-03	2.77845637e+02	8.78241435e-07
46              	1.01608536e-02	5.89367790e-03	2.65094883e+02	9.14201097e-07
47              	1.03913812e-02	5.68698199e-03	2.53040178e+02	9.50962030e-07
48              	1.06270765e-02	5.49027450e-03	2.41638329e+02	9.88529694e-07
49              	1.08677131e-02	5.30291557e-03	2.30848972e+02	1.02690941e-06
50              	1.11131931e-02	5.12431715e-03	2.20634410e+02	1.06610635e-06
51              	1.13634535e-02	4.95393798e-03	2.10959445e+02	1.10612557e-06
52              	1.16184429e-02	4.79127905e-03	2.01791222e+02	1.14697195e-06
53              	1.18780814e-02	4.63587963e-03	1.93099079e+02	1.18865026e-06
54              	1.21421980e-02	4.48731373e-03	1.84854396e+02	1.23116511e-06
55              	1.24106790e-02	4.34518693e-03	1.77030459e+02	1.27452095e-06
56              	1.26832747e-02	4.20913353e-03	1.69602327e+02	1.31872212e-06
57              	1.29599003e-02	4.07881404e-03	1.62546710e+02	1.36377278e-06
58              	1.32404889e-02	3.95391290e-03	1.55841857e+02	1.40967697e-06
59              	1.35249276e-02	3.83414326e-03	1.49467447e+02	1.45643856e-06
60              	1.38131646e-02	3.71923915e-03	1.43404493e+02	1.50406129e-06
61              	1.41051490e-02	3.60894453e-03	1.37635252e+02	1.55254871e-06
62              	1.44004853e-02	3.50301735e-03	1.32143135e+02	1.60190427e-06
63              	1.46990898e-02	3.40123062e-03	1.26912615e+02	1.65213122e-06
64              	1.50005583e-02	3.30337208e-03	1.21929148e+02	1.70323268e-06
65              	1.53048698e-02	3.20924337e-03	1.17179106e+02	1.75521160e-06
66              	1.56121507e-02	3.11865912e-03	1.12649712e+02	1.80807077e-06
67              	1.59223914e-02	3.03144582e-03	1.08328979e+02	1.86181283e-06
68              	1.62353189e-02	2.94744100e-03	1.04205661e+02	1.91644023e-06
69              	1.65501072e-02	2.86649225e-03	1.00412382e+02	1.97195528e-06
70              	1.68669767e-02	2.78845649e-03	9.68195549e+01	2.02836010e-06
71              	1.71860018e-02	2.71319919e-03	9.33777952e+01	2.08565664e-06
72              	1.75070595e-02	2.64059377e-03	9.00797945e+01	2.14384668e-06
73              	1.78302018e-02	2.57052097e-03	8.69186406e+01	2.20293181e-06
74              	1.81551072e-02	2.50506006e-03	8.38877934e+01	2.26291344e-06
75              	1.84816907e-02	2.44268414e-03	8.09810633e+01	2.32379279e-06
76              	1.88099292e-02	2.38229959e-03	7.81925908e+01	2.38557090e-06
77              	1.91393706e-02	2.32382825e-03	7.55168273e+01	2.44824857e-06
78              	1.94700706e-02	2.26719504e-03	7.29485175e+01	2.51182645e-06
79              	1.98015510e-02	2.21232816e-03	7.04826821e+01	2.57630494e-06
80              	2.01335231e-02	2.15915917e-03	6.81146025e+01	2.64168424e-06
81              	2.04661233e-02	2.10762278e-03	6.58398056e+01	2.70796432e-06
82              	2.07994758e-02	2.05765679e-03	6.36540506e+01	2.77514493e-06
83              	2.11334278e-02	2.00920187e-03	6.15533150e+01	2.84322557e-06
84              	2.14673179e-02	1.96220147e-03	5.95337830e+01	2.91220551e-06
85              	2.18012849e-02	1.91660160e-03	5.75918332e+01	2.98208373e-06
86              	2.21356694e-02	1.87235075e-03	5.57240281e+01	3.05285899e-06
87              	2.24707303e-02	1.82939973e-03	5.39271035e+01	3.12452975e-06
88              	2.28065932e-02	1.78770153e-03	5.21979579e+01	3.19709418e-06
89              	2.31424573e-02	1.74721122e-03	5.05336453e+01	3.27055017e-06
90              	2.34783103e-02	1.70788587e-03	4.89313655e+01	3.34489529e-06
91              	2.38132812e-02	1.66968437e-03	4.73884561e+01	3.42012679e-06
92              	2.41482667e-02	1.63256741e-03	4.59023850e+01	3.49624159e-06
93              	2.44837202e-02	1.59649735e-03	4.44707429e+01	3.57323626e-06
94              	2.48186474e-02	1.56143814e-03	4.30912369e+01	3.65110702e-06
95              	2.51528851e-02	1.52735524e-03	4.17616841e+01	3.72984971e-06
96              	2.54866159e-02	1.49421733e-03	4.04800056e+01	3.80945976e-06
97              	2.58199427e-02	1.46199452e-03	3.92442210e+01	3.88993224e-06
98              	2.61525609e-02	1.43065611e-03	3.80524438e+01	3.97126176e-06
99              	2.64840219e-02	1.40017209e-03	3.69028757e+01	4.05344254e-06
100             	2.68145298e-02	1.37051358e-03	3.57938022e+01	4.13646833e-06
101             	2.71445762e-02	1.34165289e-03	3.47235881e+01	4.22033243e-06
102             	2.74743643e-02	1.31356357e-03	3.36906730e+01	4.30502768e-06
103             	2.78038111e-02	1.28622027e-03	3.26935681e+01	4.39054645e-06
104             	2.81323728e-02	1.25959876e-03	3.17308516e+01	4.47688062e-06
105             	2.84587754e-02	1.23367578e-03	3.08011660e+01	4.56402159e-06
106             	2.87839994e-02	1.20842905e-03	2.99175687e+01	4.65196026e-06
107             	2.91086768e-02	1.18383716e-03	2.90790088e+01	4.74068704e-06
108             	2.94333257e-02	1.15987959e-03	2.82676520e+01	4.83019187e-06
109             	2.97572072e-02	1.13653658e-03	2.74824958e+01	4.92046421e-06
110             	3.00798407e-02	1.11378917e-03	2.67225797e+01	5.01149305e-06
111             	3.04011973e-02	1.09161911e-03	2.59869832e+01	5.10326692e-06
112             	3.07211419e-02	1.07000884e-03	2.52748233e+01	5.19577394e-06
113             	3.10394262e-02	1.04894145e-03	2.45852532e+01	5.28900182e-06
114             	3.13565174e-02	1.02840067e-03	2.39174602e+01	5.38293789e-06
115             	3.16727517e-02	1.00837080e-03	2.32706649e+01	5.47756916e-06
116             	3.19875359e-02	9.89319173e-04	2.26441187e+01	5.57288234e-06
117             	3.23007875e-02	9.70916363e-04	2.20371034e+01	5.66886390e-06
118             	3.26127750e-02	9.52943126e-04	2.14489292e+01	5.76550008e-06
119             	3.29239049e-02	9.35387859e-04	2.08789337e+01	5.86277703e-06
120             	3.32332519e-02	9.18239256e-04	2.03264807e+01	5.96068077e-06
121             	3.35409446e-02	9.01486339e-04	1.97909589e+01	6.05919733e-06
122             	3.38471753e-02	8.85118467e-04	1.92717811e+01	6.15831278e-06
123             	3.41525777e-02	8.69125331e-04	1.87683828e+01	6.25801329e-06
124             	3.44572033e-02	8.53496945e-04	1.82802214e+01	6.35828525e-06
125             	3.47605519e-02	8.38223633e-04	1.78067753e+01	6.45911527e-06
126             	3.50626689e-02	8.23296022e-04	1.73475430e+01	6.56049030e-06
127             	3.53635885e-02	8.08705029e-04	1.69020421e+01	6.66239769e-06
128             	3.56632219e-02	7.94441849e-04	1.64698086e+01	6.76482524e-06
129             	3.59612849e-02	7.80497950e-04	1.60503960e+01	6.86775918e-06
130             	3.62578441e-02	7.66865059e-04	1.56433748e+01	6.97118823e-06
131             	3.65526896e-02	7.53535153e-04	1.52483315e+01	7.07510328e-06
132             	3.68460535e-02	7.40500450e-04	1.48648681e+01	7.17949528e-06
133             	3.71379138e-02	7.27753403e-04	1.44926014e+01	7.28435554e-06
134             	3.74283476e-02	7.15286688e-04	1.41311626e+01	7.38967592e-06
135             	3.77173365e-02	7.03093199e-04	1.37801964e+01	7.49544900e-06
136             	3.80037316e-02	6.91166038e-04	1.34393606e+01	7.60166820e-06
137             	3.82877766e-02	6.79498509e-04	1.31083256e+01	7.70832778e-06
138             	3.85701318e-02	6.68084113e-04	1.27867737e+01	7.81542291e-06
139             	3.88511182e-02	6.56916537e-04	1.24743988e+01	7.92294961e-06
140             	3.91309676e-02	6.45989649e-04	1.21709057e+01	8.03090480e-06
141             	3.94098478e-02	6.35297495e-04	1.18760099e+01	8.13928623e-06
142             	3.96875077e-02	6.24834290e-04	1.15894373e+01	8.24809250e-06
143             	3.99638886e-02	6.14594412e-04	1.13109232e+01	8.35732299e-06
144             	4.02388518e-02	6.04572398e-04	1.10402126e+01	8.46697785e-06
145             	4.05123160e-02	5.94763093e-04	1.07770594e+01	8.57705799e-06
146             	4.07843099e-02	5.85162002e-04	1.05212261e+01	8.68756497e-06
147             	4.10547131e-02	5.75764557e-04	1.02724836e+01	8.79850101e-06
148             	4.13232310e-02	5.66565849e-04	1.00306110e+01	8.90986891e-06
149             	4.15902113e-02	5.57560966e-04	9.79539486e+00	9.02167202e-06
150             	4.18558828e-02	5.48745103e-04	9.56662929e+00	9.13391415e-06
151             	4.21198479e-02	5.40113595e-04	9.34411551e+00	9.24659954e-06
152             	4.23818439e-02	5.31661921e-04	9.12766154e+00	9.35973278e-06
153             	4.26410965e-02	5.23385701e-04	8.91708199e+00	9.47331879e-06
154             	4.28985990e-02	5.15280690e-04	8.71219777e+00	9.58736270e-06
155             	4.31548641e-02	5.07342769e-04	8.51283587e+00	9.70186985e-06
156             	4.34100406e-02	4.99567940e-04	8.31882912e+00	9.81684572e-06
157             	4.36641778e-02	4.91952322e-04	8.13424424e+00	9.93229585e-06
158             	4.39173192e-02	4.84492146e-04	7.95497463e+00	1.00482258e-05
159             	4.41693516e-02	4.77183748e-04	7.78032569e+00	1.01646412e-05
160             	4.44199545e-02	4.70023568e-04	7.61016410e+00	1.02815476e-05
161             	4.46691330e-02	4.63008141e-04	7.44436086e+00	1.03989503e-05
162             	4.49169992e-02	4.56134102e-04	7.28279111e+00	1.05168546e-05
163             	4.51635992e-02	4.49398173e-04	7.12533394e+00	1.06352657e-05
164             	4.54088460e-02	4.42797168e-04	6.97187227e+00	1.07541885e-05
165             	4.56526701e-02	4.36327985e-04	6.82229269e+00	1.08736276e-05
166             	4.58950800e-02	4.29987603e-04	6.67648534e+00	1.09935877e-05
167             	4.61361833e-02	4.23773082e-04	6.53434380e+00	1.11140728e-05
168             	4.63760242e-02	4.17681561e-04	6.39576494e+00	1.12350869e-05
169             	4.66146300e-02	4.11710252e-04	6.26064887e+00	1.13566337e-05
170             	4.68513471e-02	4.05856438e-04	6.12889875e+00	1.14787165e-05
171             	4.70865735e-02	4.00117475e-04	6.00042075e+00	1.16013384e-05
172             	4.73204543e-02	3.94490784e-04	5.87512390e+00	1.17245023e-05
173             	4.75530410e-02	3.88973855e-04	5.75292005e+00	1.18482106e-05
174             	4.77844524e-02	3.83564240e-04	5.63372372e+00	1.19724655e-05
175             	4.80144084e-02	3.78259552e-04	5.51745205e+00	1.20972689e-05
176             	4.82429529e-02	3.73057466e-04	5.40402469e+00	1.22226224e-05
177             	4.84701331e-02	3.67955716e-04	5.29336373e+00	1.23485275e-05
178             	4.86957982e-02	3.62952089e-04	5.18539360e+00	1.24749852e-05
179             	4.89202341e-02	3.58044431e-04	5.08004102e+00	1.26019964e-05
180             	4.91435941e-02	3.53230639e-04	4.97723491e+00	1.27295617e-05
181             	4.93659775e-02	3.48508664e-04	4.87690630e+00	1.28576815e-05
182             	4.95872974e-02	3.43876504e-04	4.77898832e+00	1.29863559e-05
183             	4.98075417e-02	3.39332210e-04	4.68341604e+00	1.31155849e-05
184             	5.00266926e-02	3.34873878e-04	4.59012650e+00	1.32453682e-05
185             	5.02447742e-02	3.30499651e-04	4.49905858e+00	1.33757055e-05
186             	5.04619844e-02	3.26255322e-04	4.41015297e+00	1.35065962e-05
187             	5.06784203e-02	3.22098449e-04	4.32335212e+00	1.36380395e-05
188             	5.08942105e-02	3.18016923e-04	4.23860014e+00	1.37700346e-05
189             	5.11087803e-02	3.14009200e-04	4.15584280e+00	1.39025804e-05
190             	5.13224053e-02	3.10073771e-04	4.07502745e+00	1.40356758e-05
191             	5.15350483e-02	3.06209162e-04	3.99610296e+00	1.41693196e-05
192             	5.17464699e-02	3.02413929e-04	3.91901965e+00	1.43035104e-05
193             	5.19566306e-02	2.98686663e-04	3.84372935e+00	1.44382468e-05
194             	5.21653986e-02	2.95025986e-04	3.77018525e+00	1.45735273e-05
195             	5.23726439e-02	2.91430550e-04	3.69834189e+00	1.47093502e-05
196             	5.25783366e-02	2.87899039e-04	3.62815511e+00	1.48457139e-05
197             	5.27825934e-02	2.84430164e-04	3.55958203e+00	1.49826167e-05
198             	5.29854882e-02	2.81022667e-04	3.49258099e+00	1.51200568e-05
199             	5.31870567e-02	2.77675317e-04	3.42711151e+00	1.52580324e-05
200             	5.33873645e-02	2.74386911e-04	3.36313427e+00	1.53965416e-05
201             	5.35864358e-02	2.71156271e-04	3.30061104e+00	1.55355825e-05
202             	5.37840304e-02	2.67982247e-04	3.23950469e+00	1.56751531e-05
203             	5.39801862e-02	2.64863713e-04	3.17977913e+00	1.58152516e-05
204             	5.41750318e-02	2.61799568e-04	3.12139928e+00	1.59558759e-05
205             	5.43684246e-02	2.58788735e-04	3.06433105e+00	1.60970241e-05
206             	5.45602676e-02	2.55830162e-04	3.00854130e+00	1.62386940e-05
207             	5.47504532e-02	2.52922817e-04	2.95399782e+00	1.63808837e-05
208             	5.49386242e-02	2.50065694e-04	2.90066928e+00	1.65235910e-05
209             	5.51247029e-02	2.47257807e-04	2.84852522e+00	1.66668140e-05
210             	5.53091076e-02	2.44498190e-04	2.79753605e+00	1.68105506e-05
211             	5.54920768e-02	2.41785901e-04	2.74767296e+00	1.69547986e-05
212             	5.56736952e-02	2.39120017e-04	2.69890796e+00	1.70995559e-05
213             	5.58541017e-02	2.36499636e-04	2.65121381e+00	1.72448206e-05
214             	5.60336685e-02	2.33923873e-04	2.60456402e+00	1.73905904e-05
215             	5.62123917e-02	2.31391865e-04	2.55893284e+00	1.75368633e-05
216             	5.63903590e-02	2.28902765e-04	2.51429520e+00	1.76836372e-05
217             	5.65677420e-02	2.26455745e-04	2.47062672e+00	1.78309100e-05
218             	5.67444728e-02	2.24049997e-04	2.42790367e+00	1.79786795e-05
219             	5.69202531e-02	2.21684726e-04	2.38610299e+00	1.81269436e-05
220             	5.70947833e-02	2.19359158e-04	2.34520222e+00	1.82757004e-05
221             	5.72679974e-02	2.17072532e-04	2.30517949e+00	1.84249475e-05
222             	5.74398713e-02	2.14824107e-04	2.26601355e+00	1.85746830e-05
223             	5.76105057e-02	2.12613154e-04	2.22768370e+00	1.87249047e-05
224             	5.77799546e-02	2.10438962e-04	2.19016979e+00	1.88756106e-05
225             	5.79486649e-02	2.08300834e-04	2.15345221e+00	1.90267985e-05
226             	5.81168314e-02	2.06198087e-04	2.11751189e+00	1.91784663e-05
227             	5.82846485e-02	2.04130053e-04	2.08233023e+00	1.93306121e-05
228             	5.84520133e-02	2.02096079e-04	2.04788914e+00	1.94832336e-05
229             	5.86188829e-02	2.00095525e-04	2.01417102e+00	1.96363288e-05
230             	5.87851210e-02	1.98127765e-04	1.98115871e+00	1.97898956e-05
231             	5.89501773e-02	1.96192183e-04	1.94883551e+00	1.99439319e-05
232             	5.91139712e-02	1.94288180e-04	1.91718516e+00	2.00984356e-05
233             	5.92765749e-02	1.92415168e-04	1.88619183e+00	2.02534047e-05
234             	5.94381257e-02	1.90572570e-04	1.85584008e+00	2.04088370e-05
235             	5.95986438e-02	1.88759823e-04	1.82611488e+00	2.05647304e-05
236             	5.97581472e-02	1.86976373e-04	1.79714917e+00	2.07210829e-05
237             	5.99164754e-02	1.85221680e-04	1.76896969e+00	2.08778924e-05
238             	6.00736617e-02	1.83495214e-04	1.74135468e+00	2.10351569e-05
239             	6.02297956e-02	1.81796456e-04	1.71429137e+00	2.11928743e-05
240             	6.03852017e-02	1.80124898e-04	1.68776732e+00	2.13510424e-05
241             	6.05399123e-02	1.78480041e-04	1.66177040e+00	2.15096594e-05
242             	6.06938657e-02	1.76861398e-04	1.63628878e+00	2.16687230e-05
243             	6.08469847e-02	1.75268492e-04	1.61131093e+00	2.18282313e-05
244             	6.09992139e-02	1.73700854e-04	1.58682561e+00	2.19881821e-05
245             	6.11498300e-02	1.72158026e-04	1.56282186e+00	2.21485736e-05
246             	6.12988469e-02	1.70639559e-04	1.53928897e+00	2.23094036e-05
247             	6.14462600e-02	1.69145012e-04	1.51621650e+00	2.24706700e-05
248             	6.15924454e-02	1.67673955e-04	1.49359429e+00	2.26323710e-05
249             	6.17376089e-02	1.66225965e-04	1.47141240e+00	2.27945043e-05
250             	6.18818607e-02	1.64800629e-04	1.44966114e+00	2.29570681e-05
251             	6.20252549e-02	1.63397539e-04	1.42833106e+00	2.31200603e-05
252             	6.21678694e-02	1.62016300e-04	1.40741293e+00	2.32834789e-05
253             	6.23096835e-02	1.60656522e-04	1.38689777e+00	2.34473219e-05
254             	6.24505620e-02	1.59317822e-04	1.36677678e+00	2.36115873e-05
255             	6.25899389e-02	1.57999827e-04	1.34704139e+00	2.37762731e-05
256             	6.27278400e-02	1.56702171e-04	1.32768324e+00	2.39413773e-05
257             	6.28644737e-02	1.55428626e-04	1.30869417e+00	2.41068979e-05
258             	6.30000208e-02	1.54190431e-04	1.29006621e+00	2.42728330e-05
259             	6.31344811e-02	1.52971525e-04	1.27179159e+00	2.44391805e-05
260             	6.32681535e-02	1.51771563e-04	1.25386270e+00	2.46059385e-05
261             	6.34010958e-02	1.50590207e-04	1.23627215e+00	2.47731050e-05
262             	6.35332909e-02	1.49427123e-04	1.21901269e+00	2.49406781e-05
263             	6.36647239e-02	1.49357803e-04	1.20207726e+00	2.51086559e-05
264             	6.37953264e-02	1.49360064e-04	1.18545897e+00	2.52770363e-05
265             	6.39251874e-02	1.49362309e-04	1.16915107e+00	2.54458174e-05
266             	6.40543384e-02	1.49364539e-04	1.15314692e+00	2.56149973e-05
267             	6.41827931e-02	1.49366752e-04	1.13743996e+00	2.57845740e-05
268             	6.43105140e-02	1.49368951e-04	1.12202366e+00	2.59545457e-05
269             	6.44374980e-02	1.49371134e-04	1.10689146e+00	2.61249104e-05
270             	6.45637794e-02	1.49373303e-04	1.09203682e+00	2.62956662e-05
271             	6.46892945e-02	1.49375456e-04	1.07745315e+00	2.64668112e-05
272             	6.48140001e-02	1.49377595e-04	1.06313383e+00	2.66383435e-05
273             	6.49379111e-02	1.49379719e-04	1.04907225e+00	2.68102611e-05
274             	6.50610712e-02	1.49381828e-04	1.03526178e+00	2.69825623e-05
275             	6.51833855e-02	1.49383924e-04	1.02169582e+00	2.71552450e-05
276             	6.53048439e-02	1.49386005e-04	1.00836778e+00	2.73283075e-05
277             	6.54254677e-02	1.49388072e-04	9.95271092e-01	2.75017478e-05
278             	6.55452751e-02	1.49390125e-04	9.82399226e-01	2.76755641e-05
279             	6.56643701e-02	1.49392164e-04	9.69745692e-01	2.78497546e-05
280             	6.57825795e-02	1.49394190e-04	9.57304037e-01	2.80243173e-05
281             	6.58999610e-02	1.49396203e-04	9.45067843e-01	2.81992504e-05
282             	6.60166073e-02	1.49398202e-04	9.33030725e-01	2.83745521e-05
283             	6.61325148e-02	1.49400188e-04	9.21186326e-01	2.85502206e-05
284             	6.62476827e-02	1.49402161e-04	9.09528303e-01	2.87262539e-05
285             	6.63620993e-02	1.49404121e-04	8.98050319e-01	2.89026503e-05
286             	6.64757876e-02	1.49406068e-04	8.86746031e-01	2.90794081e-05
287             	6.65887623e-02	1.49408002e-04	8.75609068e-01	2.92565252e-05
288             	6.67010235e-02	1.49409924e-04	8.64633015e-01	2.94340000e-05
289             	6.68126047e-02	1.49411833e-04	8.53811386e-01	2.96118307e-05
290             	6.69235137e-02	1.49413730e-04	8.43137599e-01	2.97900154e-05
291             	6.70337327e-02	1.49415615e-04	8.32604936e-01	2.99685524e-05
292             	6.71432481e-02	1.49417488e-04	8.22206510e-01	3.01474399e-05
293             	6.72520382e-02	1.49419349e-04	8.11935209e-01	3.03266760e-05
294             	6.73601131e-02	1.49421198e-04	8.01783643e-01	3.05062592e-05
295             	6.74674899e-02	1.49423035e-04	7.91744067e-01	3.06861875e-05
296             	6.75741336e-02	1.49424861e-04	7.81808300e-01	3.08664593e-05
297             	6.76799851e-02	1.49426675e-04	7.71967616e-01	3.10470727e-05
298             	6.77850993e-02	1.49428478e-04	7.62212607e-01	3.12280261e-05
299             	6.78895091e-02	1.49430269e-04	7.52533029e-01	3.14093177e-05
300             	6.79932232e-02	1.49432049e-04	7.42917593e-01	3.15909457e-05
301             	6.80961319e-02	1.49433818e-04	7.33353717e-01	3.17729086e-05
302             	6.81982109e-02	1.49435577e-04	7.23827231e-01	3.19552044e-05
303             	6.82995141e-02	1.49437324e-04	7.14322020e-01	3.21378316e-05
304             	6.84000797e-02	1.49439060e-04	7.04819639e-01	3.23207884e-05
305             	6.84999309e-02	1.49440786e-04	6.95299039e-01	3.25040732e-05
306             	6.85991137e-02	1.49442501e-04	6.85737126e-01	3.26876842e-05
307             	6.86976251e-02	1.49444206e-04	6.76111186e-01	3.28716198e-05
308             	6.87954414e-02	1.49445900e-04	6.66402270e-01	3.30558782e-05
309             	6.88925596e-02	1.49447584e-04	6.56598114e-01	3.32404579e-05
310             	6.89890054e-02	1.49449258e-04	6.46694737e-01	3.34253571e-05
311             	6.90847999e-02	1.49450922e-04	6.36744622e-01	3.36105742e-05
312             	6.91797827e-02	1.49452575e-04	6.27688877e-01	3.37961076e-05
313             	6.92740180e-02	1.49454219e-04	6.18586591e-01	3.39819556e-05
314             	6.93676139e-02	1.49455853e-04	6.09444448e-01	3.41681165e-05
315             	6.94606345e-02	1.49457477e-04	6.00272337e-01	3.43545888e-05
316             	6.95530241e-02	1.49459092e-04	5.91082460e-01	3.45413708e-05
317             	6.96447746e-02	1.49460696e-04	5.81888507e-01	3.47284608e-05
318             	6.97359021e-02	1.49462292e-04	5.72704916e-01	3.49158574e-05
319             	6.98264283e-02	1.49463878e-04	5.63546264e-01	3.51035589e-05
320             	6.99163650e-02	1.49465454e-04	5.54426793e-01	3.52915636e-05
321             	7.00057198e-02	1.49467022e-04	5.45360000e-01	3.54798700e-05
322             	7.00944981e-02	1.49468580e-04	5.36358509e-01	3.56684766e-05
323             	7.01827003e-02	1.49470129e-04	5.27433860e-01	3.58573817e-05
324             	7.02703230e-02	1.49471669e-04	5.18596417e-01	3.60465837e-05
325             	7.03574095e-02	1.49473201e-04	5.09855347e-01	3.62360812e-05
326             	7.04439795e-02	1.49474723e-04	5.01218633e-01	3.64258725e-05
327             	7.05299932e-02	1.49476237e-04	4.92693126e-01	3.66159561e-05
328             	7.06154374e-02	1.49477741e-04	4.84857700e-01	3.68063304e-05
329             	7.07003291e-02	1.49479238e-04	4.77157628e-01	3.69969940e-05
330             	7.07846706e-02	1.49480725e-04	4.69544656e-01	3.71879452e-05
331             	7.08684619e-02	1.49482205e-04	4.62023032e-01	3.73791826e-05
332             	7.09517039e-02	1.49483676e-04	4.54596441e-01	3.75707046e-05
333             	7.10343961e-02	1.49485138e-04	4.47268026e-01	3.77625098e-05
334             	7.11165432e-02	1.49486592e-04	4.40040417e-01	3.79545965e-05
335             	7.11982034e-02	1.49488038e-04	4.32915770e-01	3.81469635e-05
336             	7.12793512e-02	1.49489476e-04	4.25895803e-01	3.83396090e-05
337             	7.13599718e-02	1.49490906e-04	4.18981836e-01	3.85325317e-05
338             	7.14400478e-02	1.49492328e-04	4.12174827e-01	3.87257300e-05
339             	7.15195810e-02	1.49493742e-04	4.05475405e-01	3.89192026e-05
340             	7.15985801e-02	1.49495148e-04	3.98883911e-01	3.91129479e-05
341             	7.16770524e-02	1.49496547e-04	3.92400417e-01	3.93069645e-05
342             	7.17549977e-02	1.49497937e-04	3.86024748e-01	3.95012508e-05
343             	7.18323711e-02	1.49499320e-04	3.79756552e-01	3.96958056e-05
344             	7.19092017e-02	1.49500695e-04	3.73595293e-01	3.98906273e-05
345             	7.19855186e-02	1.49502063e-04	3.67540275e-01	4.00857145e-05
346             	7.20613293e-02	1.49503424e-04	3.61590660e-01	4.02810658e-05
347             	7.21366370e-02	1.49504776e-04	3.55745491e-01	4.04766797e-05
348             	7.22114428e-02	1.49506122e-04	3.50003706e-01	4.06725549e-05
349             	7.22857549e-02	1.49507460e-04	3.44364152e-01	4.08686899e-05
350             	7.23595700e-02	1.49508791e-04	3.38825601e-01	4.10650834e-05
351             	7.24328845e-02	1.49510115e-04	3.33386762e-01	4.12617339e-05
352             	7.25057050e-02	1.49511432e-04	3.28046290e-01	4.14586400e-05
353             	7.25780347e-02	1.49512742e-04	3.22802795e-01	4.16558004e-05
354             	7.26498886e-02	1.49514044e-04	3.17654854e-01	4.18532137e-05
355             	7.27212691e-02	1.49515340e-04	3.12601014e-01	4.20508785e-05
356             	7.27921664e-02	1.49516629e-04	3.07639802e-01	4.22487935e-05
357             	7.28626546e-02	1.49517911e-04	3.02769731e-01	4.24469573e-05
358             	7.29326549e-02	1.49519186e-04	2.98030863e-01	4.26453686e-05
359             	7.30021097e-02	1.49520455e-04	2.93475573e-01	4.28440259e-05
360             	7.30709732e-02	1.49521717e-04	2.88998234e-01	4.30429280e-05
361             	7.31393861e-02	1.49522972e-04	2.84597789e-01	4.32420736e-05
362             	7.32073864e-02	1.49524220e-04	2.80273176e-01	4.34414613e-05
363             	7.32749909e-02	1.49525463e-04	2.76023323e-01	4.36410898e-05
364             	7.33421939e-02	1.49526698e-04	2.71847148e-01	4.38409577e-05
365             	7.34089844e-02	1.49527927e-04	2.67743562e-01	4.40410639e-05
366             	7.34753570e-02	1.49529150e-04	2.63711468e-01	4.42414069e-05
367             	7.35413096e-02	1.49530367e-04	2.59749769e-01	4.44419855e-05
368             	7.36068450e-02	1.49531577e-04	2.55857362e-01	4.46427984e-05
369             	7.36719562e-02	1.49532781e-04	2.52033149e-01	4.48438443e-05
370             	7.37366502e-02	1.49533979e-04	2.48276032e-01	4.50451219e-05
371             	7.38009295e-02	1.49535171e-04	2.44584916e-01	4.52466300e-05
372             	7.38647952e-02	1.49536357e-04	2.40958714e-01	4.54483673e-05
373             	7.39282655e-02	1.49537536e-04	2.37396343e-01	4.56503326e-05
374             	7.39913339e-02	1.49538710e-04	2.33896729e-01	4.58525245e-05
375             	7.40539988e-02	1.49539878e-04	2.30458805e-01	4.60549419e-05
376             	7.41162565e-02	1.49541039e-04	2.27081517e-01	4.62575835e-05
377             	7.41781047e-02	1.49542195e-04	2.23763817e-01	4.64604480e-05
378             	7.42395504e-02	1.49543345e-04	2.20504672e-01	4.66635343e-05
379             	7.43005974e-02	1.49544490e-04	2.17303056e-01	4.68668411e-05
380             	7.43612453e-02	1.49545629e-04	2.14157961e-01	4.70703672e-05
381             	7.44214935e-02	1.49546762e-04	2.11068385e-01	4.72741115e-05
382             	7.44813489e-02	1.49547889e-04	2.08033344e-01	4.74780725e-05
383             	7.45408058e-02	1.49549011e-04	2.05051865e-01	4.76822493e-05
384             	7.45998639e-02	1.49550127e-04	2.02122987e-01	4.78866406e-05
385             	7.46585213e-02	1.49551238e-04	1.99245767e-01	4.80912452e-05
386             	7.47167717e-02	1.49552343e-04	1.96419271e-01	4.82960619e-05
387             	7.47746113e-02	1.49553443e-04	1.93642581e-01	4.85010896e-05