/*--------------------------------*- C++ -*----------------------------------*\
| =========                 |                                                 |
| \\      /  F ield         | OpenFOAM: The Open Source CFD Toolbox           |
|  \\    /   O peration     | Version:  2206                                  |
|   \\  /    A nd           | Website:  www.openfoam.com                      |
|    \\/     M anipulation  |                                                 |
\*---------------------------------------------------------------------------*/
FoamFile
{
    version     2.0;
    format      ascii;
    arch        "LSB;label=32;scalar=64";
    class       volScalarField;
    location    "300";
    object      epsilon;
}
// * * * * * * * * * * * * * * * * * * * * * * * * * * * * * * * * * * * * * //

dimensions      [0 2 -3 0 0 0 0];

internalField   nonuniform List<scalar> 
7480
(
5.7698965
15.514481
18.077695
15.971682
12.843836
10.34013
8.6514316
7.4982181
6.6515958
5.9876544
5.4492249
5.0079778
4.6451313
4.3455996
4.0970401
3.8891694
3.7144136
3.5670258
3.4416338
3.3345187
3.2416961
3.1601603
3.0874875
3.0219236
2.9622664
2.9075
2.8569428
2.8099129
2.7658064
2.7241347
2.6846178
2.647053
2.6112295
2.5769711
2.5440764
2.5124754
2.4818734
2.4522358
2.4234901
2.3955322
2.3682857
2.3416861
2.3156833
2.2902462
2.2653315
2.2409158
2.2169636
2.1934349
2.1703075
2.1475598
2.1251735
2.1031377
2.0814381
2.0600657
2.0390073
2.0182529
1.9977946
1.9776195
1.9577171
1.9380808
1.9187099
1.8996025
1.8807526
1.8621526
1.8437913
1.8256523
1.8077129
1.78995
1.772343
1.754873
1.7375216
1.7202698
1.7030972
1.6859776
1.6688758
1.6517469
1.6345339
1.6171666
1.5995597
1.5816134
1.5632135
1.5442345
1.5245436
1.5040077
1.4825043
1.4599309
1.4362216
1.4113585
1.3853989
1.3584751
1.3308416
1.3028483
1.274955
1.2475245
1.2211605
1.1956126
1.1720007
1.1475821
1.1285599
1.0974638
0.34521447
1.5969603
2.8383452
3.2958513
3.1706505
2.8615525
2.5596231
2.3143671
2.1150953
1.9446955
1.7961828
1.6678142
1.558226
1.4652506
1.3864238
1.319038
1.2613055
1.2118636
1.1693896
1.1325803
1.1003366
1.071743
1.0460648
1.0227657
1.0014828
0.98190014
0.96380442
0.94695223
0.93113704
0.91619958
0.90204493
0.88860211
0.87579835
0.86356944
0.85183857
0.84058808
0.82970275
0.81917696
0.80898737
0.79909476
0.78946869
0.78008737
0.77093301
0.76199206
0.75324896
0.74469483
0.73631547
0.72809696
0.72002986
0.71210664
0.70432091
0.69666734
0.6891408
0.68173701
0.67445106
0.66727926
0.66021795
0.65326249
0.64640856
0.63965386
0.63299766
0.62643899
0.61997548
0.61360421
0.60732116
0.60112038
0.59499378
0.58893331
0.58293174
0.57698246
0.5710791
0.56521509
0.55938345
0.55357517
0.54777823
0.5419772
0.53615262
0.53028037
0.52433125
0.51827092
0.51206007
0.50565532
0.49901066
0.49207992
0.4848203
0.47719654
0.46918666
0.4607876
0.45202388
0.44295063
0.43366348
0.42429043
0.41498817
0.40589037
0.39716508
0.38878733
0.38098699
0.37315568
0.366758
0.35658185
0.010315288
0.062955878
0.1628797
0.28079815
0.3842914
0.47536752
0.55899855
0.63045027
0.68597806
0.72703979
0.75528542
0.7714812
0.77697481
0.77402498
0.76522422
0.75296301
0.73890314
0.7240321
0.70893782
0.69394106
0.67924612
0.66498123
0.65120038
0.63795539
0.62528469
0.61317254
0.6016705
0.59070414
0.58022316
0.57018683
0.56058073
0.55138498
0.54257279
0.53411753
0.52597979
0.51815994
0.51058953
0.50327616
0.49620551
0.48935432
0.48270443
0.47624278
0.46995834
0.46384109
0.45788026
0.45206923
0.44639741
0.44085557
0.43543656
0.43013458
0.42494466
0.4198618
0.41488155
0.40999978
0.40521227
0.40051568
0.39590643
0.39138071
0.38693498
0.382567
0.3782753
0.37405823
0.36991351
0.36583859
0.36183039
0.35788469
0.35399614
0.35015948
0.34636991
0.34262297
0.33891433
0.33523955
0.33159395
0.32797165
0.32436506
0.32076465
0.31715852
0.31353204
0.30986755
0.30614425
0.30233833
0.29842333
0.29437102
0.29015272
0.28574141
0.28111445
0.27625719
0.27116733
0.26586018
0.26037253
0.25476645
0.24912449
0.24354327
0.23811078
0.23291235
0.22796173
0.2233258
0.21878862
0.21494063
0.20891372
0.00039198726
0.0025105773
0.0089189298
0.018843974
0.031568076
0.046708052
0.066404897
0.090755665
0.12627971
0.17001637
0.21706019
0.26274132
0.30570903
0.34496066
0.37925268
0.40748918
0.42920618
0.44469215
0.45480449
0.46058912
0.46302125
0.46288983
0.46081036
0.45726968
0.45267053
0.4473154
0.44146646
0.43530499
0.42895606
0.42251894
0.41606932
0.4096643
0.40334346
0.3971359
0.39104932
0.38511286
0.37928375
0.37360301
0.3680638
0.36266347
0.35739882
0.352267
0.34726504
0.34238951
0.33763558
0.33300061
0.32847835
0.32406391
0.31975306
0.3155421
0.31142772
0.30740627
0.30347448
0.29962905
0.29586653
0.2921841
0.28857866
0.2850471
0.28158647
0.27819471
0.27487014
0.271611
0.26841518
0.26528036
0.26220387
0.25918227
0.25621143
0.2532873
0.25040617
0.24756451
0.24475895
0.24198598
0.23924188
0.23652211
0.23382093
0.2311313
0.22844452
0.22574997
0.22303491
0.22028436
0.21748112
0.21460601
0.21163842
0.20855722
0.20534227
0.2019765
0.1984487
0.19475721
0.19091386
0.1869476
0.18290586
0.17885089
0.1748529
0.17097727
0.16727656
0.16377198
0.16047878
0.157309
0.15455683
0.15027845
5.4700765e-05
0.00015495219
0.00053080297
0.0013933907
0.0028441473
0.0047930728
0.0072569634
0.010430653
0.014943167
0.021673518
0.031278849
0.046191623
0.066471408
0.090935997
0.11823449
0.14720924
0.17696695
0.20633437
0.23388295
0.25827356
0.27865687
0.29481724
0.30704524
0.31587775
0.32189068
0.32559092
0.32742401
0.32777384
0.32696446
0.32525733
0.32286008
0.31994045
0.31663226
0.31304166
0.30924846
0.30533074
0.30131273
0.29724732
0.29316706
0.28909375
0.28504465
0.2810343
0.27707388
0.27317174
0.26933326
0.26556449
0.2618661
0.25823895
0.25468346
0.25119999
0.24778869
0.24444892
0.2411798
0.23798013
0.23484835
0.23178305
0.22878246
0.22584468
0.22296772
0.2201502
0.21739094
0.21468866
0.21204176
0.20944844
0.20690654
0.20441328
0.20196541
0.19955974
0.19719334
0.19486341
0.19256729
0.19030218
0.18806508
0.18585231
0.1836593
0.18148045
0.17930891
0.17713634
0.17495277
0.17274651
0.17050409
0.16821044
0.1658493
0.16340387
0.16085806
0.15819821
0.15541551
0.15250911
0.14948936
0.14638079
0.14322212
0.1400632
0.13695818
0.13395758
0.1310965
0.12839602
0.1258518
0.1234286
0.12129708
0.11798113
3.457231e-05
4.3928292e-05
7.453159e-05
0.00014758552
0.00029080443
0.00052970076
0.0008873485
0.0013841464
0.002052971
0.0029679177
0.0042280791
0.0060984521
0.0089010901
0.012961858
0.019143278
0.028463979
0.040970313
0.056680918
0.075105247
0.09570323
0.11774471
0.14018121
0.16174802
0.18130168
0.19811598
0.21195935
0.22297329
0.23147619
0.23782186
0.24234137
0.24533514
0.24707339
0.24779012
0.24768168
0.24690881
0.24561445
0.24389699
0.24184891
0.23954642
0.2370493
0.23440566
0.23165497
0.22882959
0.22595607
0.22305503
0.2201448
0.2172385
0.21434646
0.21147697
0.20863681
0.20583141
0.20306477
0.20034008
0.19765965
0.19502506
0.19243756
0.18989749
0.18740481
0.18495924
0.18256068
0.18020899
0.17790388
0.17564466
0.17343034
0.17125958
0.16913044
0.16704054
0.1649875
0.16296913
0.16098339
0.15902827
0.15710167
0.15520129
0.15332422
0.15146679
0.14962447
0.14779171
0.14596175
0.1441265
0.14227644
0.14040062
0.13848673
0.13652138
0.13449075
0.13238154
0.13018251
0.12788661
0.12549366
0.12301301
0.12046577
0.11788419
0.11530892
0.11278272
0.11034531
0.10802154
0.1058305
0.10376119
0.10180174
0.10006845
0.09735614
3.2291562e-05
3.4202142e-05
3.866352e-05
4.8379284e-05
6.6918669e-05
9.8380505e-05
0.00014777535
0.00022137034
0.00032694811
0.00047593413
0.00068271356
0.00097244765
0.0013846523
0.001968861
0.0028160821
0.0040933274
0.0059974238
0.0087570642
0.013081083
0.019580439
0.02852466
0.040112982
0.054031986
0.069927675
0.08714859
0.10475655
0.12170015
0.13710776
0.15048127
0.16169341
0.17085239
0.17816166
0.18384382
0.18811858
0.19119456
0.19326792
0.1945021
0.19503927
0.19500295
0.19449712
0.19360854
0.19240974
0.19096135
0.18931434
0.18751055
0.18558567
0.18356883
0.18148377
0.17935007
0.17718398
0.17499895
0.17280602
0.17061421
0.16843093
0.16626216
0.16411282
0.16198674
0.15988682
0.1578153
0.15577402
0.15376454
0.15178809
0.14984535
0.14793659
0.14606163
0.1442196
0.1424091
0.14062868
0.138877
0.13715281
0.13545492
0.13378198
0.1321324
0.13050403
0.12889408
0.12729895
0.12571414
0.12413417
0.1225524
0.12096099
0.11935087
0.11771179
0.11603257
0.11430163
0.11250777
0.11064163
0.10869746
0.10667547
0.10458392
0.10244076
0.10027267
0.098112794
0.095995119
0.09395126
0.091999817
0.090157961
0.088413897
0.086766177
0.085307618
0.08300623
3.1489176e-05
3.2432716e-05
3.372074e-05
3.5789967e-05
3.9369654e-05
4.5297341e-05
5.4493476e-05
6.8047608e-05
8.7307899e-05
0.00011416545
0.00015120954
0.00020228367
0.0002732565
0.00037245769
0.00051200563
0.00071222631
0.0010034708
0.0014226265
0.0020468235
0.0030009062
0.0044521894
0.0065962908
0.010084299
0.015312148
0.022588117
0.032033907
0.043444329
0.056451814
0.070415893
0.084489634
0.097847592
0.10990337
0.12038316
0.12925411
0.13660642
0.14257821
0.14732034
0.15098722
0.1537286
0.155681
0.15696516
0.15768667
0.15793684
0.15779436
0.15732609
0.15658929
0.15563258
0.15449678
0.15321619
0.15181972
0.1503316
0.14877227
0.14715882
0.14550557
0.14382458
0.14212588
0.14041789
0.13870752
0.13700043
0.13530136
0.13361433
0.13194269
0.13028912
0.12865554
0.12704328
0.1254529
0.12388431
0.12233718
0.12081117
0.11930597
0.1178213
0.11635668
0.11491136
0.11348403
0.11207277
0.1106749
0.10928694
0.10790449
0.1065222
0.10513361
0.10373123
0.10230651
0.10085009
0.099352186
0.097803364
0.096195725
0.094524492
0.092789923
0.090998993
0.089166476
0.087314002
0.085468207
0.083656096
0.081903124
0.080224132
0.078634919
0.077125655
0.075699403
0.074439864
0.072434514
3.0788329e-05
3.1521067e-05
3.2266392e-05
3.3063788e-05
3.4093158e-05
3.5594318e-05
3.7856083e-05
4.1180114e-05
4.5877327e-05
5.2311331e-05
6.0945045e-05
7.2415931e-05
8.7641819e-05
0.00010798396
0.00013538227
0.00017281613
0.0002249405
0.00029814032
0.00040263615
0.00055520298
0.00078244241
0.0011171115
0.0016349207
0.0024488079
0.0037060948
0.0056842938
0.008880652
0.013616066
0.020162728
0.028472799
0.038360386
0.049395634
0.060925856
0.072233806
0.082742655
0.092124184
0.10026862
0.10719328
0.1129724
0.11770598
0.12150676
0.12448919
0.12676118
0.12842144
0.1295584
0.13025032
0.1305658
0.13056423
0.13029673
0.12980714
0.12913289
0.12830597
0.12735364
0.12629904
0.12516195
0.12395905
0.12270463
0.12141073
0.12008754
0.11874365
0.11738636
0.11602193
0.11465557
0.11329149
0.11193298
0.11058241
0.10924134
0.10791085
0.1065918
0.10528505
0.10399137
0.10271131
0.10144508
0.10019235
0.098952133
0.097722734
0.096501674
0.095285633
0.094070403
0.092850829
0.091620801
0.09037328
0.08910047
0.087794182
0.086446469
0.085050649
0.083602631
0.082102458
0.080555583
0.078973596
0.077373413
0.075775952
0.074202509
0.072673846
0.071202643
0.06980396
0.068471166
0.067209112
0.066099148
0.064316274
3.0106021e-05
3.0708328e-05
3.1310183e-05
3.1854501e-05
3.2357954e-05
3.2911171e-05
3.36228e-05
3.4615666e-05
3.6004643e-05
3.7911994e-05
4.0468696e-05
4.3824239e-05
4.816564e-05
5.3747961e-05
6.092228e-05
7.0191742e-05
8.2310252e-05
9.8362122e-05
0.00011995846
0.00014958026
0.00019128453
0.00025063918
0.00033737482
0.00046800212
0.00066710583
0.00097467894
0.0014682243
0.0022632989
0.0035017377
0.0055845227
0.0088402903
0.013548306
0.019798144
0.027490064
0.036328328
0.045805298
0.055315795
0.064338891
0.072548977
0.079807029
0.086090341
0.091433618
0.095901171
0.099573974
0.10253864
0.10487993
0.10667763
0.10800488
0.10892727
0.10950296
0.10978292
0.10981167
0.10962784
0.10926479
0.10875136
0.10811229
0.1073689
0.10653955
0.10563994
0.10468352
0.10368179
0.10264466
0.1015806
0.10049671
0.099398779
0.098291443
0.097178298
0.096062162
0.09494544
0.093830337
0.092718893
0.09161287
0.090513609
0.089421884
0.088337791
0.087260685
0.086189152
0.085120965
0.084053063
0.082981518
0.081901525
0.080807439
0.079692907
0.078551177
0.077375625
0.076160606
0.074902514
0.073600969
0.072259758
0.07088731
0.069496145
0.068102106
0.066721756
0.065372253
0.06406515
0.062815296
0.061619718
0.060483851
0.05948978
0.057879842
2.9448267e-05
2.9942609e-05
3.0444887e-05
3.0902006e-05
3.1299567e-05
3.1653304e-05
3.1998937e-05
3.2383732e-05
3.2869335e-05
3.3513328e-05
3.4372931e-05
3.5507406e-05
3.6980465e-05
3.8865476e-05
4.1252349e-05
4.4250459e-05
4.8015066e-05
5.2761807e-05
5.8795231e-05
6.655253e-05
7.6710169e-05
9.0234987e-05
0.00010861418
0.00013428822
0.00017110227
0.00022504732
0.00030665682
0.00043425979
0.00063298601
0.0009573458
0.0014958054
0.0023639047
0.0038259846
0.0062101134
0.0097820309
0.014678016
0.020852188
0.028088043
0.035973524
0.043996935
0.051706862
0.058811149
0.065171947
0.070749364
0.075555302
0.079631315
0.083036408
0.085836676
0.088098768
0.089886808
0.091260433
0.092273985
0.092976229
0.0934104
0.093614632
0.09362228
0.09346251
0.093160745
0.092739071
0.092216611
0.091609892
0.090933249
0.090199086
0.089418009
0.088598928
0.087749224
0.086874943
0.085981051
0.085071811
0.084151069
0.08322236
0.082288854
0.08135322
0.080417501
0.079483015
0.078550297
0.077619087
0.076688311
0.075756084
0.074819698
0.073875626
0.072919558
0.071946509
0.070951075
0.069927852
0.068872112
0.067780599
0.066652398
0.06548957
0.064297495
0.063084619
0.061862268
0.060643028
0.059441241
0.058267968
0.057138226
0.056052746
0.055017086
0.054115319
0.052643744
2.8809834e-05
2.9218863e-05
2.9638509e-05
3.0028593e-05
3.037471e-05
3.0677433e-05
3.0946989e-05
3.1199352e-05
3.1455931e-05
3.1741678e-05
3.208423e-05
3.2513282e-05
3.3059988e-05
3.3756734e-05
3.4637834e-05
3.5747221e-05
3.7132728e-05
3.8853595e-05
4.0987348e-05
4.3637525e-05
4.695394e-05
5.113012e-05
5.6449083e-05
6.334367e-05
7.2476983e-05
8.485075e-05
0.00010205435
0.00012684504
0.00016330163
0.00021875879
0.00030663247
0.00044702103
0.00067901108
0.0010735078
0.0017285754
0.0028461399
0.0047206651
0.007597279
0.011614413
0.016752507
0.022833805
0.029503664
0.036324613
0.042916485
0.049033912
0.054555948
0.059439879
0.063686969
0.067325535
0.070399772
0.072960777
0.075061397
0.076753288
0.078085073
0.079101542
0.079843239
0.080346534
0.080643801
0.08076367
0.080731326
0.080568828
0.080295503
0.079928249
0.07948174
0.07896853
0.07839925
0.077782834
0.077126796
0.076437619
0.075721094
0.074982511
0.074226663
0.073457752
0.072679274
0.071893933
0.071103587
0.070309249
0.069511088
0.068708455
0.067899891
0.067083151
0.066255241
0.065412509
0.064550847
0.063666012
0.062754125
0.061812222
0.060838822
0.059834308
0.058801197
0.057744213
0.05667066
0.055589725
0.054513486
0.053452853
0.052423233
0.051428889
0.050475385
0.049649144
0.048291224
2.818539e-05
2.852763e-05
2.8880991e-05
2.9214967e-05
2.951745e-05
2.9786898e-05
3.0027558e-05
3.0246191e-05
3.0450327e-05
3.0648562e-05
3.0851347e-05
3.1071317e-05
3.1323176e-05
3.1623279e-05
3.1989178e-05
3.2440861e-05
3.3000052e-05
3.3690641e-05
3.4539905e-05
3.5580461e-05
3.6850717e-05
3.8414581e-05
4.0350559e-05
4.2761825e-05
4.5795828e-05
4.9669059e-05
5.4670069e-05
6.128511e-05
7.0243391e-05
8.2701237e-05
0.00010068374
0.00012738454
0.00016832849
0.00023399076
0.00034104483
0.00052088833
0.00083394243
0.0013664134
0.0022951406
0.0038784486
0.0063389514
0.0097930646
0.014226476
0.019472455
0.025208136
0.031056996
0.036708016
0.041966332
0.046734149
0.050973603
0.054682897
0.057883282
0.060609084
0.062900649
0.064800346
0.066349985
0.067589362
0.068555459
0.069282069
0.069799721
0.070135729
0.070314436
0.070357436
0.070283753
0.070109953
0.069850301
0.069517
0.069120483
0.068669796
0.068172982
0.067637345
0.067069533
0.066475481
0.065860329
0.065228341
0.064582856
0.063926293
0.063260177
0.062585176
0.061901136
0.061207124
0.060501465
0.059781833
0.059045394
0.05828904
0.057509722
0.056704771
0.055872192
0.055010835
0.054120621
0.053202925
0.052261487
0.051302532
0.050336224
0.049373457
0.048430102
0.04751366
0.046629738
0.045867032
0.044604884
2.7571833e-05
2.7861355e-05
2.8161781e-05
2.8449814e-05
2.8715147e-05
2.8955441e-05
2.9172993e-05
2.9371976e-05
2.9556433e-05
2.9729951e-05
2.989625e-05
3.0059779e-05
3.0226107e-05
3.0402064e-05
3.0595771e-05
3.0816759e-05
3.1075868e-05
3.1385171e-05
3.1758e-05
3.2209364e-05
3.2755373e-05
3.3417079e-05
3.4221006e-05
3.5199639e-05
3.6394246e-05
3.7857393e-05
3.9683875e-05
4.1990125e-05
4.494118e-05
4.8783943e-05
5.3875688e-05
6.079823e-05
7.0469907e-05
8.4509069e-05
0.00010556262
0.00013817253
0.00019122524
0.0002792659
0.00043035703
0.00069955179
0.0011657816
0.0020020556
0.0034343838
0.0056621256
0.008763607
0.012715075
0.01734106
0.02233996
0.027391352
0.032249733
0.03676766
0.04087064
0.044529102
0.047742262
0.050527675
0.05291309
0.054931279
0.0566168
0.058003926
0.059125451
0.060012006
0.060691781
0.061190414
0.061530977
0.061733973
0.061817398
0.061796913
0.061686103
0.061496837
0.061239668
0.060924142
0.060558964
0.060151995
0.059710195
0.059239556
0.058745056
0.058230666
0.057699386
0.0571533
0.056593632
0.056020804
0.055434492
0.054833697
0.054216861
0.053582014
0.052926953
0.052249364
0.051546869
0.05081701
0.050057446
0.049266611
0.048445099
0.04759651
0.046729294
0.0458543
0.044987819
0.044140225
0.043317249
0.04260959
0.041430255
2.6967682e-05
2.7215196e-05
2.7473037e-05
2.7723398e-05
2.7957581e-05
2.8172743e-05
2.8369878e-05
2.8551777e-05
2.872131e-05
2.8880813e-05
2.9032229e-05
2.9177403e-05
2.931836e-05
2.9457529e-05
2.9597977e-05
2.9743599e-05
2.9899154e-05
3.007031e-05
3.0263669e-05
3.0486834e-05
3.0748247e-05
3.105753e-05
3.1426075e-05
3.1867379e-05
3.2397686e-05
3.3035605e-05
3.3808674e-05
3.47526e-05
3.5914525e-05
3.7352451e-05
3.9179841e-05
4.1537293e-05
4.4628258e-05
4.8771042e-05
5.4449106e-05
6.2444275e-05
7.4161935e-05
9.1935149e-05
0.0001198436
0.00016608848
0.00024411096
0.00038157603
0.0006321241
0.001071509
0.0018830747
0.0032638943
0.0053743255
0.0082654061
0.011881581
0.016027148
0.020422367
0.024804629
0.028989354
0.032869605
0.036391266
0.039534
0.042299822
0.044704453
0.046771269
0.048527523
0.050001848
0.051222703
0.052217396
0.053011508
0.053628526
0.054089637
0.054413705
0.054617394
0.05471544
0.05472101
0.054646027
0.054501384
0.054297003
0.0540418
0.053743637
0.053409269
0.053044356
0.052653496
0.052240293
0.051807428
0.051356739
0.050889284
0.050405418
0.049904868
0.049386823
0.048849978
0.048292476
0.047711744
0.047104311
0.046465969
0.045792648
0.045082194
0.044335847
0.043560436
0.042766623
0.041970966
0.041186308
0.040418583
0.039760126
0.038654343
2.6372504e-05
2.6586242e-05
2.6809545e-05
2.7028779e-05
2.7236711e-05
2.7430314e-05
2.7609657e-05
2.7776477e-05
2.7932828e-05
2.8080481e-05
2.8220879e-05
2.8355226e-05
2.8484583e-05
2.8609975e-05
2.873254e-05
2.885371e-05
2.8975283e-05
2.9099518e-05
2.9229238e-05
2.9367896e-05
2.9519594e-05
2.9689095e-05
2.9881942e-05
3.0104605e-05
3.0364719e-05
3.0671021e-05
3.1034246e-05
3.146787e-05
3.1989293e-05
3.2618647e-05
3.3387398e-05
3.4338172e-05
3.5526315e-05
3.703417e-05
3.9001166e-05
4.1609136e-05
4.5153063e-05
5.0067956e-05
5.706836e-05
6.7477398e-05
8.3484128e-05
0.00010908283
0.00015248981
0.00022687137
0.00036245101
0.00061241231
0.0010681829
0.0019098305
0.0033099229
0.005382962
0.0081495901
0.01151243
0.015257865
0.019136761
0.022945307
0.02655154
0.029880781
0.032896025
0.035585526
0.037954078
0.040016461
0.04179314
0.043307375
0.044583327
0.045644795
0.046514382
0.04721301
0.047759719
0.048171706
0.048464538
0.048652421
0.048748411
0.048764502
0.048711618
0.04859956
0.048436957
0.048231257
0.047988761
0.047714688
0.047413258
0.047087783
0.046740746
0.046373879
0.045988221
0.045584149
0.045161325
0.044718482
0.044253087
0.043761001
0.04323659
0.042673742
0.042067954
0.04141833
0.040730102
0.040013523
0.039285192
0.038559985
0.037844079
0.037231044
0.036192432
2.5786534e-05
2.5972876e-05
2.6167956e-05
2.6361285e-05
2.6546925e-05
2.67219e-05
2.6885686e-05
2.7039237e-05
2.7183948e-05
2.7321131e-05
2.7451914e-05
2.7577256e-05
2.7697961e-05
2.7814702e-05
2.7928088e-05
2.8038757e-05
2.814742e-05
2.8254922e-05
2.8362335e-05
2.8471023e-05
2.85827e-05
2.8699472e-05
2.8823886e-05
2.8958988e-05
2.9108416e-05
2.9276457e-05
2.9468172e-05
2.9689623e-05
2.9948332e-05
3.0253209e-05
3.0615671e-05
3.105095e-05
3.1578694e-05
3.2224629e-05
3.302821e-05
3.4043428e-05
3.534014e-05
3.7053769e-05
3.9358102e-05
4.2535908e-05
4.7014194e-05
5.3489524e-05
6.3313385e-05
7.864299e-05
0.00010385485
0.00014734955
0.00022440822
0.00036955934
0.00063758126
0.0011468775
0.0020636833
0.0035350682
0.0056258002
0.0083138786
0.011458119
0.014843776
0.018265156
0.021573939
0.024679305
0.027530902
0.030105722
0.032399264
0.034418767
0.036178548
0.037696817
0.038993491
0.04008873
0.041002037
0.041751803
0.042355164
0.042828073
0.043185401
0.043440996
0.043607658
0.04369707
0.043719729
0.043684906
0.043600659
0.043473887
0.043310408
0.043115062
0.042891792
0.042643733
0.042373257
0.042081964
0.04177056
0.04143852
0.041083602
0.040701381
0.040285268
0.039827599
0.039321929
0.038765445
0.038161765
0.037520483
0.036857946
0.036190605
0.035524876
0.034955133
0.033979631
2.5210415e-05
2.5374346e-05
2.5546196e-05
2.5717829e-05
2.5884418e-05
2.6043184e-05
2.6193256e-05
2.6335036e-05
2.6469409e-05
2.6597304e-05
2.6719577e-05
2.6836989e-05
2.6950199e-05
2.7059758e-05
2.7166134e-05
2.7269757e-05
2.7371028e-05
2.7470347e-05
2.756816e-05
2.7665e-05
2.7761529e-05
2.7858574e-05
2.795717e-05
2.8058605e-05
2.8164468e-05
2.82767e-05
2.8397658e-05
2.8530175e-05
2.8677708e-05
2.8844438e-05
2.9035439e-05
2.9257082e-05
2.9517477e-05
2.9826803e-05
3.0198729e-05
3.0652293e-05
3.1210766e-05
3.191211e-05
3.2809253e-05
3.3972897e-05
3.5530284e-05
3.7658298e-05
4.0650167e-05
4.493516e-05
5.1270869e-05
6.107122e-05
7.6730094e-05
0.00010342744
0.00015022349
0.00023693676
0.00040295123
0.00071577671
0.001316972
0.002354095
0.003927136
0.0060608858
0.0086773422
0.011605195
0.014650704
0.01765854
0.02052681
0.023195178
0.025631877
0.027824835
0.029774891
0.031490906
0.032986384
0.034277168
0.035379974
0.036311535
0.037088188
0.037725682
0.038239063
0.038642556
0.038949428
0.039171858
0.039320838
0.039406144
0.039436352
0.039418895
0.039360159
0.039265568
0.039139671
0.038986183
0.038807961
0.03860682
0.038383127
0.038135195
0.037858694
0.037546572
0.037190123
0.036781389
0.036315868
0.035795562
0.035229139
0.034632373
0.034022818
0.033407068
0.032879832
0.031965289
2.4645018e-05
2.4790465e-05
2.4943056e-05
2.5096415e-05
2.5246642e-05
2.539123e-05
2.5529135e-05
2.5660384e-05
2.5785484e-05
2.5905057e-05
2.6019726e-05
2.6130081e-05
2.6236649e-05
2.6339889e-05
2.6440196e-05
2.6537924e-05
2.6633386e-05
2.6726861e-05
2.6818615e-05
2.6908919e-05
2.6998068e-05
2.7086397e-05
2.7174309e-05
2.7262299e-05
2.7350991e-05
2.7441166e-05
2.7533812e-05
2.7630154e-05
2.7731715e-05
2.7840383e-05
2.7958473e-05
2.8088844e-05
2.8235073e-05
2.8401632e-05
2.8594164e-05
2.8820197e-05
2.9089192e-05
2.9414125e-05
2.9813481e-05
3.0310989e-05
3.0943813e-05
3.1765239e-05
3.2849717e-05
3.4326312e-05
3.6384846e-05
3.9339066e-05
4.3649325e-05
5.0215698e-05
6.0580005e-05
7.7750716e-05
0.00010791042
0.00016236823
0.00026797069
0.00046959816
0.00086741695
0.0016000879
0.0027863445
0.0044790836
0.006649051
0.0091683652
0.01186373
0.014580984
0.017212198
0.01969023
0.021976864
0.024054068
0.025917346
0.027570791
0.029023715
0.030288412
0.031378758
0.032309367
0.033095052
0.033750444
0.034289668
0.034726079
0.03507206
0.035338887
0.035536684
0.035674429
0.035760012
0.035800312
0.035801271
0.035767943
0.035704443
0.035613752
0.035497254
0.035354059
0.035180307
0.034968968
0.034710814
0.034396828
0.03402109
0.033584011
0.033093096
0.032563214
0.032012546
0.031447741
0.030963343
0.030109238
2.4091305e-05
2.4221387e-05
2.4357903e-05
2.449579e-05
2.4631905e-05
2.4764046e-05
2.4891112e-05
2.5012888e-05
2.5129603e-05
2.5241644e-05
2.5349444e-05
2.5453442e-05
2.5554055e-05
2.5651653e-05
2.5746567e-05
2.5839097e-05
2.5929508e-05
2.6018035e-05
2.6104888e-05
2.6190264e-05
2.6274349e-05
2.6357323e-05
2.6439372e-05
2.6520701e-05
2.6601546e-05
2.66822e-05
2.676303e-05
2.6844507e-05
2.6927234e-05
2.7011983e-05
2.7099732e-05
2.7191713e-05
2.7289483e-05
2.7395007e-05
2.7510752e-05
2.7639896e-05
2.7786509e-05
2.7955828e-05
2.8154988e-05
2.8393312e-05
2.8683737e-05
2.9044804e-05
2.9501217e-05
3.009144e-05
3.0871952e-05
3.1923152e-05
3.3385405e-05
3.5475314e-05
3.8536646e-05
4.3122327e-05
5.0322415e-05
6.1986803e-05
8.2250812e-05
0.00011851351
0.00018799237
0.00032438938
0.00059379508
0.0011177607
0.0020189186
0.0033675203
0.0051692404
0.0073349304
0.0097149
0.012161612
0.014565311
0.016854934
0.018987922
0.020941788
0.022707747
0.024285991
0.025682471
0.026906763
0.027970648
0.028887141
0.029669769
0.030332018
0.030886914
0.031346725
0.031722771
0.032025342
0.032263676
0.032446002
0.03257958
0.032670743
0.032724839
0.032746025
0.032736796
0.032697258
0.032624356
0.032511539
0.032349578
0.032128872
0.031842402
0.031489074
0.031075051
0.030613982
0.030124203
0.029612253
0.029171939
0.028379154
2.3550235e-05
2.3667453e-05
2.3790466e-05
2.3915188e-05
2.403909e-05
2.4160275e-05
2.4277661e-05
2.4390885e-05
2.4499983e-05
2.460516e-05
2.4706698e-05
2.4804913e-05
2.4900123e-05
2.4992622e-05
2.5082681e-05
2.517055e-05
2.5256456e-05
2.5340599e-05
2.5423162e-05
2.5504309e-05
2.558419e-05
2.5662938e-05
2.5740676e-05
2.5817516e-05
2.5893567e-05
2.5968946e-05
2.6043785e-05
2.6118248e-05
2.6192547e-05
2.6266956e-05
2.6341838e-05
2.6417667e-05
2.6495062e-05
2.6574825e-05
2.665799e-05
2.6745889e-05
2.6840247e-05
2.694328e-05
2.7057907e-05
2.7187973e-05
2.7338577e-05
2.7516778e-05
2.773205e-05
2.7997762e-05
2.8333391e-05
2.8765421e-05
2.9335696e-05
3.0107128e-05
3.117067e-05
3.2689571e-05
3.492061e-05
3.8253236e-05
4.3438184e-05
5.1769465e-05
6.5953685e-05
9.1375061e-05
0.00013912573
0.00023471416
0.00042256782
0.00080440947
0.001496614
0.0025822605
0.0040877477
0.0059549928
0.0080578205
0.010258925
0.012450203
0.014559088
0.016540425
0.018368642
0.02003184
0.021527389
0.02285887
0.024033937
0.025062801
0.025957104
0.026729092
0.027390996
0.027954615
0.028431038
0.028830502
0.029162331
0.029434927
0.029655765
0.029831332
0.029966922
0.030066165
0.030130301
0.030157351
0.030141651
0.03007446
0.029946086
0.02974878
0.029480111
0.029144796
0.028754999
0.028328763
0.027872308
0.027478067
0.026748707
2.3022705e-05
2.3129079e-05
2.3240679e-05
2.3354151e-05
2.3467454e-05
2.3578976e-05
2.3687704e-05
2.3793196e-05
2.3895354e-05
2.3994251e-05
2.409005e-05
2.4182964e-05
2.4273229e-05
2.4361072e-05
2.4446712e-05
2.4530354e-05
2.4612188e-05
2.4692385e-05
2.4771101e-05
2.4848481e-05
2.4924652e-05
2.4999727e-05
2.5073806e-05
2.5146972e-05
2.5219296e-05
2.529084e-05
2.5361663e-05
2.5431821e-05
2.5501382e-05
2.5570429e-05
2.5639074e-05
2.5707468e-05
2.577582e-05
2.5844413e-05
2.5913629e-05
2.598398e-05
2.6056145e-05
2.6131019e-05
2.6209782e-05
2.6294002e-05
2.6385751e-05
2.6487831e-05
2.6604026e-05
2.6739481e-05
2.6901478e-05
2.7099988e-05
2.7349388e-05
2.7671007e-05
2.8094518e-05
2.8667916e-05
2.9463815e-05
3.0593293e-05
3.2255539e-05
3.4754005e-05
3.8609713e-05
4.4804052e-05
5.5155125e-05
7.3746041e-05
0.00010805261
0.00017707101
0.00031459383
0.00059966154
0.0011402605
0.0020260228
0.0032960169
0.0049155053
0.0067792534
0.0087615805
0.010758387
0.012697518
0.01453277
0.016236869
0.017796061
0.019205979
0.020468658
0.021590359
0.022579964
0.0234478
0.024204788
0.024861854
0.025429541
0.025917774
0.026335736
0.026691783
0.026993343
0.027246711
0.0274566
0.027625426
0.027752466
0.027833263
0.027860012
0.027823405
0.027715384
0.027532429
0.027277811
0.026962017
0.026602389
0.02620461
0.025858999
0.025196225
2.2509505e-05
2.2606682e-05
2.2708584e-05
2.2812401e-05
2.2916483e-05
2.3019473e-05
2.3120451e-05
2.3218947e-05
2.3314776e-05
2.3407915e-05
2.3498435e-05
2.358647e-05
2.3672183e-05
2.3755747e-05
2.3837331e-05
2.3917103e-05
2.3995219e-05
2.4071824e-05
2.4147051e-05
2.4221024e-05
2.4293853e-05
2.4365637e-05
2.4436461e-05
2.4506395e-05
2.4575497e-05
2.4643811e-05
2.4711374e-05
2.4778211e-05
2.4844343e-05
2.4909791e-05
2.4974578e-05
2.5038736e-05
2.5102313e-05
2.5165381e-05
2.5228051e-05
2.529048e-05
2.5352896e-05
2.5415613e-05
2.5479065e-05
2.5543845e-05
2.5610753e-05
2.5680879e-05
2.5755709e-05
2.583726e-05
2.5928337e-05
2.6032816e-05
2.6156101e-05
2.6306008e-05
2.6493469e-05
2.6734689e-05
2.7053876e-05
2.7486316e-05
2.8090156e-05
2.8948302e-05
3.02131e-05
3.2128989e-05
3.5082473e-05
3.9839358e-05
4.7706671e-05
6.174263e-05
8.7572459e-05
0.0001392642
0.0002442105
0.00046346475
0.00089530756
0.0016301528
0.0027149094
0.0041315059
0.0057919841
0.0075821571
0.009403376
0.011185477
0.012882653
0.014467253
0.015924787
0.017249984
0.018443867
0.019511568
0.020460745
0.021300425
0.022040206
0.022689716
0.023258259
0.023754589
0.024186717
0.024561671
0.024885064
0.025160415
0.025388308
0.025565706
0.025686089
0.025740984
0.025722463
0.025626246
0.025454267
0.025215241
0.024925472
0.024589887
0.024295878
0.023703732
2.2011302e-05
2.2100633e-05
2.219425e-05
2.2289752e-05
2.2385793e-05
2.2481244e-05
2.2575286e-05
2.2667451e-05
2.2757507e-05
2.2845364e-05
2.2931024e-05
2.3014555e-05
2.3096065e-05
2.3175676e-05
2.325352e-05
2.3329727e-05
2.3404424e-05
2.3477733e-05
2.3549767e-05
2.3620629e-05
2.3690415e-05
2.375921e-05
2.3827088e-05
2.389411e-05
2.3960324e-05
2.4025769e-05
2.409047e-05
2.4154446e-05
2.4217703e-05
2.4280244e-05
2.4342065e-05
2.440316e-05
2.4463523e-05
2.4523153e-05
2.4582056e-05
2.4640254e-05
2.4697792e-05
2.4754747e-05
2.4811239e-05
2.4867451e-05
2.4923649e-05
2.4980211e-05
2.5037674e-05
2.5096786e-05
2.5158594e-05
2.5224569e-05
2.5296764e-05
2.5378106e-05
2.5472737e-05
2.5586592e-05
2.5728411e-05
2.591071e-05
2.615295e-05
2.6482675e-05
2.6945245e-05
2.7611718e-05
2.8591332e-05
3.0090098e-05
3.2415958e-05
3.6161463e-05
4.2355012e-05
5.3319232e-05
7.3562487e-05
0.00011379534
0.00019664904
0.0003709243
0.00072495612
0.0013467205
0.0022872657
0.003539622
0.0050291927
0.0066523156
0.0083166516
0.0099553538
0.011524279
0.012996484
0.014357544
0.015601805
0.016729558
0.01774494