/*--------------------------------*- C++ -*----------------------------------*\
| =========                 |                                                 |
| \\      /  F ield         | OpenFOAM: The Open Source CFD Toolbox           |
|  \\    /   O peration     | Version:  2206                                  |
|   \\  /    A nd           | Website:  www.openfoam.com                      |
|    \\/     M anipulation  |                                                 |
\*---------------------------------------------------------------------------*/
FoamFile
{
    version     2.0;
    format      ascii;
    arch        "LSB;label=32;scalar=64";
    class       volScalarField;
    location    "300";
    object      k;
}
// * * * * * * * * * * * * * * * * * * * * * * * * * * * * * * * * * * * * * //

dimensions      [0 2 -2 0 0 0 0];

internalField   nonuniform List<scalar> 
7480
(
0.032163848
0.062193818
0.068868042
0.063409774
0.05483433
0.047454085
0.042135485
0.038302597
0.035362332
0.032968207
0.03096093
0.029266156
0.027834885
0.026625061
0.025599863
0.024726469
0.023980106
0.023341484
0.022791213
0.022315836
0.021899758
0.021530985
0.021199616
0.020898424
0.020622467
0.020367498
0.020130701
0.019909166
0.019700276
0.019501894
0.019312834
0.019132251
0.018959241
0.018793049
0.018632777
0.018478156
0.018327805
0.018181603
0.018039236
0.01790023
0.01776424
0.017630976
0.017500212
0.01737182
0.017245603
0.017121464
0.016999244
0.016878755
0.016759902
0.016642587
0.016526732
0.016412293
0.016299209
0.016187446
0.016076946
0.01596767
0.015859585
0.015752635
0.015646773
0.015541974
0.015438243
0.01533558
0.015233963
0.015133363
0.015033731
0.014934989
0.014837023
0.014739716
0.01464296
0.014546655
0.014450703
0.014355002
0.014259444
0.014163887
0.014068139
0.013971949
0.013875
0.013776892
0.013677136
0.013575151
0.013470264
0.01336172
0.013248706
0.013130385
0.013005954
0.012874699
0.012736093
0.012589861
0.012436151
0.012275554
0.01210938
0.011939575
0.011768845
0.011599378
0.011435041
0.01127437
0.011124799
0.010968772
0.010846551
0.010645597
0.0025191038
0.0095459954
0.0166418
0.020678852
0.021727568
0.021454628
0.020814398
0.020160045
0.019522046
0.018888687
0.018275759
0.017707813
0.017199056
0.01675167
0.016362323
0.01601803
0.015718023
0.015460772
0.015240519
0.015049408
0.014880458
0.014727866
0.014587268
0.014456081
0.014333186
0.014217094
0.01410758
0.014002595
0.013900791
0.013801396
0.013704457
0.013609929
0.01351757
0.013427173
0.013338153
0.013250956
0.013164028
0.013078132
0.012993205
0.012908942
0.012825185
0.012741889
0.012659054
0.012576678
0.012494713
0.01241322
0.012332104
0.012251308
0.012170823
0.012090651
0.01201082
0.011931339
0.011852224
0.011773494
0.011695143
0.011617195
0.011539655
0.01146251
0.011385751
0.011309399
0.0112335
0.011158084
0.011083159
0.01100872
0.010934748
0.010861185
0.010787941
0.010714928
0.010642075
0.010569319
0.0104966
0.010423856
0.010351014
0.010277971
0.010204571
0.010130605
0.010055802
0.0099798128
0.0099022105
0.0098224838
0.0097400403
0.0096542181
0.009564307
0.009469586
0.0093693782
0.0092631245
0.0091504811
0.0090314268
0.0089063916
0.00877633
0.0086427696
0.0085077099
0.0083734091
0.0082419425
0.0081152075
0.00799373
0.0078787353
0.0077660027
0.0076698085
0.0075148629
0.00021035574
0.00056136863
0.0012988407
0.0026251923
0.0042050912
0.0058192267
0.0072735839
0.0085070101
0.0095690243
0.010493973
0.011286634
0.011942185
0.012465051
0.012872883
0.013189324
0.013442649
0.013648083
0.013814018
0.013946571
0.014050411
0.014129635
0.014187574
0.014226419
0.014249753
0.014260514
0.014259903
0.014253038
0.014237946
0.014215646
0.014186806
0.014153069
0.014115249
0.014073885
0.01402948
0.013981813
0.013932339
0.013878908
0.013823848
0.013766889
0.013707981
0.013647248
0.01358489
0.013521109
0.013456074
0.013389881
0.013322763
0.013254689
0.013185719
0.013115948
0.01304547
0.012974401
0.01290282
0.012830814
0.012758461
0.012685803
0.012612921
0.012539859
0.012466642
0.012393292
0.012319875
0.012246476
0.012173158
0.012099955
0.012026891
0.011953965
0.011881132
0.011808304
0.011735404
0.011662369
0.01158915
0.011515701
0.011441971
0.011367905
0.011293404
0.011218309
0.011142403
0.011065395
0.010986906
0.010906469
0.010823518
0.010737395
0.010647363
0.010552626
0.010452375
0.010345848
0.010232422
0.010111724
0.0099837762
0.0098491272
0.009708965
0.009565108
0.0094198764
0.0092757449
0.0091350998
0.0089995384
0.0088703327
0.0087469718
0.0086288808
0.0085242671
0.0083577488
0.00014833431
0.00015973269
0.00019096958
0.00027314143
0.00044160321
0.0006894035
0.0011477039
0.0017892309
0.0026154891
0.0035362977
0.004493431
0.005471727
0.0064587931
0.0074319127
0.0083597715
0.0092139292
0.0099765395
0.010642665
0.011217768
0.011711618
0.0121342
0.012494225
0.01279982
0.013057622
0.013274206
0.01345449
0.013604117
0.013727585
0.013828148
0.013909441
0.013973981
0.014024106
0.014061777
0.014088866
0.014106125
0.014116014
0.014114844
0.014108462
0.014095191
0.014076068
0.014051678
0.014022571
0.013989258
0.013952176
0.013911657
0.013868201
0.013821857
0.013772916
0.013721615
0.013668184
0.013612865
0.013555841
0.013497307
0.013437423
0.013376307
0.013314117
0.013250956
0.013186903
0.013122027
0.013056455
0.01299032
0.012923728
0.01285675
0.01278945
0.012721856
0.012653945
0.012585647
0.012516901
0.012447668
0.012377915
0.012307619
0.012236751
0.012165279
0.01209312
0.012020128
0.011946091
0.01187072
0.01179363
0.011714342
0.01163227
0.011546732
0.011456956
0.01136211
0.011261344
0.01115386
0.011039006
0.010916408
0.010786117
0.010648753
0.010505621
0.010358667
0.010210332
0.010063148
0.0099195798
0.00978106
0.0096491607
0.0095226655
0.0094026141
0.0092945498
0.009123551
0.0001485397
0.00015011063
0.00015141096
0.0001535362
0.00016003872
0.00017346171
0.00020527301
0.00027186667
0.00038169874
0.00058755036
0.00090776142
0.0013490887
0.001920638
0.0025888878
0.0033443047
0.0041787854
0.0050750422
0.0060030885
0.0069249344
0.0078038128
0.0086136877
0.0093426108
0.0099900316
0.010560887
0.011061704
0.011498683
0.011878439
0.012207627
0.012492877
0.012739549
0.012952162
0.013134856
0.013291213
0.013424211
0.013536661
0.013631901
0.01370995
0.013773925
0.013825287
0.013865074
0.013894427
0.0139145
0.013926263
0.013930559
0.013928087
0.013919824
0.013905976
0.013887054
0.013863469
0.013835667
0.01380409
0.013769072
0.013730943
0.013690005
0.013646513
0.013600752
0.013552903
0.013503129
0.01345157
0.01339844
0.013343941
0.013288238
0.013231459
0.013173721
0.013115099
0.013055605
0.012995197
0.012933846
0.012871542
0.012808283
0.012744076
0.012678924
0.012612828
0.012545733
0.012477517
0.012407986
0.012336866
0.012263782
0.012188256
0.012109706
0.012027441
0.011940679
0.011848575
0.011750262
0.011644927
0.011531914
0.011410856
0.011281831
0.011145509
0.011003254
0.010857051
0.010709359
0.010562673
0.010419434
0.010280946
0.010148939
0.010021877
0.0099017303
0.009792716
0.0096203534
0.00014867886
0.00015098274
0.00015230285
0.00015252297
0.00015250856
0.00015211123
0.00015231255
0.00015387847
0.00015897314
0.00017259531
0.00020226604
0.00025709011
0.00034617942
0.000501707
0.00073923212
0.0010792974
0.0015313702
0.0020886683
0.0027512131
0.0035121751
0.0043516668
0.0052363022
0.0061254625
0.0069818625
0.007780144
0.0085085765
0.0091653124
0.0097531846
0.010276733
0.010741041
0.0111515
0.011513571
0.011832366
0.012112454
0.012357962
0.012573225
0.012760811
0.012923895
0.013065226
0.013187074
0.013291435
0.013380021
0.013454406
0.01351603
0.013566013
0.013605597
0.013635796
0.013657493
0.013671511
0.013678551
0.013679234
0.013674094
0.013663671
0.013648456
0.013628892
0.013605446
0.013578392
0.013548015
0.013514614
0.013478488
0.013439903
0.013399103
0.013356294
0.013311651
0.013265336
0.013217416
0.013167891
0.013116784
0.013064123
0.013009946
0.012954301
0.012897234
0.012838795
0.012778963
0.012717653
0.012654704
0.012589868
0.012522793
0.01245302
0.01237998
0.012302992
0.01222128
0.012134
0.012040285
0.01193932
0.011830451
0.01171332
0.011588018
0.011455229
0.011316314
0.011173225
0.011028358
0.010884111
0.010742852
0.010605814
0.010474829
0.010348302
0.010228742
0.010119881
0.0099474242
0.00014773229
0.00015043607
0.00015241922
0.00015363888
0.00015360335
0.00015334626
0.00015285399
0.00015227095
0.00015165062
0.00015105814
0.00015151637
0.00015366436
0.00015941121
0.00017238173
0.00019773727
0.00024312936
0.00031619371
0.00044282022
0.00064243996
0.00093559582
0.0013387858
0.0018524043
0.0024780635
0.0032065152
0.0040135332
0.0048622444
0.0057118427
0.0065285124
0.0072916866
0.0079930115
0.0086313264
0.0092084643
0.0097275254
0.010192474
0.010607731
0.010978094
0.011307599
0.011600168
0.011859535
0.012089042
0.01229167
0.012470059
0.012626581
0.012763398
0.012882363
0.012985233
0.013073573
0.013148764
0.013212052
0.013264546
0.013307223
0.013341008
0.013366665
0.013384905
0.013396385
0.013401649
0.013401292
0.013395822
0.013385703
0.013371327
0.013353075
0.013331303
0.013306314
0.013278395
0.013247797
0.013214653
0.013179021
0.01314099
0.013100638
0.013058064
0.013013379
0.012966691
0.012918083
0.012867582
0.012815161
0.012760707
0.012704009
0.012644755
0.012582518
0.012516755
0.012446811
0.012371931
0.012291283
0.012204013
0.012109314
0.012006535
0.011895319
0.011775749
0.01164848
0.011514809
0.011376586
0.011236077
0.011095549
0.01095728
0.010822488
0.010693102
0.010567655
0.010448951
0.010340781
0.010168853
0.00014660848
0.00014903015
0.00015114555
0.00015263692
0.00015334545
0.00015353118
0.00015338289
0.00015300765
0.00015246416
0.00015183894
0.00015119743
0.00015065176
0.00014991557
0.00014993783
0.00015058355
0.00015318685
0.00015895036
0.00017092471
0.00019383675
0.00023489649
0.00030263136
0.00042145321
0.00061361484
0.00089968849
0.0012964198
0.0018074715
0.0024314602
0.0031529698
0.003941374
0.0047569989
0.0055622912
0.0063307119
0.0070484687
0.0077106101
0.0083164257
0.0088673406
0.0093659407
0.0098156393
0.010220235
0.010583505
0.010909079
0.011200366
0.011460504
0.011692398
0.011898661
0.012081695
0.012243693
0.012386626
0.012512274
0.012622235
0.012717935
0.01280068
0.012871619
0.01293179
0.012982142
0.013023501
0.013056668
0.013082369
0.013101262
0.013113933
0.013120922
0.013122733
0.013119837
0.013112614
0.013101366
0.013086363
0.01306782
0.013045869
0.013020653
0.012992337
0.012961098
0.012927112
0.012890536
0.012851461
0.012809923
0.012765867
0.012719142
0.012669483
0.012616513
0.01255973
0.012498519
0.012432156
0.01235984
0.012280736
0.012194052
0.01209914
0.011995633
0.011883579
0.011763559
0.011636751
0.011504839
0.011369912
0.011234079
0.011099533
0.010967531
0.010840118
0.01071608
0.01059838
0.010491206
0.010320183
0.00014565189
0.00014761333
0.0001494679
0.00015092579
0.00015190559
0.00015244477
0.00015262911
0.00015257746
0.00015235496
0.00015201552
0.00015157597
0.0001510365
0.00015044405
0.0001498743
0.00014930426
0.00014882185
0.00014838142
0.0001485111
0.00014953601
0.00015245955
0.00015856933
0.00017093403
0.00019473584
0.00023723579
0.00031108048
0.00044027905
0.00064880293
0.00095883399
0.0013808556
0.0019184686
0.0025630934
0.0032900113
0.0040623389
0.0048415216
0.0055976875
0.0063134638
0.0069810688
0.0075977944
0.008163458
0.0086795239
0.0091485653
0.0095736677
0.0099580433
0.010304914
0.010617386
0.0108984
0.01115072
0.011376897
0.011579275
0.01175999
0.011920974
0.012063993
0.012190635
0.012302334
0.012400397
0.012485987
0.012560187
0.012623987
0.012678292
0.012723918
0.012761607
0.012792049
0.01281588
0.012833648
0.012845805
0.012852742
0.01285478
0.012852164
0.012845128
0.012833917
0.01281879
0.012800012
0.012777806
0.012752362
0.012723791
0.012692113
0.012657248
0.012618998
0.012577047
0.012530954
0.012480155
0.012423974
0.012361648
0.012292375
0.012215381
0.012130021
0.012035902
0.011933012
0.011821819
0.011703329
0.011579012
0.011450737
0.011320446
0.011190258
0.011061512
0.010936398
0.010814045
0.010697493
0.010591534
0.01042171
0.00014491224
0.00014646201
0.00014796717
0.00014921684
0.00015015506
0.00015079244
0.00015116927
0.00015134033
0.00015135548
0.00015124384
0.00015103303
0.00015073398
0.00015036367
0.00014993493
0.00014944543
0.00014891666
0.0001483834
0.0001478531
0.00014736143
0.00014696382
0.00014680538
0.0001471813
0.00014868107
0.00015230981
0.00015980072
0.00017474088
0.00020348493
0.0002539785
0.00034666365
0.00050591136
0.00075578128
0.0011142582
0.0015874566
0.0021713529
0.0028455461
0.0035757372
0.0043237566
0.0050586173
0.0057612188
0.006422101
0.0070371835
0.0076052022
0.0081267427
0.0086036367
0.0090383486
0.0094336127
0.0097922825
0.01011719
0.010411056
0.010676459
0.010915793
0.011131283
0.01132497
0.011498718
0.011654236
0.011793068
0.011916632
0.012026235
0.012123071
0.012208228
0.012282696
0.012347388
0.012403145
0.012450714
0.012490732
0.012523744
0.01255021
0.012570511
0.012584991
0.012593997
0.012597886
0.01259702
0.012591726
0.012582288
0.012568912
0.012551714
0.012530699
0.012505756
0.012476644
0.012442998
0.01240432
0.012359996
0.012309317
0.012251519
0.012185852
0.012111671
0.012028547
0.011936382
0.011835498
0.011726686
0.011611164
0.011490554
0.011366623
0.011241425
0.011116422
0.010993967
0.010873599
0.010758395
0.010653862
0.010485528
0.00014435629
0.00014557987
0.00014678098
0.00014780066
0.00014859794
0.0001491849
0.00014959204
0.00014985144
0.00014998886
0.00015002194
0.00014996578
0.00014983181
0.00014962987
0.00014936787
0.00014905019
0.00014868116
0.00014827117
0.00014782092
0.00014733056
0.00014683981
0.00014634644
0.00014587879
0.00014547039
0.00014523232
0.00014535962
0.00014622439
0.00014863184
0.0001537389
0.00016423007
0.00018518087
0.00022408621
0.00029589977
0.00042509513
0.00063738334
0.0009541221
0.0013835749
0.0019243568
0.0025583277
0.0032526707
0.0039700658
0.0046799486
0.0053631595
0.0060096965
0.0066147358
0.0071763395
0.0076945297
0.0081706217
0.0086066213
0.0090048844
0.0093679371
0.0096983217
0.0099985238
0.010270919
0.010517737
0.010741062
0.010942812
0.011124766
0.011288567
0.011435732
0.011567651
0.011685599
0.011790749
0.011884181
0.011966873
0.012039681
0.01210334
0.012158484
0.01220565
0.012245321
0.012277966
0.01230406
0.012324076
0.012338459
0.012347607
0.012351841
0.012351384
0.01234635
0.012336726
0.01232237
0.012303004
0.012278215
0.012247464
0.012210106
0.012165427
0.012112706
0.012051296
0.011980725
0.011900789
0.011811637
0.011713814
0.011608259
0.011496326
0.011379603
0.011260089
0.011139388
0.011020041
0.010902028
0.010788454
0.010685592
0.010519083
0.00014394632
0.00014491515
0.00014587318
0.00014669763
0.00014735236
0.0001478461
0.00014820548
0.00014845809
0.00014862347
0.00014871339
0.00014873567
0.00014869638
0.00014860066
0.00014845284
0.00014825665
0.00014801504
0.00014773146
0.00014740842
0.0001470457
0.00014665001
0.00014622452
0.00014576646
0.00014530102
0.00014483606
0.00014439212
0.00014399606
0.00014373876
0.00014376527
0.00014436079
0.00014613925
0.00015013863
0.00015841693
0.00017525664
0.00020777211
0.00026851462
0.0003816486
0.00057350988
0.00086669741
0.0012708849
0.0017853482
0.0023920236
0.003058302
0.0037479729
0.0044321406
0.0050928453
0.0057204035
0.0063098282
0.0068589415
0.0073675011
0.0078364957
0.0082675966
0.0086628631
0.0090245417
0.0093549212
0.009656261
0.0099307325
0.0101804
0.010407211
0.010612987
0.010799423
0.010968088
0.011120437
0.011257815
0.011381457
0.011492463
0.011591794
0.011680285
0.011758658
0.011827561
0.011887608
0.011939408
0.011983565
0.012020657
0.012051212
0.012075682
0.01209442
0.012107662
0.012115517
0.012117954
0.012114802
0.012105748
0.012090344
0.012068019
0.012038122
0.011999965
0.011952903
0.011896411
0.011830171
0.011754139
0.011668599
0.01157419
0.011471987
0.011363394
0.011250356
0.01113463
0.011018952
0.010903765
0.010792202
0.010691321
0.010527042
0.00014364864
0.00014441782
0.00014518323
0.00014585019
0.00014638553
0.00014679181
0.0001470889
0.00014730043
0.00014744468
0.00014753323
0.00014757302
0.00014756838
0.00014752216
0.00014743627
0.00014731229
0.00014715175
0.00014695593
0.00014672605
0.00014646268
0.00014616682
0.00014584008
0.00014548167
0.00014509522
0.00014468382
0.00014424779
0.00014380187
0.00014335831
0.0001429352
0.00014255906
0.00014230433
0.00014230659
0.00014280759
0.00014432057
0.0001478141
0.00015505794
0.0001700143
0.00019958359
0.00025595064
0.00036308922
0.00054796637
0.00083282974
0.001227736
0.0017305634
0.002321271
0.0029664801
0.0036315739
0.0042904236
0.0049271573
0.0055329801
0.0061031826
0.0066356911
0.0071302278
0.0075876079
0.0080092829
0.0083970803
0.008753009
0.0090791434
0.009377549
0.0096502343
0.0098991225
0.010126034
0.010332683
0.01052068
0.01069152
0.010846558
0.010987003
0.011113917
0.01122823
0.011330776
0.011422338
0.011503676
0.011575542
0.01163866
0.011693706
0.011741281
0.011781882
0.01181589
0.011843549
0.011864961
0.01188008
0.011888707
0.011890498
0.011884975
0.011871556
0.011849597
0.011818455
0.011777555
0.011726459
0.011664925
0.011592966
0.011510915
0.011419561
0.011320117
0.01121447
0.011104524
0.010993213
0.010881444
0.010772388
0.010673877
0.010512327
0.00014343424
0.0001440471
0.00014466009
0.00014520062
0.00014563906
0.00014597302
0.00014621547
0.0001463846
0.0001464963
0.00014656191
0.00014658905
0.00014658268
0.00014654592
0.00014648046
0.00014638727
0.00014626704
0.00014612016
0.00014594679
0.00014574698
0.0001455207
0.00014526808
0.00014498884
0.00014468297
0.00014435103
0.00014399264
0.00014360983
0.00014320547
0.00014278113
0.00014234911
0.00014192087
0.00014151631
0.00014116202
0.00014092882
0.00014094974
0.00014144841
0.00014290921
0.00014627852
0.00015328951
0.00016793957
0.00019717474
0.0002544193
0.00036386818
0.00055334203
0.00084311219
0.001242353
0.0017454382
0.0023286116
0.0029576351
0.003600439
0.0042345327
0.0048465718
0.0054289784
0.0059776486
0.006490834
0.0069683389
0.0074109117
0.0078198817
0.0081969141
0.008543845
0.0088625803
0.0091550257
0.0094230493
0.0096684532
0.0098929501
0.010098133
0.010285448
0.010456193
0.010611518
0.01075246
0.010879983
0.010995015
0.011098468
0.011191225
0.011274124
0.011347926
0.011413293
0.011470765
0.011520742
0.011563476
0.011599062
0.011627433
0.011648365
0.011661485
0.011666292
0.011662194
0.011648559
0.011624767
0.011590263
0.011544608
0.011487548
0.011419116
0.011339811
0.011250649
0.011153444
0.011050234
0.010944133
0.010836508
0.010730577
0.010634921
0.010476714
0.00014328694
0.00014377596
0.00014426724
0.00014470537
0.00014506455
0.00014533925
0.00014553698
0.00014567087
0.00014575357
0.00014579499
0.00014580257
0.00014578169
0.00014573615
0.00014566836
0.00014557976
0.00014547129
0.00014534336
0.00014519601
0.00014502906
0.0001448422
0.00014463503
0.00014440702
0.00014415757
0.00014388616
0.00014359213
0.00014327506
0.00014293504
0.00014257184
0.00014218715
0.00014178378
0.00014136394
0.00014094113
0.00014052459
0.0001401377
0.00013980793
0.00013960971
0.00013968062
0.00014024922
0.00014182836
0.0001453852
0.00015284246
0.00016856876
0.00019989738
0.00026303908
0.0003829467
0.00058804264
0.00089482851
0.0013097514
0.0018214643
0.0024017966
0.0030167767
0.0036382597
0.0042478768
0.0048347883
0.0053927252
0.0059183766
0.0064104389
0.0068688804
0.0072944664
0.0076884631
0.0080524294
0.0083880855
0.0086972184
0.0089816172
0.0092430137
0.0094830364
0.0097031815
0.0099048059
0.010089144
0.010257345
0.010410509
0.010549711
0.010676001
0.010790384
0.010893797
0.010987075
0.011070933
0.011145945
0.011212527
0.011270934
0.011321247
0.011363378
0.011397071
0.01142192
0.011437397
0.011442889
0.011437739
0.011421287
0.011392911
0.011352106
0.011298611
0.011232643
0.011155014
0.011067447
0.010972081
0.01087219
0.01076958
0.010667526
0.010575318
0.010421199
0.0001431942
0.0001435843
0.0001439776
0.00014433203
0.00014462557
0.000144851
0.00014501188
0.00014511728
0.0001451768
0.00014519857
0.00014518907
0.0001451534
0.00014509548
0.00014501814
0.00014492337
0.00014481259
0.00014468668
0.00014454606
0.00014439081
0.00014422081
0.00014403574
0.00014383508
0.00014361819
0.00014338433
0.00014313268
0.00014286235
0.00014257259
0.00014226258
0.0001419318
0.00014158028
0.00014120784
0.00014081671
0.00014040959
0.00013998945
0.00013957168
0.00013916498
0.00013879626
0.00013849639
0.00013835043
0.00013850678
0.00013922326
0.00014109936
0.00014517098
0.00015381063
0.00017214224
0.00020841592
0.00028309877
0.00042303855
0.00065344048
0.00098802946
0.001427122
0.0019518748
0.0025305382
0.0031315017
0.003731669
0.0043167219
0.0048781181
0.0054109276
0.0059126726
0.0063824975
0.0068205857
0.0072277922
0.0076053873
0.0079548834
0.0082779054
0.0085760923
0.0088510274
0.0091041998
0.0093369966
0.0095507232
0.0097466345
0.0099259599
0.010089907
0.010239648
0.010376293
0.01050086
0.010614249
0.010717218
0.010810364
0.010894116
0.010968718
0.011034234
0.011090538
0.011137333
0.011174165
0.011200454
0.011215519
0.011218612
0.011208949
0.011185795
0.01114862
0.011097368
0.01103264
0.010956045
0.010869786
0.010777265
0.010680693
0.010583408
0.010495357
0.010346219
0.00014314459
0.00014345531
0.00014376943
0.00014405512
0.00014429393
0.00014447791
0.00014460791
0.0001446899
0.00014473099
0.00014473759
0.00014471509
0.00014466795
0.00014459978
0.00014451338
0.00014441091
0.00014429407
0.00014416406
0.0001440217
0.00014386745
0.00014370155
0.00014352398
0.00014333451
0.00014313274
0.00014291809
0.00014268987
0.00014244724
0.00014218933
0.00014191521
0.00014162393
0.00014131469
0.00014098666
0.00014063945
0.0001402732
0.00013988788
0.00013948649
0.00013907202
0.00013864842
0.0001382329
0.00013783636
0.00013748854
0.0001372288
0.00013716181
0.00013745217
0.00013842053
0.00014081817
0.00014584086
0.00015664673
0.00017935204
0.00022587451
0.00031962646
0.00048935633
0.00075515364
0.0011261742
0.0015935852
0.0021309818
0.0027058716
0.0032913305
0.0038695613
0.0044296918
0.0049651974
0.0054724539
0.005949795
0.0063968257
0.0068139803
0.0072022134
0.007562779
0.0078970722
0.0082065239
0.0084925441
0.0087565069
0.008999761
0.0092236461
0.0094294968
0.0096186291
0.0097923146
0.0099517471
0.010098012
0.010232055
0.010354668
0.010466461
0.010567858
0.010659084
0.01074016
0.010810908
0.010870962
0.010919788
0.010956698
0.010980875
0.010991403
0.01098735
0.010967943
0.010932871
0.010882523
0.010818367
0.010742629
0.010658794
0.010569438
0.010477963
0.010394906
0.010251808
0.00014312876
0.00014337546
0.00014362535
0.0001438544
0.00014404736
0.00014419622
0.00014430004
0.00014436246
0.00014438859
0.0001443834
0.00014435125
0.00014429591
0.00014422053
0.00014412768
0.00014401941
0.00014389741
0.00014376302
0.00014361722
0.00014346071
0.000143294
0.00014311736
0.00014293085
0.00014273437
0.00014252763
0.0001423102
0.0001420815
0.00014184084
0.00014158744
0.00014132043
0.00014103891
0.00014074195
0.00014042864
0.00014009823
0.00013975
0.00013938376
0.00013899994
0.00013859885
0.00013818418
0.00013775964
0.00013733189
0.00013691812
0.00013653546
0.00013621352
0.00013601246
0.00013606521
0.00013656309
0.0001379506
0.00014113054
0.00014788298
0.00016250206
0.00019250532
0.00025598557
0.00037944427
0.0005891579
0.00090005786
0.0013124644
0.00180696
0.0023524654
0.0029195346
0.0034872307
0.0040424234
0.0045770679
0.0050864495
0.0055681152
0.0060210986
0.006445396
0.006841604
0.0072106686
0.0075537246
0.0078720062
0.0081668087
0.0084394762
0.0086913918
0.008923958
0.0091385661
0.0093365578
0.0095191868
0.0096875838
0.0098427274
0.0099854204
0.010116271
0.010235676
0.010343814
0.010440639
0.010525885
0.010599075
0.010659535
0.010706402
0.01073866
0.010755216
0.01075509
0.010737742
0.010703351
0.010653223
0.01058956
0.01051588
0.010435075
0.010350601
0.010273508
0.010137688
0.0001431394
0.00014333417
0.00014353171
0.00014371392
0.00014386832
0.00014398726
0.00014406867
0.00014411449
0.00014412825
0.0001441137
0.00014407431
0.00014401322
0.00014393313
0.00014383628
0.00014372454
0.00014359947
0.00014346236
0.00014331421
0.00014315581
0.00014298776
0.0001428105
0.00014262427
0.00014242919
0.0001422252
0.00014201211
0.00014178961
0.00014155727
0.00014131454
0.00014106078
0.00014079526
0.00014051721
0.00014022575
0.00013992003
0.00013959917
0.00013926233
0.00013890893
0.0001385384
0.00013815082
0.00013774695
0.00013732791
0.00013689806
0.0001364618
0.00013603312
0.00013562317
0.00013526145
0.0001349821
0.00013487411
0.00013509712
0.00013592353
0.00013801171
0.00014247005
0.00015218418
0.00017292857
0.00021665207
0.00030664634
0.00047218743
0.00073221903
0.0010945689
0.0015471873
0.0020620705
0.0026086254
0.0031633429
0.003710996
0.0042421175
0.0047509824
0.0052343957
0.0056908257
0.0061198101
0.006521565
0.0068967343
0.0072462413
0.0075712055
0.0078728916
0.0081526645
0.0084119441
0.0086521535
0.0088746694
0.0090807757
0.0092716237
0.0094481984
0.0096112915
0.0097614777
0.0098990975
0.010024245
0.010136764
0.01023625
0.010322056
0.010393302
0.010448901
0.01048764
0.010508376
0.010510368
0.010493597
0.01045919
0.010409281
0.010347367
0.010276599
0.010200473
0.010130451
0.010003343
0.00014317076
0.00014332318
0.00014347786
0.00014362118
0.00014374302
0.00014383635
0.00014389844
0.00014393
0.00014393334
0.00014391119
0.00014386629
0.00014380118
0.00014371813
0.00014361911
0.00014350575
0.00014337947
0.00014324144
0.00014309261
0.00014293374
0.00014276545
0.00014258822
0.00014240237
0.00014220811
0.00014200553
0.00014179459
0.00014157516
0.000141347
0.00014110978
0.00014086308
0.0001406064
0.00014033914
0.00014006066
0.00013977024
0.0001394671
0.00013915042
0.0001388194
0.00013847326
0.00013811129
0.00013773305
0.00013733824
0.00013692737
0.00013650129
0.00013606341
0.00013561786
0.00013517069
0.00013474155
0.00013434429
0.00013401341
0.00013380415
0.00013384877
0.00013433837
0.00013571761
0.00013887913
0.00014567006
0.00016056251
0.00019148687
0.00025858759
0.00038946312
0.00060788503
0.00092679579
0.001340796
0.0018258199
0.0023512634
0.0028917224
0.0034301683
0.0039558784
0.0044622221
0.0049453068
0.0054030475
0.0058345406
0.0062396696
0.0066188568
0.0069729075
0.0073029007
0.0076101007
0.0078958773
0.0081616321
0.0084087331
0.0086384569
0.0088519413
0.0090501441
0.0092338088
0.0094034364
0.0095592638
0.0097012504
0.0098290735
0.0099421285
0.010039537
0.010120173
0.010182746
0.010225989
0.010249002
0.010251586
0.01023468
0.010200312
0.010151903
0.010092803
0.010026522
0.0099648181
0.0098480612
0.00014321825
0.00014333594
0.00014345536
0.0001435663
0.00014366058
0.0001437319
0.00014377722
0.0001437964
0.00014379082
0.00014376239
0.00014371318
0.00014364524
0.00014356047
0.00014346053
0.00014334686
0.00014322072
0.00014308316
0.00014293504
0.00014277708
0.00014260986
0.00014243384
0.00014224935
0.00014205665
0.00014185586
0.00014164703
0.00014143011
0.00014120498
0.00014097144
0.00014072922
0.00014047798
0.00014021732
0.00013994677
0.00013966579
0.0001393738
0.00013907012
0.00013875406
0.00013842488
0.00013808183
0.00013772416
0.0001373512
0.00013696243
0.00013655751
0.00013613671
0.00013570103
0.00013525171
0.00013479402
0.000134333
0.00013388117
0.0001334554
0.00013308473
0.00013280645
0.00013271944
0.0001329949
0.00013393442
0.00013627344
0.0001412235
0.0001522
0.00017569513
0.00022698835
0.00033167382
0.00051686729
0.00079913605
0.0011787975
0.0016359403
0.0021407481
0.0026665736
0.0031949193
0.0037139718
0.0042162926
0.0046973578
0.0051545967
0.005586754
0.005993486
0.0063750913
0.0067323206
0.0070662275
0.007378047
0.0076690917
0.0079406651
0.0081939882
0.0084301394
0.0086500014
0.0088542192
0.0090431637
0.0092169079
0.0093752133
0.0095175259
0.0096429843
0.0097504506
0.0098385892
0.0099060551
0.0099518295
0.0099755607
0.0099780027
0.0099610473
0.0099279909
0.0098823189
0.0098275266
0.0097755235
0.0096709772
0.00014327814
0.00014336723
0.00014345754
0.00014354142
0.0001436123
0.00014366465
0.00014369536
0.00014370372
0.0001436904
0.00014365665
0.00014360401
0.00014353408
0.0001434484
0.00014334838
0.00014323529
0.0001431102
0.00014297406
0.00014282765
0.00014267162
0.00014250651
0.00014233274
0.00014215064
0.00014196044
0.00014176229
0.00014155625
0.00014134231
0.0001411204
0.00014089039
0.0001406521
0.00014040527
0.00014014964
0.00013988484
0.00013961048
0.00013932613
0.00013903128
0.00013872538
0.00013840783
0.000138078
0.0001377352
0.00013737872
0.00013700789
0.00013662203
0.00013622061
0.00013580338
0.0001353702
0.00013492195
0.00013446008
0.00013398787
0.00013351104
0.00013303694
0.00013258743
0.00013217916
0.00013185083
0.00013167142
0.00013179873
0.00013245046
0.00013419097
0.0001380374
0.00014655932
0.00016512404
0.00020554845
0.00029113749
0.00045053608
0.00070288116
0.0010531817
0.0014854176
0.0019709963
0.0024825783
0.0030005454
0.0035121809
0.0040093723
0.0044870913
0.0049424125
0.0053738567
0.0057809543
0.0061639359
0.0065235028
0.0068606459
0.007176503
0.0074722415
0.0077489634
0.008007625
0.0082489708
0.0084734783
0.0086813175
0.0088723255
0.0090459972
0.0092014944
0.0093376814
0.0094532061
0.0095466823
0.0096170131
0.0096637295
0.0096874139
0.0096898071
0.0096740384
0.0096436666
0.0096021398
0.0095613474
0.0094710943
0.00014334743
0.00014341286
0.00014347904
0.00014354024
0.00014359123
0.0001436272
0.00014364514
0.00014364398
0.00014362387
0.00014358556
0.00014353011
0.00014345874
0.00014337271
0.00014327318
0.00014316121
0.00014303776
0.00014290366
0.00014275962
0.00014260621
0.00014244392
0.00014227315
0.00014209419
0.00014190727
0.00014171251
0.00014150999
0.0001412997
0.0001410816
0.00014085558
0.00014062149
0.00014037913
0.00014012829
0.00013986868
0.00013959999
0.00013932189
0.00013903397
0.00013873582
0.00013842696
0.00013810687
0.000137775
0.00013743074
0.00013707347
0.00013670253
0.00013631726
0.00013591705
0.00013550137
0.00013506985
0.00013462249
0.00013415974
0.00013368309
0.00013319448
0.00013270037
0.00013220696
0.00013173106
0.00013129019
0.00013092347
0.00013067627
0.00013068191
0.0001311363
0.00013248767
0.00013562136
0.00014250185
0.00015770999
0.00019066768
0.00026265585
0.000402475
0.00063112788
0.00095727501
0.0013682061
0.0018366414
0.0023349416
0.002842709
0.003346559
0.0038378996
0.0043113775
0.0047638655