/*--------------------------------*- C++ -*----------------------------------*\
| =========                 |                                                 |
| \\      /  F ield         | OpenFOAM: The Open Source CFD Toolbox           |
|  \\    /   O peration     | Version:  2206                                  |
|   \\  /    A nd           | Website:  www.openfoam.com                      |
|    \\/     M anipulation  |                                                 |
\*---------------------------------------------------------------------------*/
FoamFile
{
    version     2.0;
    format      ascii;
    arch        "LSB;label=32;scalar=64";
    class       volScalarField;
    location    "300";
    object      nut;
}
// * * * * * * * * * * * * * * * * * * * * * * * * * * * * * * * * * * * * * //

dimensions      [0 2 -1 0 0 0 0];

internalField   nonuniform List<scalar> 
7480
(
1.6136543e-05
2.2438803e-05
2.3612117e-05
2.2657097e-05
2.1069433e-05
1.9600344e-05
1.8469304e-05
1.7609251e-05
1.6919925e-05
1.6337156e-05
1.5831999e-05
1.5392582e-05
1.5011475e-05
1.4681622e-05
1.4396191e-05
1.4148483e-05
1.3933314e-05
1.3746534e-05
1.3583533e-05
1.3441127e-05
1.3315235e-05
1.3202653e-05
1.3100664e-05
1.3007268e-05
1.2921105e-05
1.284098e-05
1.2766115e-05
1.2695675e-05
1.2628895e-05
1.2565146e-05
1.2504089e-05
1.2445491e-05
1.2389089e-05
1.2334667e-05
1.2281956e-05
1.2230888e-05
1.2181025e-05
1.2132341e-05
1.2084746e-05
1.2038094e-05
1.1992278e-05
1.194721e-05
1.1902823e-05
1.1859079e-05
1.1815919e-05
1.1773315e-05
1.1731219e-05
1.1689572e-05
1.1648344e-05
1.1607506e-05
1.1567036e-05
1.1526921e-05
1.1487144e-05
1.1447696e-05
1.1408561e-05
1.1369726e-05
1.1331184e-05
1.1292918e-05
1.1254913e-05
1.1217162e-05
1.1179669e-05
1.1142438e-05
1.1105463e-05
1.1068739e-05
1.1032255e-05
1.0995987e-05
1.09599e-05
1.0923954e-05
1.0888109e-05
1.0852332e-05
1.0816586e-05
1.0780837e-05
1.0745046e-05
1.0709166e-05
1.0673129e-05
1.0636849e-05
1.0600212e-05
1.0563072e-05
1.0525249e-05
1.0486523e-05
1.0446634e-05
1.0405285e-05
1.0362143e-05
1.0316856e-05
1.0269066e-05
1.0218435e-05
1.0164674e-05
1.0107575e-05
1.0047076e-05
9.9832755e-06
9.9165343e-06
9.8475087e-06
9.7772186e-06
9.7065031e-06
9.6370752e-06
9.5683395e-06
9.5038379e-06
9.4357147e-06
9.3821252e-06
9.2937785e-06
1.6544195e-06
5.1355958e-06
8.7816861e-06
1.1676905e-05
1.3400358e-05
1.4477139e-05
1.5233307e-05
1.5804954e-05
1.6216728e-05
1.6511801e-05
1.6735659e-05
1.6920947e-05
1.7085248e-05
1.7236411e-05
1.7379465e-05
1.7506665e-05
1.762861e-05
1.7752157e-05
1.7876512e-05
1.7997508e-05
1.8111298e-05
1.8215096e-05
1.8307617e-05
1.8389397e-05
1.8462244e-05
1.8526648e-05
1.8584833e-05
1.8635089e-05
1.8677034e-05
1.8711062e-05
1.8738637e-05
1.8760608e-05
1.8777407e-05
1.8789464e-05
1.8796482e-05
1.8799822e-05
1.8797392e-05
1.8791272e-05
1.8781633e-05
1.8768325e-05
1.875145e-05
1.8731255e-05
1.8708042e-05
1.8682026e-05
1.8653338e-05
1.8622289e-05
1.8588869e-05
1.8553173e-05
1.8515348e-05
1.8475528e-05
1.8433899e-05
1.8390579e-05
1.8345699e-05
1.829938e-05
1.8251694e-05
1.820277e-05
1.8152682e-05
1.8101488e-05
1.8049233e-05
1.7996023e-05
1.794199e-05
1.7887226e-05
1.7831796e-05
1.7775747e-05
1.77191e-05
1.7661821e-05
1.760383e-05
1.7545061e-05
1.7485475e-05
1.7425045e-05
1.7363752e-05
1.7301571e-05
1.723847e-05
1.7174365e-05
1.7109103e-05
1.704246e-05
1.6974128e-05
1.6903699e-05
1.6830657e-05
1.6754378e-05
1.6674127e-05
1.6589074e-05
1.6498319e-05
1.6400944e-05
1.6296084e-05
1.6183044e-05
1.6061449e-05
1.5931419e-05
1.579373e-05
1.5649954e-05
1.5502278e-05
1.5353402e-05
1.5205875e-05
1.5062357e-05
1.4923501e-05
1.4792084e-05
1.4663761e-05
1.4546132e-05
1.4435504e-05
1.4253627e-05
3.8607338e-07
4.50508e-07
9.3215332e-07
2.2088719e-06
4.1412617e-06
6.4112626e-06
8.5178253e-06
1.0331076e-05
1.2013446e-05
1.3632145e-05
1.5179599e-05
1.6637374e-05
1.7997977e-05
1.9268114e-05
2.045968e-05
2.1599245e-05
2.268811e-05
2.3720549e-05
2.4692739e-05
2.560342e-05
2.6453141e-05
2.7242653e-05
2.797171e-05
2.8646191e-05
2.9270833e-05
2.9846469e-05
3.038776e-05
3.0886391e-05
3.1345895e-05
3.1768343e-05
3.2159226e-05
3.2521058e-05
3.2855835e-05
3.3165674e-05
3.345033e-05
3.3715278e-05
3.395324e-05
3.4173859e-05
3.4375781e-05
3.4559388e-05
3.4725733e-05
3.4875973e-05
3.5011262e-05
3.513258e-05
3.5240657e-05
3.5336717e-05
3.5420926e-05
3.5493909e-05
3.5556336e-05
3.5608821e-05
3.565207e-05
3.5686619e-05
3.571304e-05
3.5731844e-05
3.5743397e-05
3.5748212e-05
3.5746642e-05
3.5738973e-05
3.5725462e-05
3.5706525e-05
3.5682625e-05
3.5654126e-05
3.5621306e-05
3.5584408e-05
3.5543603e-05
3.5498911e-05
3.545023e-05
3.5397507e-05
3.5340762e-05
3.5280051e-05
3.5215457e-05
3.5147058e-05
3.5074931e-05
3.4999022e-05
3.4919116e-05
3.4834835e-05
3.474561e-05
3.4650653e-05
3.4548942e-05
3.4439216e-05
3.4319991e-05
3.4189587e-05
3.4046194e-05
3.3887993e-05
3.3713321e-05
3.3520941e-05
3.3310363e-05
3.3082234e-05
3.2838606e-05
3.2583162e-05
3.2320646e-05
3.2056529e-05
3.1795376e-05
3.1542059e-05
3.1296118e-05
3.1064216e-05
3.0833233e-05
3.062857e-05
3.0425526e-05
3.0092216e-05
5.0518888e-06
9.1465332e-07
3.6800876e-07
3.5632408e-07
5.5597956e-07
9.1579386e-07
1.7852628e-06
3.1746917e-06
4.8754504e-06
6.6198693e-06
8.3717933e-06
1.0255645e-05
1.2281092e-05
1.4410337e-05
1.6584511e-05
1.8750643e-05
2.0870671e-05
2.2923652e-05
2.4901798e-05
2.6801719e-05
2.8619622e-05
3.0351733e-05
3.1998381e-05
3.355817e-05
3.5033006e-05
3.6421946e-05
3.7729887e-05
3.896163e-05
4.0119709e-05
4.121124e-05
4.2239338e-05
4.320806e-05
4.4121263e-05
4.4983724e-05
4.5795882e-05
4.6567038e-05
4.7274881e-05
4.7950314e-05
4.8580426e-05
4.9170136e-05
4.9721675e-05
5.0237252e-05
5.0719012e-05
5.1168883e-05
5.15884e-05
5.1980173e-05
5.2344198e-05
5.2682169e-05
5.2995414e-05
5.3285229e-05
5.3553067e-05
5.3800052e-05
5.4027461e-05
5.4236368e-05
5.4427591e-05
5.4602271e-05
5.476117e-05
5.490495e-05
5.5034193e-05
5.5149835e-05
5.5252847e-05
5.5344026e-05
5.5423999e-05
5.5493373e-05
5.5552595e-05
5.5601833e-05
5.5641021e-05
5.5670195e-05
5.5689517e-05
5.5699216e-05
5.5699589e-05
5.5690944e-05
5.5673621e-05
5.5647735e-05
5.5613123e-05
5.556936e-05
5.5515705e-05
5.5451056e-05
5.5373941e-05
5.5282514e-05
5.5174587e-05
5.5047692e-05
5.4899196e-05
5.472651e-05
5.4527363e-05
5.4300226e-05
5.4044786e-05
5.3762471e-05
5.3456751e-05
5.3133215e-05
5.2798631e-05
5.2460348e-05
5.2123955e-05
5.179534e-05
5.1472975e-05
5.1166062e-05
5.0855971e-05
5.0580853e-05
5.0304985e-05
4.985097e-05
3.6302306e-05
1.3087832e-05
3.887083e-06
1.5226188e-06
8.104768e-07
5.6498344e-07
5.2257821e-07
6.3773892e-07
8.7748824e-07
1.4335184e-06
2.3710198e-06
3.5461762e-06
4.9945765e-06
6.6333532e-06
8.5135365e-06
1.0675976e-05
1.3098744e-05
1.5718838e-05
1.8453352e-05
2.1221508e-05
2.3963541e-05
2.664564e-05
2.9253233e-05
3.1777834e-05
3.4211977e-05
3.6548236e-05
3.8783833e-05
4.0919539e-05
4.2960256e-05
4.4907982e-05
4.6764109e-05
4.8531534e-05
5.0213049e-05
5.1810517e-05
5.3328342e-05
5.4775303e-05
5.6143146e-05
5.744338e-05
5.8678051e-05
5.9847797e-05
6.0955218e-05
6.2003815e-05
6.2996455e-05
6.3935759e-05
6.482395e-05
6.5665909e-05
6.6460896e-05
6.7211098e-05
6.791811e-05
6.8584048e-05
6.9211232e-05
6.9801334e-05
7.0356193e-05
7.0877604e-05
7.1367152e-05
7.1826828e-05
7.2257751e-05
7.2661019e-05
7.30376e-05
7.3389162e-05
7.3717283e-05
7.4023262e-05
7.4308169e-05
7.4573115e-05
7.4818925e-05
7.5045981e-05
7.5254285e-05
7.5444042e-05
7.5615607e-05
7.5769432e-05
7.5906098e-05
7.6026242e-05
7.6130612e-05
7.62196e-05
7.6293214e-05
7.6351096e-05
7.639243e-05
7.6415888e-05
7.6419614e-05
7.640124e-05
7.635793e-05
7.6286489e-05
7.6183537e-05
7.6045811e-05
7.5870554e-05
7.5656065e-05
7.5402297e-05
7.5111413e-05
7.4788024e-05
7.4439026e-05
7.4072355e-05
7.3696256e-05
7.3316579e-05
7.2939613e-05
7.2563395e-05
7.2199167e-05
7.182592e-05
7.1490592e-05
7.1153861e-05
7.0601191e-05
5.7545661e-05
4.6703861e-05
2.8010326e-05
1.4186304e-05
7.1982995e-06
3.9312845e-06
2.3529877e-06
1.5396295e-06
1.1079169e-06
9.0333458e-07
8.7085395e-07
9.7542443e-07
1.2117187e-06
1.7477349e-06
2.5691404e-06
3.6832326e-06
5.1514988e-06
6.9269906e-06
9.0702798e-06
1.1600274e-05
1.4474794e-05
1.7603625e-05
2.0877636e-05
2.4198211e-05
2.7497821e-05
3.0739992e-05
3.3906598e-05
3.6985294e-05
3.996694e-05
4.2845748e-05
4.5619371e-05
4.8287714e-05
5.085126e-05
5.3310518e-05
5.5667234e-05
5.7927122e-05
6.0088673e-05
6.2156306e-05
6.4133754e-05
6.6023828e-05
6.782943e-05
6.9552778e-05
7.1196624e-05
7.2764035e-05
7.4256586e-05
7.5677935e-05
7.7031208e-05
7.8319191e-05
7.9544925e-05
8.0710817e-05
8.1819044e-05
8.2871466e-05
8.387055e-05
8.481868e-05
8.5718234e-05
8.657216e-05
8.7381597e-05
8.8148133e-05
8.8873807e-05
8.9560734e-05
9.0210751e-05
9.0825659e-05
9.1407015e-05
9.1956258e-05
9.2474961e-05
9.2963797e-05
9.3422847e-05
9.3852577e-05
9.4253547e-05
9.4626431e-05
9.4972126e-05
9.5291659e-05
9.5586307e-05
9.5856814e-05
9.6103462e-05
9.6326079e-05
9.6523879e-05
9.6695406e-05
9.6838503e-05
9.6950349e-05
9.702752e-05
9.7066144e-05
9.7062135e-05
9.7011587e-05
9.6911265e-05
9.6759248e-05
9.6555589e-05
9.6302836e-05
9.6006145e-05
9.5672875e-05
9.5311224e-05
9.4929519e-05
9.4533518e-05
9.4129943e-05
9.3717392e-05
9.3309429e-05
9.2885034e-05
9.2497885e-05
9.2107741e-05
9.1474583e-05
6.0828107e-05
5.9551564e-05
5.4077992e-05
4.3912217e-05
3.1731937e-05
2.1511954e-05
1.4229645e-05
9.426646e-06
6.3307048e-06
4.3150313e-06
3.0263774e-06
2.1853578e-06
1.6517316e-06
1.3583445e-06
1.2496094e-06
1.2996931e-06
1.5003212e-06
2.0152961e-06
2.8396442e-06
4.0234317e-06
5.6551511e-06
7.698908e-06
1.0228606e-05
1.3233052e-05
1.66355e-05
2.0311168e-05
2.412703e-05
2.7977503e-05
3.179919e-05
3.5560762e-05
3.9244294e-05
4.2835385e-05
4.6323164e-05
4.9701566e-05
5.2967808e-05
5.6122452e-05
5.9164207e-05
6.2093908e-05
6.4913739e-05
6.7625909e-05
7.0232764e-05
7.273651e-05
7.5139545e-05
7.7444679e-05
7.9654051e-05
8.1770672e-05
8.3797716e-05
8.5738238e-05
8.7595447e-05
8.937228e-05
9.1071385e-05
9.2695985e-05
9.4248276e-05
9.5730699e-05
9.7145873e-05
9.8495513e-05
9.9782967e-05
0.00010101097
0.00010218232
0.00010329909
0.00010436356
0.00010537801
0.00010634444
0.00010726501
0.00010814183
0.00010897572
0.00010976682
0.00011051591
0.00011122364
0.00011189105
0.00011251952
0.00011311057
0.00011366567
0.0001141859
0.00011467208
0.00011512434
0.00011554202
0.00011592364
0.00011626682
0.00011656836
0.00011682429
0.00011703009
0.00011718096
0.0001172723
0.00011730028
0.00011726255
0.00011715889
0.0001169917
0.00011676592
0.00011648855
0.00011616729
0.00011581007
0.00011542262
0.0001150126
0.00011458025
0.00011414211
0.00011367872
0.00011324979
0.00011281358
0.00011211811
6.1432668e-05
6.1632174e-05
6.0972805e-05
5.8586883e-05
5.3755474e-05
4.6834185e-05
3.8855441e-05
3.096392e-05
2.3962078e-05
1.8174988e-05
1.3606678e-05
1.0097877e-05
7.4022793e-06
5.4323536e-06
3.9858673e-06
2.9652919e-06
2.2660045e-06
1.8482527e-06
1.6520924e-06
1.654791e-06
1.851385e-06
2.4234912e-06
3.3603809e-06
4.7576307e-06
6.6965911e-06
9.1785799e-06
1.2247395e-05
1.5849086e-05
1.9854873e-05
2.4104892e-05
2.84577e-05
3.2819849e-05
3.7142088e-05
4.1397645e-05
4.5566413e-05
4.9633641e-05
5.3589856e-05
5.7430091e-05
6.1151844e-05
6.4753897e-05
6.8236296e-05
7.1599817e-05
7.4845633e-05
7.7975511e-05
8.0991221e-05
8.3895022e-05
8.6689575e-05
8.9377697e-05
9.1962408e-05
9.4446716e-05
9.6833449e-05
9.9125769e-05
0.0001013264
0.00010343802
0.00010546348
0.00010740507
0.00010926594
0.00011104916
0.00011275787
0.0001143948
0.00011596267
0.00011746426
0.00011890257
0.00012027977
0.00012159731
0.00012285696
0.0001240602
0.00012520741
0.00012629931
0.00012733708
0.00012832235
0.00012925704
0.00013014321
0.00013098235
0.00013177573
0.00013252384
0.00013322627
0.00013388157
0.00013448723
0.00013503972
0.00013553457
0.00013596658
0.00013633016
0.00013661988
0.00013683109
0.00013696064
0.00013700755
0.00013697338
0.00013686216
0.00013667982
0.0001364331
0.00013612946
0.00013577501
0.00013537905
0.00013494451
0.00013449158
0.00013400332
0.00013354543
0.00013307232
0.0001323341
6.2013839e-05
6.2214666e-05
6.2314333e-05
6.2003584e-05
6.0914799e-05
5.876069e-05
5.5383652e-05
5.0878668e-05
4.5536285e-05
3.9757825e-05
3.3928513e-05
2.8351249e-05
2.324241e-05
1.8721368e-05
1.4819213e-05
1.1534311e-05
8.8091479e-06
6.6579362e-06
4.9982887e-06
3.7679054e-06
2.8922012e-06
2.3539814e-06
2.0875535e-06
2.0684652e-06
2.3500197e-06
3.0691777e-06
4.2660237e-06
6.0768388e-06
8.5111787e-06
1.1633804e-05
1.5413044e-05
1.9721899e-05
2.4377725e-05
2.9205575e-05
3.4082414e-05
3.8940744e-05
4.3744284e-05
4.8467435e-05
5.3090703e-05
5.7601762e-05
6.1993769e-05
6.626246e-05
7.0405121e-05
7.4420698e-05
7.8309089e-05
8.2070907e-05
8.5707509e-05
8.9220766e-05
9.2612947e-05
9.5886578e-05
9.9044222e-05
0.00010208873
0.00010502286
0.00010784934
0.00011057103
0.00011319051
0.00011571077
0.00011813498
0.00012046644
0.00012270826
0.00012486354
0.00012693538
0.0001289271
0.00013084147
0.0001326805
0.00013444605
0.00013613969
0.00013776216
0.00013931427
0.00014079727
0.00014221299
0.00014356381
0.00014485186
0.00014607949
0.00014724833
0.0001483593
0.00014941225
0.00015040588
0.00015133762
0.00015220363
0.00015299892
0.00015371757
0.00015435307
0.00015489892
0.00015534929
0.00015569978
0.00015594802
0.00015609411
0.00015614048
0.00015609155
0.000155953
0.00015573204
0.00015543579
0.00015507599
0.00015465908
0.00015420947
0.00015371318
0.00015324221
0.00015274408
0.00015198462
6.2776812e-05
6.2868966e-05
6.2934332e-05
6.2908222e-05
6.2710661e-05
6.2181087e-05
6.1169604e-05
5.9549645e-05
5.7263818e-05
5.430268e-05
5.0730273e-05
4.6660616e-05
4.2246529e-05
3.7643168e-05
3.2993745e-05
2.8434335e-05
2.4074607e-05
2.0002094e-05
1.6292184e-05
1.2995383e-05
1.0140202e-05
7.7785533e-06
5.897137e-06
4.4611872e-06
3.4451272e-06
2.8194861e-06
2.5381343e-06
2.5650423e-06
3.0886986e-06
4.1248229e-06
5.8152481e-06
8.2476299e-06
1.1455703e-05
1.5435745e-05
2.0059882e-05
2.5122218e-05
3.0416962e-05
3.5795843e-05
4.1175602e-05
4.6510994e-05
5.1770913e-05
5.6932222e-05
6.1980007e-05
6.6905343e-05
7.1702306e-05
7.6367087e-05
8.0897856e-05
8.5294088e-05
8.9556169e-05
9.3685236e-05
9.7682857e-05
0.00010155106
0.00010529209
0.00010890834
0.00011240236
0.00011577666
0.00011903402
0.00012217744
0.00012521018
0.00012813548
0.00013095661
0.00013367689
0.00013629985
0.00013882868
0.00014126586
0.00014361346
0.00014587311
0.00014804578
0.00015013232
0.00015213403
0.00015405281
0.00015589123
0.00015765188
0.00015933747
0.00016095014
0.00016249125
0.00016396099
0.00016535824
0.00016668041
0.00016792339
0.00016908164
0.0001701484
0.00017111606
0.00017197673
0.00017272298
0.00017334856
0.0001738491
0.00017422258
0.00017446934
0.0001745921
0.00017459561
0.00017448733
0.00017427615
0.00017397697
0.00017360039
0.0001731753
0.00017269088
0.00017222574
0.00017171738
0.00017096051
6.3687496e-05
6.3702357e-05
6.3689481e-05
6.3622189e-05
6.3493571e-05
6.3280979e-05
6.2939594e-05
6.2407599e-05
6.1598422e-05
6.0441398e-05
5.8885758e-05
5.6902535e-05
5.4488737e-05
5.1664576e-05
4.8468423e-05
4.4961067e-05
4.1207704e-05
3.7273027e-05
3.3226613e-05
2.9158527e-05
2.5127766e-05
2.1225204e-05
1.7534977e-05
1.4136149e-05
1.1114099e-05
8.5508303e-06
6.4835611e-06
4.89847e-06
3.8348974e-06
3.2237837e-06
3.0213267e-06
3.3335102e-06
4.2508086e-06
5.8876827e-06
8.3757054e-06
1.1737632e-05
1.598314e-05
2.0971687e-05
2.6469134e-05
3.2241519e-05
3.8122072e-05
4.4017389e-05
4.9875457e-05
5.5660227e-05
6.1345613e-05
6.6914892e-05
7.2357601e-05
7.7666726e-05
8.2837876e-05
8.7868756e-05
9.2758381e-05
9.7506823e-05
0.00010211492
0.00010658398
0.00011091574
0.00011511215
0.00011917546
0.00012310826
0.00012691346
0.00013059415
0.00013415353
0.00013759497
0.00014092202
0.00014413813
0.00014724616
0.00015024835
0.00015314642
0.00015594146
0.00015863433
0.00016122624
0.0001637191
0.00016611553
0.00016841844
0.00017063085
0.00017275537
0.00017479377
0.00017674663
0.00017861304
0.00018039042
0.00018207439
0.00018365882
0.00018513598
0.0001864969
0.00018773197
0.00018883159
0.00018978708
0.0001905914
0.0001912398
0.0001917302
0.0001920636
0.00019224417
0.00019228031
0.0001921834
0.00019197217
0.00019166169
0.00019128555
0.00019083595
0.00019039842
0.0001898976
0.00018916966
6.4729599e-05
6.4685471e-05
6.4615554e-05
6.4499112e-05
6.433459e-05
6.4127345e-05
6.3878191e-05
6.3577681e-05
6.3199664e-05
6.2706528e-05
6.2055623e-05
6.1204378e-05
6.0114782e-05
5.8756936e-05
5.711105e-05
5.5158432e-05
5.2897071e-05
5.0333357e-05
4.747854e-05
4.4355412e-05
4.0983673e-05
3.74008e-05
3.3660686e-05
2.9805244e-05
2.5889842e-05
2.1993182e-05
1.8220437e-05
1.4664828e-05
1.1485516e-05
8.7863956e-06
6.6162098e-06
5.052633e-06
4.0711266e-06
3.6191935e-06
3.7539635e-06
4.6058906e-06
6.2707737e-06
8.8985538e-06
1.2515774e-05
1.7124132e-05
2.2552523e-05
2.8531677e-05
3.480442e-05
4.1195087e-05
4.7606575e-05
5.3982591e-05
6.0283668e-05
6.6482314e-05
7.2560975e-05
7.8508208e-05
8.4316315e-05
8.9980575e-05
9.5498341e-05
0.00010086831
0.00010609027
0.00011116471
0.00011609275
0.00012087605
0.00012551676
0.00013001742
0.00013438084
0.00013861013
0.00014270869
0.00014668
0.00015052709
0.00015425238
0.00015785764
0.00016134397
0.00016471219
0.00016796337
0.00017109925
0.0001741224
0.00017703587
0.00017984293
0.00018254653
0.00018514887
0.00018765089
0.00019005193
0.00019234942
0.00019453873
0.00019661305
0.00019856356
0.00020037968
0.00020204962
0.00020356112
0.00020490238
0.00020606301
0.000207035
0.00020781356
0.00020839809
0.00020879268
0.00020900736
0.00020905672
0.0002089638
0.00020874841
0.00020844874
0.00020805987
0.00020767443
0.00020720179
0.00020653182
6.5890297e-05
6.5798866e-05
6.5684567e-05
6.5531649e-05
6.5337119e-05
6.5105982e-05
6.4845871e-05
6.4562425e-05
6.4255271e-05
6.3916368e-05
6.3530506e-05
6.3076772e-05
6.2530406e-05
6.1864892e-05
6.105446e-05
6.007323e-05
5.8898213e-05
5.7510575e-05
5.5895305e-05
5.4041645e-05
5.1945788e-05
4.9586441e-05
4.695687e-05
4.4058144e-05
4.0891676e-05
3.7470171e-05
3.3832854e-05
3.0003085e-05
2.6039143e-05
2.2037724e-05
1.8102276e-05
1.4408818e-05
1.1136311e-05
8.4037967e-06
6.3448168e-06
4.9942331e-06
4.2988878e-06
4.314921e-06
5.1696354e-06
6.9677455e-06
9.8477618e-06
1.3852682e-05
1.8946118e-05
2.4904253e-05
3.1418443e-05
3.8218429e-05
4.5131725e-05
5.2063617e-05
5.8955778e-05
6.5767282e-05
7.2470843e-05
7.9048962e-05
8.5489848e-05
9.1785621e-05
9.7931364e-05
0.00010392414
0.00010976248
0.00011544607
0.00012097549
0.00012635203
0.00013157759
0.00013665459
0.00014158595
0.00014637484
0.00015102426
0.00015553664
0.00015991373
0.00016415659
0.00016826589
0.00017224247
0.00017608779
0.00017980423
0.00018339479
0.00018686286
0.00019021166
0.00019344371
0.00019656032
0.00019956106
0.00020244341
0.00020520247
0.00020783073
0.00021031813
0.00021265219
0.00021481855
0.00021680174
0.00021858614
0.00022015734
0.00022150351
0.00022261693
0.00022349552
0.00022414378
0.00022457405
0.00022480479
0.0002248637
0.00022477546
0.00022458274
0.00022428336
0.00022397703
0.00022355594
0.00022297582
6.7155652e-05
6.7026928e-05
6.687747e-05
6.6696032e-05
6.6479415e-05
6.6230421e-05
6.5955064e-05
6.5659887e-05
6.5349728e-05
6.5026521e-05
6.468876e-05
6.4331258e-05
6.394517e-05
6.3518294e-05
6.3035863e-05
6.2481078e-05
6.1835737e-05
6.1081137e-05
6.0198893e-05
5.9171133e-05
5.7982952e-05
5.6616518e-05
5.5053456e-05
5.3277525e-05
5.1273193e-05
4.9029799e-05
4.6510142e-05
4.3695524e-05
4.057958e-05
3.7158499e-05
3.3455127e-05
2.9497644e-05
2.5365209e-05
2.1157667e-05
1.7058016e-05
1.3302744e-05
1.0070671e-05
7.572678e-06
5.8982027e-06
5.0017869e-06
4.9971848e-06
5.9518851e-06
8.0238167e-06
1.1298837e-05
1.5850743e-05
2.1564159e-05
2.8142392e-05
3.5241089e-05
4.2593168e-05
5.0041161e-05
5.7497085e-05
6.4903376e-05
7.2220309e-05
7.9421947e-05
8.6491161e-05
9.3416301e-05
0.00010018972
0.00010680657
0.00011326399
0.00011956069
0.00012569659
0.00013167264
0.00013749063
0.00014315296
0.00014866215
0.0001540204
0.00015922927
0.00016428964
0.00016920196
0.00017396669
0.0001785849
0.0001830586
0.00018739057
0.00019158416
0.00019564271
0.00019956902
0.00020336468
0.0002070295
0.00021056105
0.00021395413
0.00021720052
0.00022028879
0.00022320437
0.00022592994
0.00022844623
0.00023073317
0.0002327716
0.00023454532
0.00023604334
0.00023726218
0.00023820714
0.00023889347
0.00023934399
0.00023959144
0.00023966543
0.00023961296
0.00023943447
0.0002392367
0.00023889316
0.0002384378
6.8519174e-05
6.8360245e-05
6.8182243e-05
6.7977524e-05
6.7743167e-05
6.7480641e-05
6.7194199e-05
6.6889017e-05
6.6569705e-05
6.6239693e-05
6.5901071e-05
6.5554402e-05
6.5198477e-05
6.4830093e-05
6.4443996e-05
6.4032956e-05
6.3587832e-05
6.3097764e-05
6.255053e-05
6.1932754e-05
6.1230682e-05
6.0429947e-05
5.9515117e-05
5.8470149e-05
5.7278254e-05
5.592441e-05
5.4386585e-05
5.2640826e-05
5.0663254e-05
4.8436918e-05
4.5904697e-05
4.3040749e-05
3.9823297e-05
3.6240188e-05
3.2308396e-05
2.8091901e-05
2.3677387e-05
1.9255811e-05
1.5106152e-05
1.1453637e-05
8.612778e-06
6.7021725e-06
5.6892413e-06
5.8114867e-06
7.0089285e-06
9.5350738e-06
1.3409055e-05
1.8679104e-05
2.5130991e-05
3.2393563e-05
4.0107238e-05
4.8028293e-05
5.6020606e-05
6.4003387e-05
7.1922029e-05
7.9740132e-05
8.743383e-05
9.4986881e-05
0.00010238832
0.00010963102
0.0001167106
0.00012362483
0.00013037312
0.00013695612
0.00014337514
0.00014963159
0.0001557265
0.00016166033
0.00016743308
0.00017304471
0.00017849573
0.00018378755
0.00018892258
0.00019390389
0.00019873483
0.00020341831
0.00020795616
0.00021234844
0.00021659276
0.00022068371
0.00022461234
0.0002283658
0.00023192725
0.0002352761
0.00023838877
0.0002412401
0.00024380544
0.00024606356
0.00024799978
0.00024960909
0.00025089781
0.00025188448
0.00025259675
0.00025307265
0.00025334687
0.00025347063
0.00025344703
0.00025338964
0.00025315214
0.00025285966
6.9974853e-05
6.9791003e-05
6.9589369e-05
6.9365176e-05
6.911591e-05
6.8842194e-05
6.8547033e-05
6.8234432e-05
6.7908174e-05
6.757136e-05
6.7226394e-05
6.6875005e-05
6.6518188e-05
6.6156072e-05
6.5787794e-05
6.5411405e-05
6.502374e-05
6.4620337e-05
6.4195432e-05
6.374198e-05
6.3251762e-05
6.271554e-05
6.2123023e-05
6.1462891e-05
6.0722667e-05
5.9889389e-05
5.8948584e-05
5.7883734e-05
5.6675751e-05
5.5307253e-05
5.3749888e-05
5.1972513e-05
4.9944293e-05
4.7624505e-05
4.4953085e-05
4.1890323e-05
3.8398197e-05
3.4479391e-05
3.018618e-05
2.5587404e-05
2.0895954e-05
1.6426166e-05
1.2438308e-05
9.3850266e-06
7.3581413e-06
6.3835224e-06
6.7526282e-06
8.4334946e-06
1.161012e-05
1.6321534e-05
2.2492047e-05
2.9783751e-05
3.7772397e-05
4.6118945e-05
5.46204e-05
6.3162738e-05
7.1672937e-05
8.0101848e-05
8.8417205e-05
9.6597387e-05
0.00010462782
0.00011249904
0.00012020522
0.00012774317
0.00013511145
0.00014230958
0.00014933726
0.00015619399
0.00016287892
0.00016939124
0.00017573061
0.00018189765
0.00018789406
0.00019372248
0.00019938598
0.00020488747
0.00021022893
0.0002154106
0.00022043018
0.00022528209
0.00022995669
0.00023443974
0.00023871203
0.00024274948
0.00024652379
0.00025000408
0.0002531595
0.00025596299
0.00025839555
0.00026045026
0.0002621344
0.00026346994
0.00026448972
0.00026523731
0.0002657527
0.00026609134
0.00026625911
0.00026637633
0.0002662758
0.00026618775
7.1515374e-05
7.1310868e-05
7.1089556e-05
7.0848935e-05
7.0586952e-05
7.0303679e-05
7.0001202e-05
6.9682627e-05
6.9351053e-05
6.9009127e-05
6.8659009e-05
6.8302423e-05
6.7940691e-05
6.7574716e-05
6.7204963e-05
6.6831422e-05
6.6453513e-05
6.6069992e-05
6.5678865e-05
6.5277324e-05
6.4861677e-05
6.4427329e-05
6.3968759e-05
6.3479506e-05
6.2952095e-05
6.237809e-05
6.1748064e-05
6.1051414e-05
6.0275827e-05
5.9408099e-05
5.8432544e-05
5.7329997e-05
5.6078674e-05
5.4653099e-05
5.3017804e-05
5.1131529e-05
4.8955797e-05
4.6412287e-05
4.3444618e-05
3.9996297e-05
3.60499e-05
3.1654845e-05
2.6856546e-05
2.1927216e-05
1.7184351e-05
1.2991286e-05
9.8411625e-06
7.8337729e-06
7.2018061e-06
8.0169827e-06
1.0443591e-05
1.4518286e-05
2.0289405e-05
2.7490927e-05
3.566881e-05
4.4392792e-05
5.3377979e-05
6.246497e-05
7.155774e-05
8.0592587e-05
8.9527752e-05
9.8335734e-05
0.00010699814
0.00011550296
0.00012384252
0.00013201194
0.00014000786
0.00014782761
0.00015546868
0.00016292883
0.00017020642
0.00017730085
0.00018421278
0.00019094404
0.00019749718
0.00020387488
0.00021007909
0.00021611018
0.00022196596
0.00022764072
0.00023312426
0.00023840101
0.00024344944
0.00024824186
0.00025274496
0.0002569216
0.00026073398
0.00026414834
0.00026714045
0.00026970078
0.00027183712
0.00027357483
0.000274952
0.00027601805
0.0002768186
0.00027741347
0.00027781166
0.00027814012
0.00027820996
0.00027837151
7.3133491e-05
7.2911712e-05
7.2673899e-05
7.2419328e-05
7.2146407e-05
7.1854862e-05
7.1546093e-05
7.1222487e-05
7.0886584e-05
7.0540644e-05
7.018657e-05
6.9825931e-05
6.9459986e-05
6.908971e-05
6.8715816e-05
6.8338779e-05
6.7958813e-05
6.7575827e-05
6.7189391e-05
6.6798676e-05
6.6402394e-05
6.5998731e-05
6.5585286e-05
6.5159021e-05
6.4716199e-05
6.4252322e-05
6.3762094e-05
6.323937e-05
6.2676968e-05
6.2066653e-05
6.1398992e-05
6.0662857e-05
5.9845097e-05
5.8930406e-05
5.7899949e-05
5.6729475e-05
5.5393311e-05
5.3852228e-05
5.2058322e-05
4.9963483e-05
4.7486009e-05
4.4552571e-05
4.1079072e-05
3.7052168e-05
3.2498703e-05
2.7483535e-05
2.2321531e-05
1.7332003e-05
1.3102104e-05
1.003062e-05
8.277048e-06
8.2394065e-06
9.8392495e-06
1.3270336e-05
1.8565533e-05
2.5578876e-05
3.3865138e-05
4.2917712e-05
5.2361401e-05
6.1979644e-05
7.1648092e-05
8.1286705e-05
9.0843021e-05
0.00010028277
0.00010958316
0.00011872893
0.00012770964
0.0001365176
0.00014514674
0.00015359206
0.00016184961
0.00016991683
0.0001777927
0.0001854777
0.00019297344
0.000200282
0.00020740511
0.0002143431
0.00022109387
0.00022765163
0.00023400576
0.00024013955
0.00024602927
0.00025164365
0.00025694426
0.00026188729
0.00026642725
0.00027052266
0.00027414296
0.00027727487
0.00027992586
0.0002821242
0.00028391322
0.00028534837
0.00028648134
0.00028737667
0.00028804701
0.00028862591
0.00028890194
0.00028936216
7.4822417e-05
7.4586003e-05
7.4334185e-05
7.4067637e-05
7.3785195e-05
7.3486387e-05
7.3172098e-05
7.2844143e-05
7.2504583e-05
7.2155341e-05
7.1798093e-05
7.1434253e-05
7.1064984e-05
7.0691211e-05
7.0313653e-05
6.9932852e-05
6.9549189e-05
6.9162881e-05
6.8773976e-05
6.8382348e-05
6.7987659e-05
6.7589331e-05
6.7186496e-05
6.6777954e-05
6.6362113e-05
6.5936936e-05
6.549988e-05
6.504784e-05
6.4577066e-05
6.4083083e-05
6.3560615e-05
6.3003433e-05
6.2404138e-05
6.1753967e-05
6.1042517e-05
6.0256778e-05
5.9381501e-05
5.8397403e-05
5.7278784e-05
5.5996391e-05
5.4508378e-05
5.2760944e-05
5.0699095e-05
4.8226216e-05
4.5255366e-05
4.1684141e-05
3.7507847e-05
3.2711102e-05
2.7447483e-05
2.2048038e-05
1.6928805e-05
1.2837501e-05
1.0043584e-05
8.9958419e-06
9.7564131e-06
1.2540866e-05
1.731768e-05
2.4073516e-05
3.2401763e-05
4.1740498e-05
5.1623171e-05
6.1765823e-05
7.2009061e-05
8.2254015e-05
9.2436532e-05
0.00010251492
0.00011246116
0.00012225572
0.00013188432
0.00014133606
0.00015060255
0.00015967765
0.00016855746
0.00017724018
0.0001857257
0.00019401495
0.00020210898
0.00021000786
0.00021770941
0.00022520783
0.00023249218
0.00023954485
0.00024634019
0.00025284355
0.0002590114
0.00026479301
0.00027013457
0.00027498583
0.00027930847
0.00028308396
0.00028631815
0.00028904131
0.0002913017
0.00029316092
0.00029467724
0.00029592042
0.00029690748
0.00029777874
0.00029829932
0.00029911145
7.6575678e-05
7.632668e-05
7.606281e-05
7.5785834e-05
7.549498e-05
7.5189679e-05
7.4870438e-05
7.4538611e-05
7.4195857e-05
7.3843798e-05
7.3483895e-05
7.3117422e-05
7.2745447e-05
7.2368838e-05
7.198828e-05
7.1604307e-05
7.1217317e-05
7.0827584e-05
7.0435272e-05
7.0040442e-05
6.9643055e-05
6.924296e-05
6.8839878e-05
6.8433382e-05
6.802287e-05
6.760752e-05
6.7186255e-05
6.6757693e-05
6.6320093e-05
6.5871293e-05
6.5408645e-05
6.4928938e-05
6.4428291e-05
6.3902022e-05
6.3344524e-05
6.2748948e-05
6.2106973e-05
6.1408506e-05
6.0640604e-05
5.9787363e-05
5.8828433e-05
5.7736117e-05
5.6478775e-05
5.5008944e-05
5.3265187e-05
5.1184663e-05
4.8654644e-05
4.5563051e-05
4.1812659e-05
3.7391171e-05
3.2276108e-05
2.6743343e-05
2.1104559e-05
1.6114442e-05
1.2342143e-05
1.0173113e-05
1.0134942e-05
1.2213112e-05
1.6472768e-05
2.295622e-05
3.1299776e-05
4.090368e-05
5.1216128e-05
6.1882034e-05
7.2703213e-05
8.3560557e-05
9.4377274e-05
0.00010510303
0.00011570337
0.00012615371
0.00013643597
0.00014653691
0.0001564472
0.00016616086
0.00017567467
0.00018498733
0.00019409843
0.00020300721
0.00021171115
0.0002202043
0.0002284755
0.0002365065
0.00024427004
0.0002517285
0.00025883346
0.00026552724
0.0002717472
0.00027743327
0.00028253774
0.00028703497
0.00029092733
0.00029424575
0.00029704265
0.0002993858
0.00030134055
0.00030298252
0.00030433402
0.00030554253
0.00030634865
0.00030757041
7.8386984e-05
7.8127006e-05
7.7852604e-05
7.7566415e-05
7.7268007e-05
7.695679e-05
7.6632997e-05
7.6297617e-05
7.5951968e-05
7.5597402e-05
7.5235188e-05
7.4866459e-05
7.4492192e-05
7.4113196e-05
7.3730121e-05
7.3343481e-05
7.2953669e-05
7.2560964e-05
7.2165552e-05
7.1767538e-05
7.1366957e-05
7.096378e-05
7.055791e-05
7.0149187e-05
6.9737373e-05
6.932214e-05
6.8903048e-05
6.8479521e-05
6.8050812e-05
6.7615967e-05
6.7173777e-05
6.6722732e-05
6.6260955e-05
6.5786131e-05
6.5295424e-05
6.4785358e-05
6.4251656e-05
6.3689096e-05
6.3091171e-05
6.2449735e-05
6.175463e-05
6.0992456e-05
6.0146592e-05
5.9195066e-05
5.8107139e-05
5.6847717e-05
5.5361973e-05
5.3581166e-05
5.1424332e-05
4.8762925e-05
4.5456816e-05
4.1442261e-05
3.66472e-05
3.1185535e-05
2.5341125e-05
1.9643948e-05
1.4985263e-05
1.1836483e-05
1.0973704e-05
1.2308006e-05
1.6065373e-05
2.2257885e-05
3.0594038e-05
4.044792e-05
5.1186572e-05
6.2380352e-05
7.3788021e-05
8.5267895e-05
9.6729135e-05
0.00010811171
0.00011937436
0.0001304879
0.0001414317
0.00015219151
0.00016275805
0.00017312568
0.000183291
0.00019325135
0.00020300314
0.0002125399
0.00022185019
0.00023091526
0.00023970665
0.00024818422
0.00025629513
0.00026397493
0.00027115187
0.00027775505
0.00028372571
0.00028902881
0.00029366091
0.00029765165
0.00030105648
0.00030394894