/*--------------------------------*- C++ -*----------------------------------*\
| =========                 |                                                 |
| \\      /  F ield         | OpenFOAM: The Open Source CFD Toolbox           |
|  \\    /   O peration     | Version:  2206                                  |
|   \\  /    A nd           | Website:  www.openfoam.com                      |
|    \\/     M anipulation  |                                                 |
\*---------------------------------------------------------------------------*/
FoamFile
{
    version     2.0;
    format      ascii;
    arch        "LSB;label=32;scalar=64";
    class       volScalarField;
    location    "300";
    object      p;
}
// * * * * * * * * * * * * * * * * * * * * * * * * * * * * * * * * * * * * * //

dimensions      [0 2 -2 0 0 0 0];

internalField   nonuniform List<scalar> 
7480
(
0.063458323
0.052543685
0.037109077
0.027783416
0.022571314
0.019466961
0.017518617
0.016030509
0.014728575
0.013640302
0.012774543
0.012101515
0.011593282
0.01122133
0.010959136
0.010784702
0.010677074
0.010622043
0.010597357
0.010606003
0.010630054
0.010652702
0.010672569
0.010687882
0.010696668
0.010698079
0.01069287
0.010681215
0.010661771
0.010635132
0.010602515
0.010564305
0.01052106
0.01047351
0.010421538
0.010365501
0.010305388
0.010240995
0.010173013
0.010101775
0.010027296
0.0099494647
0.009868839
0.0097855642
0.0096995449
0.0096112265
0.0095205053
0.0094274343
0.009332261
0.0092347342
0.0091352351
0.0090337951
0.0089303876
0.008825254
0.0087181983
0.0086094617
0.0084990182
0.0083868825
0.0082731466
0.0081577419
0.0080409071
0.0079225856
0.0078029515
0.007682021
0.0075599051
0.0074366572
0.0073123036
0.0071868832
0.0070604145
0.0069329571
0.0068045152
0.0066751716
0.006544936
0.0064138755
0.0062819279
0.0061490523
0.0060150186
0.0058795457
0.0057420465
0.0056017762
0.0054574985
0.0053076612
0.0051499995
0.0049816766
0.0047989425
0.004597193
0.0043711443
0.0041149157
0.0038238792
0.0034946382
0.0031301782
0.0027381938
0.0023351251
0.0019355291
0.0015809847
0.0012490528
0.0010717388
0.00081760627
0.0015141623
-0.0020290423
0.059764486
0.05152633
0.039166686
0.029924994
0.023692634
0.019966763
0.017764379
0.016183174
0.014844374
0.013739958
0.012863168
0.012180782
0.011664144
0.011284248
0.011014511
0.010833224
0.010719733
0.010659015
0.010636447
0.010639671
0.010655932
0.010675679
0.010693165
0.010706366
0.010713341
0.010713205
0.010706651
0.01069379
0.010673278
0.010645712
0.010612282
0.010573342
0.010529441
0.010481299
0.01042879
0.010372268
0.010311718
0.010246931
0.010178588
0.01010702
0.010032238
0.0099541263
0.0098732437
0.00978973
0.0097034887
0.009614964
0.0095240501
0.0094308
0.0093354593
0.0092377756
0.0091381298
0.0090365514
0.0089330136
0.008827757
0.0087205852
0.0086117388
0.0085011914
0.0083889576
0.0082751287
0.0081596357
0.0080427171
0.0079243157
0.0078046057
0.0076836031
0.0075614188
0.0074381062
0.007313692
0.0071882145
0.0070616925
0.0069341852
0.0068056966
0.0066763094
0.0065460331
0.006414935
0.0062829529
0.0061500462
0.0060159852
0.0058804888
0.0057429704
0.0056026857
0.0054583984
0.0053085565
0.0051508953
0.0049825775
0.0047998528
0.0045981163
0.0043720834
0.0041158719
0.0038248522
0.0034956248
0.0031311711
0.0027391808
0.0023360925
0.0019364593
0.001581868
0.0012498764
0.0010725188
0.00081844361
0.001514823
-0.0020283159
0.055997604
0.049196231
0.038388035
0.029680621
0.023949514
0.020479146
0.018264786
0.016587853
0.015165166
0.014008244
0.013094044
0.012381757
0.01184078
0.011440384
0.01115331
0.010957514
0.010831197
0.010758942
0.010727918
0.010719127
0.010726344
0.010738745
0.010749561
0.010757011
0.010758989
0.010754592
0.010744331
0.010728068
0.010704516
0.010674313
0.010638582
0.010597573
0.010551816
0.010501996
0.010447975
0.010390057
0.010328249
0.010262357
0.010192984
0.010120475
0.010044831
0.0099659305
0.0098843278
0.0098001487
0.0097132933
0.009624202
0.0095327597
0.0094390215
0.0093432283
0.0092451226
0.0091450854
0.0090431411
0.0089392611
0.0088336843
0.0087262114
0.0086170832
0.0085062704
0.0083937869
0.008279723
0.0081640089
0.0080468819
0.0079282832
0.0078083868
0.0076872078
0.0075648569
0.007441387
0.0073168247
0.0071912088
0.0070645574
0.0069369294
0.0068083283
0.0066788364
0.0065484627
0.0064172745
0.0062852096
0.0061522277
0.0060180993
0.0058825441
0.0057449759
0.0056046508
0.0054603334
0.0053104717
0.0051528013
0.0049844846
0.0048017709
0.0046000544
0.0043740494
0.0041178713
0.0038268866
0.0034976885
0.0031332482
0.0027412438
0.0023381098
0.0019383899
0.0015836959
0.001251564
0.0010741299
0.00081994761
0.0015163613
-0.0020273318
0.05311579
0.047461799
0.03811348
0.029980736
0.024522471
0.021033551
0.018724185
0.016996882
0.015544263
0.014354961
0.013406063
0.012660355
0.012089537
0.011663029
0.011352784
0.011136215
0.010990644
0.010901096
0.010854626
0.0108329
0.010829217
0.010831635
0.010833757
0.010833597
0.010828708
0.010818246
0.010802618
0.010781429
0.010753445
0.010719363
0.010680184
0.010636036
0.010587449
0.010535059
0.010478715
0.010418567
0.010354745
0.010287115
0.010216069
0.010142039
0.010065005
0.0099848251
0.009902054
0.0098167945
0.0097289425
0.0096389306
0.009546626
0.0094520919
0.009355561
0.0092567671
0.0091560929
0.0090535537
0.0089491187
0.0088430232
0.008735063
0.0086254798
0.0085142389
0.0084013527
0.0082869107
0.0081708415
0.008053381
0.0079344673
0.0078142739
0.0076928144
0.0075701983
0.0074464777
0.0073216793
0.0071958419
0.0070689834
0.0069411623
0.0068123812
0.0066827219
0.0065521929
0.0064208607
0.006288663
0.0061555598
0.0060213219
0.0058856695
0.0057480172
0.0056076221
0.0054632494
0.0053133481
0.005155654
0.0049873299
0.0048046248
0.0046029324
0.0043769654
0.0041208357
0.0038299035
0.0035007498
0.0031363295
0.002744303
0.0023410975
0.0019412445
0.0015863902
0.001254046
0.0010764859
0.0008220603
0.0015186398
-0.0020260104
0.050491499
0.045670048
0.037629957
0.03031497
0.02515591
0.021621306
0.019188342
0.017364701
0.01584288
0.014631708
0.013678635
0.012928292
0.012339667
0.011890434
0.011560897
0.011326787
0.01116491
0.011060065
0.0109979
0.01096209
0.010945128
0.010935919
0.010928851
0.010921093
0.010909413
0.01089282
0.010871673
0.01084542
0.010812793
0.010774543
0.010731536
0.010683809
0.010631931
0.010576521
0.010517425
0.010454614
0.01038837
0.010318606
0.010245506
0.010169595
0.010090828
0.010009045
0.0099248032
0.0098381762
0.0097490613
0.0096578795
0.0095644701
0.009468912
0.0093714295
0.0092717458
0.0091702474
0.0090669372
0.0089617822
0.0088550142
0.008746423
0.0086362508
0.0085244546
0.0084110459
0.0082961134
0.0081795842
0.0080616925
0.0079423717
0.0078217949
0.0076999733
0.0075770149
0.0074529701
0.0073278656
0.0072017406
0.0070746128
0.0069465401
0.0068175246
0.0066876474
0.0065569161
0.0064253965
0.0062930255
0.0061597634
0.0060253809
0.0058895992
0.0057518334
0.0056113419
0.0054668908
0.0053169303
0.0051591974
0.0049908555
0.0048081538
0.0046064856
0.0043805617
0.0041244892
0.0038336189
0.0035045157
0.003140113
0.0027480502
0.0023447442
0.0019447171
0.0015896513
0.0012570438
0.0010793055
0.00082458972
0.0015213846
-0.0020243976
0.048129217
0.043904461
0.036993822
0.03045621
0.02558266
0.022111546
0.019640994
0.017761678
0.016204572
0.014950984
0.013955561
0.013168362
0.012552091
0.012083472
0.01174422
0.011497906
0.011319483
0.011203588
0.011132377
0.011088957
0.011064046
0.011046059
0.011030047
0.011013588
0.010993876
0.010970524
0.010943965
0.0109131
0.01087627
0.010834229
0.010787669
0.010736512
0.010681381
0.010622924
0.010560977
0.010495442
0.010426682
0.010354607
0.01027931
0.010201365
0.010120701
0.010037138
0.0099512522
0.0098630819
0.0097725265
0.0096800074
0.0095853338
0.0094886003
0.0093900222
0.0092893078
0.0091868502
0.0090826389
0.0089766405
0.0088690845
0.0087597537
0.00864889
0.0085364402
0.0084224163
0.0083069068
0.0081898359
0.0080714358
0.0079516348
0.0078306054
0.0077083567
0.0075849946
0.0074605667
0.0073350995
0.0072086333
0.0070811853
0.006952813
0.0068235179
0.006693381
0.0065624086
0.0064306653
0.0062980871
0.0061646343
0.0060300777
0.0058941387
0.0057562335
0.0056156215
0.0054710703
0.0053210315
0.0051632434
0.0049948708
0.0048121635
0.0046105144
0.0043846319
0.0041286166
0.0038378071
0.0035087488
0.0031443502
0.0027522285
0.002348789
0.0019485499
0.001593228
0.0012603213
0.001082357
0.00082734125
0.001524365
-0.0020225803
0.046041324
0.042306764
0.036325857
0.03047105
0.025897396
0.022527681
0.02004677
0.018133083
0.016559557
0.015282114
0.014258226
0.013440428
0.012793649
0.012294124
0.011926165
0.011652978
0.011451714
0.011322053
0.011241823
0.011190337
0.011158695
0.011137321
0.011119617
0.011101473
0.011078787
0.011050703
0.011018547
0.010982091
0.010940207
0.010894202
0.010844433
0.010790331
0.010732436
0.01067136
0.010606863
0.010538836
0.01046773
0.010393419
0.010315963
0.010236
0.010153424
0.010068036
0.0099804467
0.0098906594
0.0097985728
0.0097046243
0.0096085974
0.0095106007
0.0094108403
0.0093090039
0.0092054977
0.0091002968
0.0089933666
0.0088849368
0.0087747804
0.0086631424
0.0085499615
0.0084352505
0.0083190956
0.0082014161
0.0080824435
0.0079621007
0.0078405604
0.0077178293
0.007594011
0.007469149
0.0073432701
0.0072164156
0.0070886023
0.0069598878
0.006830273
0.0066998386
0.0065685894
0.006436589
0.0063037726
0.0061700999
0.0060353415
0.0058992194
0.0057611502
0.0056203948
0.005475722
0.0053255855
0.0051677251
0.0049993074
0.0048165828
0.0046149441
0.0043890962
0.0041331317
0.0038423742
0.0035133471
0.0031489312
0.0027567221
0.0023531131
0.0019526252
0.0015970058
0.0012637715
0.0010855363
0.00083021602
0.0015274675
-0.002020589
0.044162961
0.040864965
0.035676217
0.030426447
0.026144432
0.022882928
0.020410899
0.018477688
0.016891308
0.015594967
0.014549486
0.013709995
0.013041504
0.012516514
0.012124276
0.01182816
0.011602549
0.011450336
0.011348971
0.01127952
0.011234057
0.011205386
0.011183856
0.011163008
0.011140677
0.011114424
0.011083671
0.011047604
0.011004052
0.010954827
0.010901254
0.010843433
0.01078249
0.010719034
0.010652426
0.010582369
0.010509358
0.010433172
0.010353832
0.010272064
0.010187728
0.010100621
0.010011403
0.0099200443
0.0098264476
0.0097310736
0.0096336793
0.0095343951
0.0094334198
0.0093304197
0.0092258217
0.0091195839
0.0090116703
0.0089023127
0.008791272
0.0086788015
0.0085648339
0.0084493824
0.0083325297
0.0082141892
0.0080945935
0.00797366
0.007851562
0.0077283021
0.007603982
0.0074786427
0.0073523106
0.0072250268
0.0070968085
0.0069677136
0.0068377428
0.0067069763
0.0065754176
0.0064431291
0.0063100453
0.0061761253
0.006041139
0.0059048089
0.005766552
0.0056256307
0.0054808151
0.0053305611
0.0051726103
0.0050041314
0.0048213756
0.0046197351
0.0043939106
0.0041379853
0.0038472653
0.0035182498
0.0031537907
0.0027614631
0.0023576484
0.0019568773
0.0016009229
0.0012673379
0.0010887897
0.00083316252
0.0015306257
-0.0020184199
0.042458427
0.03953361
0.035032331
0.030339117
0.026343459
0.023195975
0.02074755
0.018805225
0.01720919
0.015898041
0.014833833
0.013974161
0.013284546
0.012738524
0.0123227
0.01200486
0.01176039
0.011588145
0.011468064
0.011382314
0.011321543
0.011278498
0.011244299
0.011213082
0.011184479
0.011156425
0.011125604
0.011090399
0.011049903
0.011003832
0.010952471
0.010894866
0.010832207
0.010766093
0.010696728
0.010624313
0.010549541
0.010471863
0.010391062
0.010307906
0.010222169
0.010133632
0.01004302
0.009950268
0.0098552972
0.0097586014
0.0096599113
0.009559391
0.0094572352
0.0093530887
0.0092474065
0.0091401284
0.0090312207
0.0089209188
0.008808971
0.0086956419
0.008580857
0.0084646318
0.0083470466
0.0082280098
0.0081077557
0.007986196
0.0078635054
0.0077396807
0.0076148228
0.0074889718
0.0073621527
0.0072344058
0.0071057488
0.0069762404
0.0068458814
0.0067147519
0.0065828539
0.0064502493
0.0063168711
0.0061826782
0.0060474394
0.0059108776
0.0057724102
0.0056313009
0.0054863212
0.0053359292
0.0051778687
0.0050093105
0.0048265067
0.0046248485
0.0043990319
0.004143129
0.0038524271
0.0035233996
0.0031588688
0.0027663915
0.0023623371
0.0019612529
0.0016049307
0.0012709775
0.0010920763
0.00083614355
0.0015337842
-0.0020160577
0.040906204
0.038297295
0.034382758
0.030196471
0.026487368
0.023468556
0.021061087
0.019120933
0.017519191
0.016195957
0.015114606
0.014235676
0.013525912
0.012959646
0.012521013
0.012182213
0.011919484
0.011728018
0.011589963
0.011489223
0.011414996
0.011358903
0.011313667
0.011273071
0.01123588
0.011199836
0.011161677
0.01112072
0.011078561
0.011033163
0.010983278
0.010928955
0.010870006
0.010806683
0.010738474
0.010665297
0.010588713
0.010509032
0.010426475
0.010342039
0.01025523
0.010165644
0.01007402
0.0099802088
0.0098841391
0.0097863472
0.0096865364
0.0095849204
0.0094816953
0.009376486
0.0092697859
0.0091615163
0.00905165
0.0089404286
0.0088275877
0.0087134064
0.0085978022
0.0084807953
0.0083624656
0.0082427169
0.0081217863
0.0079995798
0.0078762745
0.0077518622
0.0076264428
0.007500055
0.0073727232
0.007244487
0.0071153644
0.0069854154
0.0068546411
0.0067231219
0.0065908586
0.0064579126
0.0063242159
0.0061897264
0.0060542123
0.0059173964
0.0057786964
0.0056373774
0.0054922121
0.005341661
0.0051834699
0.0050148121
0.0048319402
0.0046302447
0.0044044158
0.0041485141
0.0038578065
0.0035287407
0.0031641092
0.0027714529
0.0023671287
0.0019657069
0.0016089893
0.0012746557
0.0010953638
0.00083912958
0.0015368939
-0.0020134799
0.03948785
0.037149205
0.033732557
0.03000091
0.026572331
0.023694151
0.021344281
0.019419688
0.017819288
0.016488425
0.015392677
0.014496069
0.013767146
0.013181022
0.012720656
0.012361287
0.012080214
0.01186987
0.011714305
0.011597972
0.011509878
0.01144158
0.011386072
0.011336927
0.011292006
0.011248887
0.011204417
0.011158137
0.011110903
0.011060412
0.011005901
0.010949611
0.010891411
0.01082998
0.010764697
0.010695184
0.010621535
0.010543431
0.010460652
0.010374949
0.010286655
0.010195792
0.010103267
0.010008689
0.0099118638
0.0098133154
0.0097126795
0.0096102178
0.0095061285
0.0094000191
0.0092924356
0.0091832822
0.0090725443
0.008960474
0.0088467942
0.0087318035
0.0086154109
0.0084976441
0.0083785836
0.0082581298
0.0081365247
0.0080136683
0.007889742
0.0077647329
0.0076387407
0.0075118024
0.0073839419
0.0072551989
0.0071255918
0.0069951818
0.006863971
0.0067320404
0.00659939
0.0064660812
0.0063320444
0.0061972372
0.0060614268
0.005924336
0.0057853825
0.0056438325
0.00549846
0.0053477279
0.0051893839
0.0050206038
0.0048376409
0.0046358845
0.0044100189
0.0041540929
0.0038633529
0.0035342211
0.0031694608
0.0027765994
0.0023719805
0.0019702027
0.0016130677
0.0012783464
0.0010986273
0.00084209796
0.0015399111
-0.0020106559
0.03818749
0.036082459
0.033088338
0.029761469
0.026602768
0.023872466
0.021593229
0.019696381
0.018105078
0.016772046
0.015665851
0.014754181
0.01400775
0.01340276
0.012921706
0.012542167
0.012242727
0.012013857
0.011841
0.011709063
0.011607048
0.011526511
0.011460427
0.011402344
0.01134962
0.011299825
0.011249885
0.01119891
0.011147081
0.011092347
0.0110343
0.010974573
0.010912778
0.010847735
0.010780349
0.010711478
0.010639779
0.010564393
0.010485129
0.010402272
0.010315546
0.010224647
0.010131182
0.010035496
0.0099377735
0.0098386005
0.0097374079
0.0096344113
0.0095297547
0.0094230011
0.0093147538
0.0092048959
0.0090934345
0.0089806382
0.0088662193
0.0087505025
0.008633389
0.0085149166
0.0083951684
0.0082740424
0.0081517877
0.0080282987
0.007903763
0.0077781639
0.0076516016
0.0075241116
0.007395718
0.0072664609
0.0071363592
0.007005476
0.0068738143
0.0067414567
0.0066084025
0.0064747134
0.0063403187
0.0062051757
0.0060690504
0.0059316656
0.0057924389
0.0056506376
0.0055050365
0.0053541009
0.0051955804
0.0050266532
0.0048435732
0.0046417288
0.0044157984
0.0041598194
0.003869018
0.0035397923
0.0031748774
0.0027817896
0.002376857
0.0019747114
0.0016171422
0.0012820303
0.0011018486
0.00084503177
0.0015427961
-0.0020075471
0.036991524
0.035090081
0.032455078
0.029486857
0.026584693
0.024006221
0.021807643
0.019948898
0.018373999
0.017044181
0.015931709
0.015007991
0.014246183
0.013623819
0.013123405
0.012724463
0.012406945
0.012159976
0.011969978
0.011822506
0.011706593
0.01161375
0.011536893
0.011469659
0.011408994
0.011352364
0.011296674
0.011240731
0.011184463
0.011126105
0.011065069
0.011002382
0.010937604
0.01086987
0.0108
0.010728483
0.010653952
0.010576733
0.010498153
0.010417221
0.010333086
0.010245469
0.010154614
0.010060225
0.0099624326
0.0098625042
0.0097604779
0.0096569
0.0095518363
0.0094446843
0.0093360486
0.0092257415
0.0091137781
0.0090004441
0.0088854406
0.0087691283
0.008651402
0.0085323148
0.0084119545
0.0082902181
0.0081673647
0.0080432835
0.0079181707
0.0077920065
0.0076648931
0.0075368648
0.0074079469
0.00727818
0.0071475843
0.0070162247
0.0068841059
0.0067513124
0.0066178438
0.006483762
0.0063489959
0.0062135024
0.0060770466
0.0059393512
0.0057998334
0.0056577616
0.005511911
0.0053607493
0.0052020277
0.0050329269
0.0048497014
0.0046477387
0.0044217122
0.0041656488
0.003874756
0.0035454094
0.0031803174
0.0027869873
0.0023817285
0.0019792103
0.0016211955
0.0012856942
0.0011050149
0.00084791857
0.0015455116
-0.0020041065
0.035888227
0.0341654
0.031836358
0.029184739
0.026524032
0.024098702
0.021988363
0.020176453
0.018624741
0.017303312
0.016188691
0.015256044
0.01448117
0.013843136
0.013324848
0.012907504
0.012572418
0.012307881
0.012101045
0.011938174
0.01180839
0.011703188
0.011615468
0.011538985
0.01147027
0.011406608
0.011344949
0.011283883
0.011223092
0.011160933
0.011096658
0.011031007
0.010963652
0.010893804
0.01082192
0.010748209
0.010671589
0.010592523
0.010511919
0.010428709
0.010343182
0.010256381
0.010167429
0.01007559
0.0099807845
0.0098831146
0.009781963
0.0096781951
0.009572526
0.0094647812
0.0093557816
0.009245203
0.0091329723
0.0090193408
0.008903969
0.0087872499
0.0086690689
0.0085495002
0.0084286399
0.0083063868
0.0081830145
0.0080584071
0.0079327727
0.0078060891
0.007678462
0.0075499257
0.007420507
0.0072902482
0.0071591709
0.0070273425
0.0068947698
0.00676154
0.0066276531
0.0064931724
0.0063580264
0.0062221722
0.0060853738
0.0059473542
0.0058075299
0.00566517
0.0055190504
0.0053676404
0.0052086927
0.0050393905
0.0048559891
0.0046538756
0.0044277192
0.0041715383
0.0038805235
0.0035510309
0.0031857435
0.0027921612
0.002386571
0.001983682
0.0016252154
0.0012893296
0.0011081176
0.00085074962
0.0015480217
-0.0020002782
0.034867447
0.033302195
0.031234648
0.028861796
0.026426402
0.024153248
0.022136614
0.020378799
0.018856514
0.017548443
0.016435731
0.015497316
0.01471178
0.014059899
0.013525299
0.013090673
0.012738677
0.01245718
0.012233916
0.012055866
0.011912308
0.01179476
0.011696137
0.01161028
0.011533381
0.011462556
0.011394811
0.011328511
0.011263068
0.011196936
0.011129277
0.011060587
0.010990561
0.010918421
0.01084444
0.010768816
0.010690658
0.010610181
0.010527941
0.010443111
0.010356132
0.010267657
0.010176822
0.010084195
0.0099903971
0.009894607
0.0097959772
0.0096948028
0.0095908826
0.0094836328
0.0093743305
0.0092632657
0.0091506831
0.0090368453
0.0089212882
0.008804379
0.0086859503
0.0085660836
0.0084448803
0.0083222425
0.0081984636
0.0080734246
0.0079473494
0.0078202148
0.0076921321
0.0075631366
0.0074332577
0.00730254
0.0071710071
0.0070387299
0.0069057172
0.0067720601
0.0066377595
0.0065028809
0.0063673526
0.0062311328
0.0060939844
0.0059556306
0.0058154873
0.0056728245
0.0055264177
0.0053747383
0.00521554
0.0050460084
0.0048623995
0.0046601011
0.0044337795
0.0041774471
0.0038862804
0.0035566189
0.0031911224
0.0027972845
0.0023913647
0.0019881141
0.001629194
0.0012929321
0.0011111516
0.00085351913
0.0015502904
-0.0019959969
0.033920373
0.032494756
0.030651524
0.028523755
0.026297059
0.024173185
0.022253852
0.020556014
0.019068775
0.017778788
0.016671949
0.015730955
0.014937237
0.014273433
0.01372414
0.013273447
0.012905313
0.012607526
0.012368319
0.012175371
0.012018192
0.011888359
0.011778819
0.01168349
0.011598304
0.011520217
0.011446256
0.01137459
0.011304385
0.011234175
0.011163037
0.011091221
0.011018411
0.01094386
0.010867709
0.01079012
0.010710299
0.010628316
0.010544664
0.010458704
0.010370659
0.010280906
0.010188815
0.010095005
0.0099997015
0.0099023242
0.0098036872
0.0097036929
0.0096015291
0.0094968434
0.0093897135
0.0092797556
0.0091673035
0.0090531484
0.0089372526
0.0088201613
0.008701618
0.0085816379
0.0084602822
0.0083374336
0.0082134003
0.0080880584
0.0079616524
0.0078341604
0.0077057026
0.007576317
0.0074460369
0.0073149102
0.0071829634
0.0070502709
0.0069168448
0.0067827803
0.0066480804
0.0065128131
0.0063769077
0.0062403234
0.0061028227
0.0059641295
0.0058236587
0.0056806812
0.005533972
0.005382004
0.0052225316
0.0050527431
0.0048688951
0.0046663773
0.0044398548
0.0041833367
0.0038919892
0.0035621392
0.0031964252
0.002802335
0.0023960944
0.0019924979
0.0016331275
0.001296501
0.0011141152
0.00085622382
0.0015522814
-0.0019911872
0.033039328
0.031737907
0.030087869
0.028175455
0.026140867
0.024161794
0.022341712
0.020708435
0.019261176
0.017993696
0.01689657
0.01595618
0.015156823
0.014483105
0.0139208
0.013455336
0.013071942
0.012758594
0.01250399
0.012296487
0.012125889
0.011983867
0.011863428
0.011758562
0.011665006
0.011579565
0.011499264
0.011422109
0.011347049
0.011272656
0.011197932
0.011122901
0.011047227
0.010970195
0.010891822
0.010812195
0.010730612
0.010647057
0.010561957
0.010474772
0.010385593
0.010294777
0.010201849
0.010107166
0.010010812
0.009912431
0.0098128047
0.0097113604
0.0096080609
0.0095039091
0.0093982397
0.0092902334
0.009180037
0.0090674656
0.008952113
0.0088348984
0.0087160797
0.0085959308
0.0084745006
0.0083515892
0.008227473
0.0081019912
0.0079753995
0.007847674
0.0077189475
0.007589263
0.0074586607
0.0073271931
0.0071948904
0.0070618318
0.0069280327
0.0067935934
0.0066585193
0.0065228825
0.0063866133
0.0062496732
0.0061118246
0.0059727921
0.0058319901
0.0056886902
0.0055416667
0.0053893939
0.0052296264
0.005059555
0.0048754376
0.0046726663
0.0044459076
0.0041891709
0.0038976158
0.0035675612
0.0032016264
0.0028072939
0.0024007486
0.0019968286
0.0016370156
0.0013000386
0.0011170096
0.0008588624
0.0015539586
-0.0019857627
0.032217597
0.031026985
0.02954404
0.02782092
0.025962268
0.02412228
0.022401959
0.020836628
0.019433557
0.018192648
0.017108903
0.016172259
0.015369842
0.014688293
0.014114715
0.013635853
0.013238176
0.012910055
0.012640662
0.012419006
0.012235238
0.012081165
0.011949875
0.011835438
0.011733448
0.01164057
0.011553819
0.011471062
0.011391053
0.011312372
0.011233955
0.011155627
0.011077015
0.01099743
0.010916768
0.010835048
0.01075165
0.010666485
0.010579887
0.010491397
0.010401033
0.010309121
0.010215268
0.010119698
0.010022541
0.0099235158
0.0098230893
0.0097207623
0.0096166535
0.0095115026
0.0094045761
0.0092962683
0.0091869379
0.0090758581
0.0089626151
0.0088472161
0.0087292942
0.0086092702
0.0084876556
0.0083645813
0.0082404106
0.0081149047
0.0079882784
0.0078604699
0.0077316105
0.0076017452
0.0074709224
0.0073392019
0.0072066194
0.00707326
0.0069391432
0.0068043754
0.006668965
0.0065329887
0.0063963789
0.0062591002
0.0061209152
0.0059815502
0.0058404191
0.0056967941
0.005549449
0.005396859
0.0052367788
0.0050664015
0.0048819866
0.0046789299
0.0044519016
0.0041949154
0.0039031288
0.0035728577
0.0032067044
0.0028121464
0.0024053191
0.0020011046
0.0016408605
0.00130355
0.0011198379
0.00086143503
0.0015552912
-0.0019796245
0.031449281
0.030357811
0.029020005
0.027463448
0.025765271
0.024057742
0.022436451
0.020941355
0.019585944
0.018375263
0.017308352
0.016378515
0.015575625
0.01488838
0.014305321
0.013814504
0.013403612
0.013061571
0.012778055
0.012542708
0.012346069
0.012180124
0.012038067
0.011914055
0.011803585
0.011703205
0.011609906
0.011521443
0.011436393
0.011353322
0.011271108
0.0111894
0.011107776
0.011025557
0.010942542
0.010858679
0.010773412
0.01068659
0.010598453
0.010508615
0.010417041
0.010324001
0.010229158
0.010132664
0.010034666
0.009934913
0.0098337484
0.0097308246
0.009626184
0.0095203103
0.0094126396
0.0093036245
0.0091932026
0.0090812348
0.0089683892
0.008854229
0.0087379947
0.0086198121
0.0084993734
0.0083766569
0.0082523997
0.0081267543
0.008000084
0.0078722781
0.0077434151
0.0076135055
0.0074825888
0.007350727
0.0072179611
0.0070843841
0.0069500209
0.0068149854
0.0066792897
0.0065430162
0.0064060999
0.0062685093
0.0061300083
0.0059903251
0.0058488736
0.0057049271
0.0055572583
0.0054043438
0.0052439377
0.0050732358
0.0048884991
0.0046851286
0.0044578006
0.0042005372
0.0039084991
0.0035780042
0.0032116408
0.0028168807
0.002409801
0.002005327
0.0016446675
0.0013070426
0.0011226057
0.00086394284
0.001556252
-0.0019726605
0.030729191
0.02972665
0.028515459
0.0271057
0.025553444
0.023971139
0.022447103
0.021023543
0.019718535
0.018541294
0.017494418
0.016574333
0.015773534
0.015082759
0.014492053
0.013990785
0.013567829
0.013212787
0.012915874
0.012667355
0.012458196
0.012280602
0.012127899
0.011994339
0.011875369
0.011767437
0.011667508
0.011573244
0.011483065
0.011395508
0.011309397
0.011224225
0.01113951
0.011054581
0.010969146
0.010883087
0.010795894
0.010707362
0.01061765
0.010526424
0.010433607
0.010339408
0.010243543
0.010146111
0.010047242
0.0099467103
0.0098447905
0.0097412169
0.0096359934
0.0095295235
0.0094213857
0.0093118374
0.0092007749
0.0090881863
0.0089745472
0.0088594028
0.0087430741
0.0086257222
0.0085066217
0.0083857098
0.0082628006
0.0081376927
0.0080110317
0.0078831153
0.007754211
0.0076243155
0.0074934143
0.0073615343
0.0072287025
0.007095012
0.0069604922
0.0068252657
0.0066893498
0.006552834
0.006415657
0.006277792
0.0061390047
0.0059990262
0.0058572706
0.0057130131
0.0055650252
0.0054117848
0.0052510455
0.0050800057
0.0048949282
0.0046912205
0.0044635675
0.0042060042
0.0039136994
0.0035829789
0.0032164201
0.0028214879
0.002414192
0.0020094995
0.0016484438
0.0013105259
0.00112532
0.00086638753
0.0015567634
-0.0019647452
0.030052741
0.029130167
0.028029903
0.026749791
0.025329928
0.023865263
0.022435851
0.021084251
0.01983169
0.018690631
0.017666707
0.016759168
0.01596297
0.015270839
0.014674351
0.014164186
0.013730391
0.01336333
0.013053805
0.012792694
0.012571419
0.012382443
0.012219251
0.012076207
0.01194874
0.011833225
0.011726602
0.011626452
0.011531063
0.01143893
0.011348826
0.011260107
0.011172227
0.011084509
0.010996587
0.010908277
0.010819098
0.010728803
0.010637475
0.01054482
0.010450722
0.010355336
0.010258421
0.010160027
0.010060262
0.0099589307
0.0098562466
0.0097519923
0.0096461497
0.0095390664
0.0094304016
0.0093203404
0.009208835
0.009095845
0.0089816618
0.0088659397
0.0087490336
0.0086307693
0.0085112065
0.0083908103
0.0082690288
0.0081455296
0.0080202613
0.0078930124
0.0077642091
0.0076342322
0.007503291
0.0073714298
0.0072386243
0.0071049313
0.0069703621
0.00683504
0.0066989853
0.0065622962
0.0064249163
0.0062868254
0.0061477915
0.0060075499
0.0058655153
0.005720965
0.0055726698
0.0054191094
0.0052580363
0.0050866521
0.0049012216
0.0046971598
0.0044691632
0.0042112834
0.0039187032
0.0035877619
0.003221029
0.0028259621
0.0024184925
0.0020136284
0.001652199
0.0013140111
0.0011279893
0.00086877312
0.0015567458
-0.0019557436
0.029415878
0.028565382
0.027562713
0.026397376
0.025097456
0.023742719
0.022404626
0.021124641
0.019925908
0.018823296
0.017824931
0.016932551
0.016143383
0.015452054
0.014851665
0.014334197
0.013890851
0.013512814
0.013191516
0.012918451
0.012685517
0.012485473
0.01231199
0.012159561
0.012023629
0.011900522
0.011787157
0.011681051
0.011580379
0.011483587
0.0113894
0.011297053
0.011205933
0.011115352
0.011024875
0.010934256
0.010843033
0.010750921
0.010657935
0.010563804
0.010468386
0.010371781
0.010273783
0.0101744
0.010073719
0.0099715667
0.0098681036
0.0097631502
0.0096566714
0.009548967
0.009439751
0.0093291574
0.0092171703
0.0091037454
0.0089891201
0.0088730379
0.0087556961
0.0086369245
0.0085168834
0.0083957212
0.008273285
0.0081500182
0.0080257013
0.0078998307
0.0077724009
0.0076431755
0.0075124084
0.0073804926
0.0072476492
0.0071139748
0.006979434
0.0068441148
0.0067080174
0.0065712401
0.0064337293
0.006295473
0.0061562429
0.0060157798
0.0058734998
0.0057286835
0.005580101
0.0054262341
0.0052648347
0.0050931076
0.0049073199
0.0047028956
0.0044745448
0.0042163405
0.0039234839
0.0035923344
0.0032254564
0.0028302994
0.0024227051
0.0020177219
0.0016559443
0.001317511
0.0011306236
0.00087110232
0.0015561444
-0.0019454992
0.02881501
0.028029635
0.027113186
0.026049727
0.024858381
0.023605914
0.022355322
0.021145946
0.020001814
0.018939439
0.017968908
0.017094095
0.016314276
0.015625867
0.015023457
0.014500309
0.014048753
0.013660838
0.013328662
0.013044335
0.012800253
0.012589503
0.012405968
0.01224429
0.012099954
0.011969269
0.011849133
0.011737018
0.011630999
0.011529475
0.01143112
0.011335068
0.011240636
0.011147117
0.01105402
0.010961034
0.010867708
0.010773726
0.010679035
0.010583384
0.010486604
0.010388748
0.010289631
0.010189231
0.010087608
0.0099846103
0.0098803504
0.0097746799
0.0096675506
0.009559215
0.0094494338
0.0093383032
0.0092258177
0.0091119329
0.0089968509
0.0088803645
0.0087626227
0.0086435162
0.0085231173
0.0084015043
0.0082786212
0.008154738
0.0080297237
0.0079038573
0.00777718
0.0076491295
0.0075196813
0.0073885589
0.0072559398
0.007122231
0.0069876511
0.0068523438
0.0067162684
0.0065794886
0.0064419311
0.0063035835
0.0061642194
0.0060235866
0.0058811042
0.0057360571
0.0055872155
0.0054330641
0.0052713543
0.0050992947
0.0049131552
0.0047083698
0.0044796645
0.0042211374
0.0039280135
0.0035966775
0.0032296924
0.0028344978
0.0024268348
0.0020217905
0.0016596932
0.0013210403
0.0011332337
0.0008733764
0.0015549254
-0.0019338333
0.02824695
0.027520545
0.026680578
0.025707799
0.024614708
0.023457042
0.022289776
0.02114945
0.020060135
0.019039324
0.018098563
0.017243496
0.016475213
0.015791779
0.015189212
0.01466202
0.014203637
0.013806993
0.013464883
0.01317004
0.012915373
0.012694325
0.012501021
0.012330267
0.012177622
0.012039397
0.011912484
0.01179432
0.011682904
0.011576581
0.011473984
0.011374154
0.011276341
0.011179815
0.011084031
0.010988621
0.010893135