/*--------------------------------*- C++ -*----------------------------------*\
| =========                 |                                                 |
| \\      /  F ield         | OpenFOAM: The Open Source CFD Toolbox           |
|  \\    /   O peration     | Version:  2206                                  |
|   \\  /    A nd           | Website:  www.openfoam.com                      |
|    \\/     M anipulation  |                                                 |
\*---------------------------------------------------------------------------*/
FoamFile
{
    version     2.0;
    format      ascii;
    arch        "LSB;label=32;scalar=64";
    class       surfaceScalarField;
    location    "300";
    object      phi;
}
// * * * * * * * * * * * * * * * * * * * * * * * * * * * * * * * * * * * * * //

dimensions      [0 3 -1 0 0 0 0];

oriented        oriented;

internalField   nonuniform List<scalar> 
14782
(
0.0006460889
7.5105658e-05
-0.00072119456
0.00055259219
9.3496712e-05
0.00046298364
8.9608557e-05
0.00039094661
7.203703e-05
0.00033960163
5.134498e-05
0.00030344119
3.6160437e-05
0.00027664814
2.6793047e-05
0.00025549308
2.1155063e-05
0.00023799564
1.749744e-05
0.00022325701
1.4738633e-05
0.00021078462
1.2472388e-05
0.00020021381
1.0570808e-05
0.00019124215
8.9716594e-06
0.00018360815
7.634003e-06
0.00017708845
6.5196986e-06
0.00017150346
5.5849915e-06
0.00016670475
4.7987063e-06
0.00016257193
4.1328251e-06
0.00015897659
3.5953396e-06
0.00015583779
3.1388012e-06
0.00015306649
2.7713001e-06
0.00015058357
2.482918e-06
0.0001483355
2.2480711e-06
0.00014628202
2.053478e-06
0.00014439135
1.8906647e-06
0.00014263833
1.7530213e-06
0.00014100361
1.6347251e-06
0.00013946926
1.5343426e-06
0.00013801836
1.4509065e-06
0.00013663944
1.3789168e-06
0.00013532565
1.3137922e-06
0.0001340703
1.2553464e-06
0.0001328672
1.2031026e-06
0.00013171097
1.1562263e-06
0.00013059705
1.1139242e-06
0.00012951983
1.0772234e-06
0.00012847432
1.0455069e-06
0.0001274584
1.0159192e-06
0.00012646921
9.891897e-07
0.00012550397
9.6523519e-07
0.00012456053
9.4344909e-07
0.00012363669
9.2383991e-07
0.00012273128
9.054017e-07
0.00012184316
8.8812575e-07
0.00012097095
8.7220953e-07
0.00012011389
8.570609e-07
0.00011927063
8.4325415e-07
0.00011844009
8.3054807e-07
0.0001176217
8.1838569e-07
0.00011681455
8.0715419e-07
0.00011601826
7.9628728e-07
0.00011523241
7.8584464e-07
0.00011445652
7.7589787e-07
0.00011369034
7.6617413e-07
0.00011293335
7.5699101e-07
0.00011218533
7.4801831e-07
0.00011144592
7.3941679e-07
0.00011071469
7.3122629e-07
0.00010999142
7.2326879e-07
0.0001092759
7.1552537e-07
0.00010856816
7.077312e-07
0.00010786804
7.0012083e-07
0.00010717538
6.9266029e-07
0.00010648989
6.854966e-07
0.00010581115
6.7873316e-07
0.00010513856
6.7259021e-07
0.00010447135
6.6721301e-07
0.00010380876
6.625882e-07
0.00010315008
6.5868517e-07
0.00010249462
6.5545445e-07
0.00010184169
6.529303e-07
0.00010119059
6.5110507e-07
0.00010054046
6.5012592e-07
9.9890249e-05
6.5021178e-07
9.9238515e-05
6.5173462e-07
9.8583457e-05
6.5505728e-07
9.7922764e-05
6.6069285e-07
9.7253613e-05
6.6915163e-07
9.6572544e-05
6.8106829e-07
9.5875537e-05
6.9700732e-07
9.5157934e-05
7.1760301e-07
9.4414638e-05
7.4329566e-07
9.3640185e-05
7.7445335e-07
9.2829101e-05
8.1108412e-07
9.1976187e-05
8.5291383e-07
9.1076975e-05
8.9921229e-07
9.0128266e-05
9.4870827e-07
8.9128666e-05
9.9960037e-07
8.8079524e-05
1.0491414e-06
8.6985419e-05
1.0941052e-06
8.5855764e-05
1.1296555e-06
8.4704764e-05
1.1509993e-06
8.354929e-05
1.1554739e-06
8.2407081e-05
1.1422098e-06
8.1295193e-05
1.1118875e-06
8.0216693e-05
1.0784999e-06
7.9180256e-05
1.0364373e-06
7.8126758e-05
1.0534986e-06
7.7458277e-05
6.684807e-07
1.472446e-06
0.00078805461
8.1167953e-05
-0.00079411691
0.00076947806
0.00011207326
0.00073456342
0.0001245232
0.00068714749
0.00011945297
0.00063487567
0.0001036168
0.00058509638
8.5939734e-05
0.00054129622
7.0593199e-05
0.00050408162
5.8369665e-05
0.00047274244
4.8836619e-05
0.00044630754
4.1173536e-05
0.00042386916
3.4910771e-05
0.00040469937
2.9740599e-05
0.00038824577
2.5425259e-05
0.00037407386
2.1805905e-05
0.00036183372
1.8759842e-05
0.00035123747
1.6181245e-05
0.00034203012
1.4006054e-05
0.00033398522
1.2177725e-05
0.00032691104
1.0669519e-05
0.00032065115
9.3986925e-06
0.00031506638
8.3560662e-06
0.00031004024
7.5090653e-06
0.00030547787
6.810439e-06
0.00030130646
6.2248851e-06
0.00029746571
5.7314144e-06
0.00029390771
5.3110237e-06
0.00029059403
4.9483998e-06
0.00028749009
4.6382841e-06
0.0002845662
4.3748013e-06
0.00028179994
4.1451722e-06
0.00027917484
3.9388898e-06
0.00027667593
3.754257e-06
0.00027428991
3.5891258e-06
0.00027200507
3.4410702e-06
0.00026981192
3.3070684e-06
0.00026769918
3.1899637e-06
0.00026565724
3.0874529e-06
0.00026368114
2.9920153e-06
0.0002617642
2.9061294e-06
0.00025990062
2.8288187e-06
0.00025808579
2.7582755e-06
0.00025631538
2.6942515e-06
0.00025458621
2.6345746e-06
0.00025289536
2.5789739e-06
0.00025124
2.5275685e-06
0.00024961792
2.479141e-06
0.00024802638
2.4347898e-06
0.00024646309
2.3938435e-06
0.00024492643
2.3550467e-06
0.00024341457
2.3190078e-06
0.00024192631
2.2845501e-06
0.00024046048
2.2516718e-06
0.00023901596
2.2204248e-06
0.00023759189
2.1902442e-06
0.0002361872
2.1616765e-06
0.00023480117
2.134047e-06
0.00023343293
2.1076585e-06
0.00023208158
2.0825716e-06
0.00023074649
2.058362e-06
0.00022942714
2.0348813e-06
0.0002281233
2.0115697e-06
0.00022683454
1.9888819e-06
0.00022556041
1.9667831e-06
0.00022430033
1.9455812e-06
0.0002230535
1.9255626e-06
0.0002218188
1.9072902e-06
0.00022059486
1.8911538e-06
0.00021938028
1.877164e-06
0.0002181737
1.8652649e-06
0.0002169738
1.8553598e-06
0.00021577921
1.8475177e-06
0.00021458857
1.8417418e-06
0.00021340031
1.8383933e-06
0.00021221245
1.8380725e-06
0.00021102244
1.8417413e-06
0.00020982708
1.8504122e-06
0.00020862232
1.8654584e-06
0.00020740315
1.8883206e-06
0.00020616348
1.9207343e-06
0.00020489615
1.9643376e-06
0.00020359285
2.0209101e-06
0.00020224432
2.0918169e-06
0.00020084059
2.1781913e-06
0.00019937137
2.2803003e-06
0.00019782664
2.3976399e-06
0.00019619734
2.528516e-06
0.00019447626
2.669792e-06
0.00019265922
2.8166394e-06
0.00019074668
2.9616742e-06
0.00018874572
3.0950708e-06
0.00018667218
3.2031997e-06
0.00018455221
3.2709595e-06
0.00018241684
3.2908504e-06
0.00018030257
3.256476e-06
0.00017823601
3.1784464e-06
0.00017623954
3.0749705e-06
0.00017429547
2.9805101e-06
0.00017240961
2.9393587e-06
0.00017076114
2.3169538e-06
3.5291769e-06
0.00082917684
7.7801002e-05
-0.00082580989
0.00083349551
0.00010775459
0.00083456978
0.00012344893
0.00082775069
0.00012627205
0.00080950288
0.00012186461
0.00078180507
0.00011363755
0.00074899494
0.00010340332
0.00071468245
9.2682162e-05
0.00068108537
8.2433697e-05
0.0006495254
7.2733499e-05
0.00062064424
6.3791935e-05
0.00059465611
5.5728728e-05
0.00057150824
4.8573134e-05
0.00055098803
4.232611e-05
0.00053281972
3.6928154e-05
0.00051672503
3.2275933e-05
0.00050243698
2.8294104e-05
0.0004897127
2.4902001e-05
0.00047834542
2.2036805e-05
0.00046814769
1.9596422e-05
0.00045895962
1.7544137e-05
0.000450639
1.5829684e-05
0.00044306412
1.4385319e-05
0.00043613274
1.315626e-05
0.00042975644
1.2107723e-05
0.00042385904
1.1208421e-05
0.00041837841
1.0429034e-05
0.00041326396
9.7527288e-06
0.00040847192
9.1668423e-06
0.00040396556
8.6515321e-06
0.00039971372
8.1907316e-06
0.00039568905
7.7789252e-06
0.00039186788
7.4102943e-06
0.00038822995
7.0790015e-06
0.00038475809
6.7789251e-06
0.00038143379
6.5142675e-06
0.00037824215
6.2790898e-06
0.00037517272
6.0614479e-06
0.00037221333
5.8655156e-06
0.00036935437
5.6877802e-06
0.00036658762
5.5250298e-06
0.00036390531
5.3765567e-06
0.000361301
5.2388847e-06
0.00035876887
5.1111111e-06
0.00035630354
4.9928941e-06
0.00035390043
4.8822468e-06
0.00035155478
4.7804468e-06
0.00034926246
4.6861654e-06
0.00034702013
4.5973702e-06
0.00034482446
4.5146819e-06
0.00034267272
4.4362883e-06
0.00034056242
4.3619713e-06
0.00033849123
4.2916187e-06
0.00033645719
4.2242851e-06
0.00033445828
4.1605781e-06
0.00033249285
4.0994824e-06
0.00033055915
4.0413547e-06
0.00032865556
3.9861689e-06
0.00032678072
3.933193e-06
0.00032493349
3.8821104e-06
0.00032311298
3.8320821e-06
0.00032131818
3.783688e-06
0.00031954811
3.7368537e-06
0.00031780169
3.6919929e-06
0.00031607769
3.6495712e-06
0.00031437447
3.6105026e-06
0.00031269018
3.5754516e-06
0.00031102283
3.5445123e-06
0.00030937043
3.5176584e-06
0.00030773102
3.494778e-06
0.00030610256
3.4759742e-06
0.00030448303
3.4612721e-06
0.00030287016
3.4512603e-06
0.00030126127
3.4469664e-06
0.00029965301
3.4500039e-06
0.00029804126
3.4621607e-06
0.00029642089
3.4858273e-06
0.00029478561
3.523596e-06
0.00029312779
3.5785535e-06
0.00029143841
3.6537236e-06
0.00028970696
3.7523568e-06
0.00028792167
3.8771085e-06
0.00028606963
4.0302332e-06
0.00028413732
4.2126071e-06
0.00028211115
4.4238065e-06
0.00027997825
4.6614217e-06
0.00027772748
4.9205553e-06
0.00027535113
5.1929929e-06
0.00027284706
5.4657491e-06
0.00027022212
5.7200092e-06
0.00026749556
5.9297597e-06
0.00026470147
6.065051e-06
0.00026188128
6.1110367e-06
0.00025908706
6.0506961e-06
0.00025635181
5.9136944e-06
0.0002537173
5.7094792e-06
0.00025113718
5.5606339e-06
0.00024868599
5.390545e-06
0.00024627306
4.7298875e-06
5.8214547e-06
0.0008591739
7.4288869e-05
-0.00085566177
0.00086533793
0.00010159056
0.00087135521
0.00011743165
0.00087556555
0.00012206172
0.00087697237
0.00012045778
0.00087413648
0.00011647344
0.0008658031
0.0001117367
0.0008516524
0.00010683285
0.00083256802
0.00010151808
0.00081023481
9.5066705e-05
0.00078605361
8.7973135e-05
0.00076115431
8.0628032e-05
0.0007364563
7.3271142e-05
0.00071264695
6.6135463e-05
0.00069018758
5.9387519e-05
0.00066933579
5.3127722e-05
0.00065017465
4.745525e-05
0.00063266698
4.2409673e-05
0.00061671158
3.7992205e-05
0.00060217198
3.4136019e-05
0.00058891288
3.0803231e-05
0.00057680066
2.7941908e-05
0.00056571122
2.5474764e-05
0.0005555301
2.3337371e-05
0.00054615187
2.148596e-05
0.00053748053
1.9879757e-05
0.00052943333
1.8476231e-05
0.00052194179
1.7244276e-05
0.00051494518
1.6163447e-05
0.00050838999
1.5206727e-05
0.00050222934
1.4351377e-05
0.00049642189
1.3586377e-05
0.00049093116
1.2901021e-05
0.0004857262
1.2283961e-05
0.00048078
1.1725129e-05
0.00047606842
1.1225848e-05
0.00047156998
1.0777524e-05
0.00046726536
1.0366071e-05
0.00046313745
9.9934253e-06
0.00045917122
9.6540095e-06
0.00045535347
9.3427809e-06
0.00045167193
9.058093e-06
0.00044811595
8.7948732e-06
0.00044467589
8.5511637e-06
0.00044134301
8.325777e-06
0.00043810966
8.1155921e-06
0.0004349685
7.9216148e-06
0.000431913
7.741665e-06
0.0004289376
7.5727663e-06
0.00042603693
7.4153519e-06
0.00042320631
7.2669062e-06
0.00042044145
7.1268335e-06
0.00041773838
6.9946859e-06
0.00041509371
6.8689596e-06
0.00041250413
6.7501538e-06
0.00040996672
6.6368963e-06
0.00040747861
6.5294626e-06
0.00040503721
6.4275689e-06
0.0004026403
6.3301087e-06
0.0004002858
6.2366105e-06
0.00039797191
6.145964e-06
0.00039569685
6.0587567e-06
0.0003934589
5.974795e-06
0.00039125638
5.8945213e-06
0.00038908742
5.818532e-06
0.00038694987
5.748044e-06
0.00038484135
5.6839768e-06
0.0003827593
5.6265566e-06
0.00038070111
5.5758514e-06
0.00037866412
5.5317726e-06
0.00037664563
5.4944622e-06
0.00037464292
5.4639816e-06
0.00037265303
5.4411533e-06
0.00037067256
5.4274304e-06
0.00036869749
5.4250795e-06
0.00036672293
5.4367178e-06
0.00036474292
5.4658348e-06
0.00036275021
5.5163035e-06
0.00036073604
5.5927233e-06
0.00035869005
5.6997222e-06
0.00035660013
5.8422697e-06
0.00035445263
6.0246134e-06
0.0003522324
6.2504567e-06
0.00034992337
6.5216464e-06
0.00034750897
6.8381999e-06
0.00034497308
7.1973183e-06
0.00034230112
7.592515e-06
0.00033948219
8.0119182e-06
0.00033651195
8.4359902e-06
0.00033339723
8.8347305e-06
0.00033016036
9.1666264e-06
0.00032684222
9.383193e-06
0.00032349329
9.4599646e-06
0.00032017765
9.3663408e-06
0.00031693428
9.1570597e-06
0.00031381741
8.8263481e-06
0.00031076308
8.6149655e-06
0.00030788713
8.2665005e-06
0.00030490421
7.7128064e-06
8.2935645e-06
0.00088904827
7.1379243e-05
-0.00088613865
0.00089478778
9.5851054e-05
0.00090109021
0.00011112921
0.00090641274
0.00011673919
0.00091014945
0.00011672107
0.00091264959
0.0001139733
0.00091372008
0.00011066622
0.0009129692
0.00010758373
0.00091009778
0.0001043895
0.00090408952
0.00010107497
0.00089451689
9.7545763e-05
0.00088153587
9.3609052e-05
0.00086577147
8.9035545e-05
0.00084793131
8.3975621e-05
0.00082866163
7.8657201e-05
0.00080860474
7.3184607e-05
0.00078837077
6.7689222e-05
0.00076848358
6.2296858e-05
0.00074934765
5.7128142e-05
0.00073122284
5.2260824e-05
0.00071424013
4.778594e-05
0.00069842269
4.375935e-05
0.0006837322
4.016525e-05
0.00067010176
3.6967818e-05
0.00065745296
3.413476e-05
0.00064570467
3.1628042e-05
0.00063477676
2.9404145e-05
0.00062459308
2.7427951e-05
0.00061508169
2.5674836e-05
0.00060617753
2.4110891e-05
0.00059782254
2.2706371e-05
0.00058996374
2.1445169e-05
0.00058255322
2.0311547e-05
0.00057554919
1.9287987e-05
0.00056891388
1.8360444e-05
0.00056261552
1.7524208e-05
0.00055662534
1.6767705e-05
0.00055091518
1.6076227e-05
0.00054546151
1.5447095e-05
0.00054024325
1.4872266e-05
0.00053524137
1.4344663e-05
0.00053043814
1.386133e-05
0.00052581792
1.3415085e-05
0.00052136664
1.3002447e-05
0.00051707119
1.2621226e-05
0.00051292028
1.2266499e-05
0.00050890367
1.1938225e-05
0.00050501206
1.1633275e-05
0.00050123725
1.1347584e-05
0.00049757128
1.1081319e-05
0.00049400708
1.083111e-05
0.00049053817
1.0595741e-05
0.0004871586
1.0374252e-05
0.00048386316
1.0164406e-05
0.00048064686
9.9664524e-06
0.00047750519
9.7785652e-06
0.00047443394
9.6007166e-06
0.00047142935
9.4321579e-06
0.00046848808
9.2713729e-06
0.0004656069
9.1177895e-06
0.00046278289
8.9699795e-06
0.00046001325
8.8283965e-06
0.00045729541
8.6926352e-06
0.00045462685
8.5630825e-06
0.00045200499
8.4403843e-06
0.00044942706
8.3259761e-06
0.00044689006
8.2209806e-06
0.00044439082
8.1257947e-06
0.00044192604
8.0406362e-06
0.00043949234
7.9654717e-06
0.00043708631
7.9004933e-06
0.00043470446
7.8458227e-06
0.00043234309
7.8025273e-06
0.00042999806
7.7724592e-06
0.00042766462
7.758517e-06
0.00042533717
7.7641724e-06
0.00042300894
7.7940648e-06
0.0004206718
7.853438e-06
0.000418316
7.9485306e-06
0.00041592996
8.0857565e-06
0.0004135002
8.2720288e-06
0.00041101135
8.513471e-06
0.00040844624
8.8155608e-06
0.0004057864
9.1814848e-06
0.00040301253
9.6120703e-06
0.00040010541
1.0104438e-05
0.00039704732
1.0650605e-05
0.00039382459
1.1234648e-05
0.00039043126
1.1829328e-05
0.00038687476
1.2391228e-05
0.00038318095
1.2860434e-05
0.00037939733
1.3166818e-05
0.00037558293
1.3274362e-05
0.00037181172
1.3137555e-05
0.00036812849
1.2840288e-05
0.00036459508
1.2359754e-05
0.00036113733
1.2072714e-05
0.00035789455
1.1509288e-05
0.00035443899
1.1168358e-05
1.095631e-05
0.00092006264
6.8898592e-05
-0.00091758199
0.00092513424
9.0779454e-05
0.00093088876
0.00010537469
0.00093599773
0.00011163023
0.00094008204
0.00011263676
0.00094305108
0.00011100426
0.00094514728
0.00010857002
0.00094662491
0.0001061061
0.0009475313
0.0001034831
0.00094778591
0.00010082036
0.00094713797
9.8193702e-05
0.00094517356
9.5573463e-05
0.00094129313
9.2915976e-05
0.00093505814
9.0210611e-05
0.00092627899
8.7436346e-05
0.00091507265
8.4390948e-05
0.00090176091
8.1000969e-05
0.00088667116
7.7386604e-05
0.00087020308
7.3596221e-05
0.0008528391
6.9624804e-05
0.00083509648
6.5528562e-05
0.00081744417
6.1411658e-05
0.00080025798
5.7351439e-05
0.00078378965
5.3436149e-05
0.00076816971
4.9754697e-05
0.00075343937
4.6358386e-05
0.00073958832
4.32552e-05
0.00072658093
4.043534e-05
0.00071436896
3.7886807e-05
0.00070290002
3.5579831e-05
0.00069211997
3.348642e-05
0.00068197418
3.1590961e-05
0.00067241055
2.9875174e-05
0.00066338134
2.8317195e-05
0.00065484122
2.6900566e-05
0.00064674962
2.5615804e-05
0.00063907067
2.4446663e-05
0.00063176971
2.3377185e-05
0.00062481561
2.2401192e-05
0.00061818097
2.150691e-05
0.00061184077
2.068486e-05
0.00060577165
1.9930452e-05
0.0005999527
1.923403e-05
0.000594365
1.8590152e-05
0.00058899085
1.799537e-05
0.00058381469
1.7442668e-05
0.0005788225
1.6930413e-05
0.00057400159
1.6454187e-05
0.00056934057
1.6008596e-05
0.00056482857
1.5593317e-05
0.00056045583
1.5203854e-05
0.0005562134
1.4838167e-05
0.00055209298
1.4494678e-05
0.00054808713
1.4170256e-05
0.00054418876
1.3864819e-05
0.00054039149
1.357584e-05
0.00053668956
1.3302645e-05
0.00053307779
1.3043925e-05
0.00052955142
1.2797745e-05
0.00052610582
1.256339e-05
0.00052273679
1.2339013e-05
0.00051944038
1.2124806e-05
0.00051621296
1.1920048e-05
0.00051305104
1.1725008e-05
0.00050995112
1.1540304e-05
0.00050690966
1.1367435e-05
0.00050392298
1.1207656e-05
0.00050098721
1.1061569e-05
0.00049809827
1.0929572e-05
0.00049525204
1.0811705e-05
0.00049244431
1.0708227e-05
0.00048967077
1.0619363e-05
0.00048692686
1.0546433e-05
0.00048420768
1.049164e-05
0.00048150771
1.0458486e-05
0.00047882058
1.0451307e-05
0.00047613872
1.0475921e-05
0.00047345315
1.0539006e-05
0.00047075313
1.0648547e-05
0.00046802599
1.0812901e-05
0.00046525688
1.1041137e-05
0.00046242882
1.1341531e-05
0.00045952272
1.1721662e-05
0.00045651778
1.218643e-05
0.00045339201
1.2737839e-05
0.00045012324
1.3373205e-05
0.0004466908
1.4083049e-05
0.00044307856
1.4846887e-05
0.00043927941
1.5628474e-05
0.00043530189
1.6368745e-05
0.00043117566
1.6986668e-05
0.00042695466
1.7387814e-05
0.00042270599
1.7523032e-05
0.00041851203
1.7331523e-05
0.00041442294
1.6929377e-05
0.00041050545
1.6277241e-05
0.00040667904
1.5899127e-05
0.00040309763
1.5090697e-05
0.00039921817
1.5047815e-05
1.3820228e-05
0.00095221251
6.6728632e-05
-0.00095004255
0.00095669979
8.629218e-05
0.00096197328
0.0001001012
0.00096676819
0.00010683532
0.00097067154
0.00010873341
0.00097365985
0.00010801596
0.00097596332
0.00010626655
0.00097780861
0.0001042608
0.00097922829
0.00010206342
0.00098027444
9.9774213e-05
0.00098100846
9.7459679e-05
0.00098143215
9.5149772e-05
0.00098145502
9.2893109e-05
0.00098090619
9.0759439e-05
0.00097961049
8.873205e-05
0.00097719437
8.6807066e-05
0.00097319886
8.4996476e-05
0.00096733507
8.3250395e-05
0.00095942812
8.1503173e-05
0.00094948448
7.9568449e-05
0.00093763524
7.7377803e-05
0.00092408422
7.4962672e-05
0.00090916126
7.2274402e-05
0.00089331372
6.9283686e-05
0.00087702958
6.6038837e-05
0.00086075346
6.2634509e-05
0.00084483074
5.9177922e-05
0.00082948211
5.5783971e-05
0.00081481711
5.2551798e-05
0.0008008741
4.9522845e-05
0.00078765306
4.6707462e-05
0.00077513413
4.4109888e-05
0.00076328698
4.1722329e-05
0.0007520753
3.9528868e-05
0.00074145844
3.7517428e-05
0.00073139536
3.5678889e-05
0.00072184774
3.3994274e-05
0.00071277812
3.244681e-05
0.00070415056
3.102875e-05
0.00069593242
2.9725054e-05
0.00068809358
2.8523697e-05
0.00068060574
2.7418296e-05
0.00067344309
2.6396672e-05
0.00066658198
2.5451269e-05
0.0006600003
2.4577044e-05
0.00065367805
2.376492e-05
0.00064759685
2.301162e-05
0.00064174003
2.2310999e-05
0.00063609262
2.1656009e-05
0.00063064046
2.1045476e-05
0.0006253708
2.0473514e-05
0.0006202719
1.9937072e-05
0.00061533283
1.9433746e-05
0.00061054372
1.8959366e-05
0.00060589518
1.8513361e-05
0.00060137869
1.8092322e-05
0.00059698657
1.7694773e-05
0.00059271177
1.7318722e-05
0.00058854783
1.6961679e-05
0.0005844886
1.662262e-05
0.00058052844
1.6299178e-05
0.00057666206
1.5991182e-05
0.00057288462
1.5697492e-05
0.00056919139
1.5418238e-05
0.00056557781
1.5153883e-05
0.00056203948
1.490577e-05
0.00055857191
1.4675224e-05
0.00055517039
1.4463088e-05
0.00055183002
1.4269936e-05
0.00054854582
1.4095904e-05
0.00054531271
1.3941341e-05
0.00054212548
1.380659e-05
0.0005389787
1.3693217e-05
0.0005358666
1.3603744e-05
0.00053278283
1.3542254e-05
0.0005297202
1.3513937e-05
0.00052667032
1.3525797e-05
0.00052362334
1.3585991e-05
0.00052056755
1.3704333e-05
0.00051748919
1.3891266e-05
0.00051437211
1.4158216e-05
0.00051119776
1.4515875e-05
0.00050794517
1.4974256e-05
0.00050459126
1.5540341e-05
0.00050111143
1.6217669e-05
0.00049748064
1.7003992e-05
0.00049367542
1.788827e-05
0.00048967746
1.8844847e-05
0.00048547883
1.9827106e-05
0.00048108941
2.0758165e-05
0.00047654271
2.1533367e-05
0.00047189882
2.2031699e-05
0.00046723224
2.2189618e-05
0.0004626326
2.1931159e-05
0.00045815495
2.1407033e-05
0.00045386936
2.0562832e-05
0.00044969101
2.0077477e-05
0.00044578428
1.8997421e-05
0.00044150488
1.9327217e-05
1.6893885e-05
0.00098550272
6.4770831e-05
-0.00098354492
0.00098950131
8.2293593e-05
0.00099433164
9.5270872e-05
0.00099886951
0.00010229745
0.0010026503
0.00010495267
0.0010056123
0.00010505387
0.0010079279
0.00010395101
0.0010097975
0.00010239119
0.0010113112
0.0001005497
0.0010125396
9.8545885e-05
0.0010135219
9.6477304e-05
0.0010142715
9.4400228e-05
0.0010147997
9.2364842e-05
0.0010151716
9.0387599e-05
0.0010153401
8.8563533e-05
0.0010152224
8.692471e-05
0.0010147883
8.5430584e-05
0.0010139005
8.4138245e-05
0.0010123529
8.3050761e-05
0.0010098072
8.211419e-05
0.0010059039
8.1281083e-05
0.0010003366
8.0529933e-05
0.00099291215
7.9698875e-05
0.00098358416
7.8611669e-05
0.00097240132
7.7221678e-05
0.00095955087
7.5484959e-05
0.00094538268
7.3346114e-05
0.00093036224
7.0804413e-05
0.00091496967
6.7944368e-05
0.00089961735
6.4875163e-05
0.00088459751
6.1727308e-05
0.00087007982
5.8627578e-05
0.00085614542
5.5656723e-05
0.00084282512
5.2849172e-05
0.00083012244
5.0220111e-05
0.00081802494
4.7776389e-05
0.00080651108
4.5508132e-05
0.00079555273
4.3405155e-05
0.00078511838
4.1463099e-05
0.00077517665
3.9666793e-05
0.00076569655
3.8003797e-05
0.00075664762
3.6467221e-05
0.00074800125
3.5043045e-05
0.00073973037
3.3722145e-05
0.00073180934
3.2498075e-05
0.00072421445
3.1359808e-05
0.00071692344
3.0302627e-05
0.00070991588
2.9318563e-05
0.00070317313
2.8398758e-05
0.00069667761
2.7540999e-05
0.0006904133
2.6737815e-05
0.00068436542
2.5984952e-05
0.00067852027
2.52789e-05
0.00067286534
2.4614295e-05
0.00066738884
2.3989864e-05
0.00066207994
2.3401218e-05
0.00065692864
2.2846077e-05
0.00065192576
2.23216e-05
0.00064706291
2.1824535e-05
0.00064233217
2.1353355e-05
0.00063772628
2.0905068e-05
0.00063323841
2.0479053e-05
0.00062886226
2.007364e-05
0.00062459181
1.9688694e-05
0.00062042128
1.9324405e-05
0.00061634521
1.8981845e-05
0.00061235812
1.8662313e-05
0.00060845439
1.8366822e-05
0.0006046282
1.8096121e-05
0.00060087363
1.7850472e-05
0.00059718464
1.7630331e-05
0.00059355507
1.7436167e-05
0.00058997852
1.7269767e-05
0.00058644831
1.7133954e-05
0.00058295718
1.7033381e-05
0.00057949706
1.6974059e-05
0.00057605868
1.6964169e-05
0.00057263131
1.701337e-05
0.00056920227
1.7133369e-05
0.00056575672
1.733682e-05
0.00056227724
1.7637688e-05
0.00055874378
1.804934e-05
0.0005551335
1.858454e-05
0.00055142111
1.9252722e-05
0.00054757948
2.0059307e-05
0.00054358078
2.1002687e-05
0.0005393989
2.2070154e-05
0.00053501352
2.3230227e-05
0.00053041607
2.4424557e-05
0.00052561782
2.5556412e-05
0.00052065595
2.6495238e-05
0.00051559617
2.7091478e-05
0.0005105196
2.7266182e-05
0.00050552221
2.6928557e-05
0.00050066338
2.6265864e-05
0.00049601574
2.5210462e-05
0.00049149143
2.4601792e-05
0.00048726347
2.322538e-05
0.0004825939
2.399679e-05
2.0185879e-05
0.0010198919
6.2961897e-05
-0.0010180829
0.0010234912
7.8694272e-05
0.0010279179
9.0844177e-05
0.0010322017
9.8013655e-05
0.0010358817
0.00010127261
0.0010388486
0.00010208703
0.0010412051
0.00010159453
0.0010431095
0.00010048675
0.0010446564
9.9002754e-05
0.0010459178
9.7284508e-05
0.0010469462
9.5448899e-05
0.0010477762
9.3570257e-05
0.0010484351
9.1705922e-05
0.0010489348
8.988793e-05
0.0010492976
8.8200751e-05
0.0010495414
8.6680898e-05
0.0010496704
8.5301514e-05
0.001049686
8.4122685e-05
0.0010495599
8.3176888e-05
0.0010492388
8.2435267e-05
0.0010486307
8.1889233e-05
0.0010476163
8.1544279e-05
0.0010459638
8.1351426e-05
0.0010433261
8.1249357e-05
0.0010393625
8.1185213e-05
0.0010337581
8.1089358e-05
0.0010263139
8.0790337e-05
0.0010169734
8.0144926e-05
0.0010058033
7.9114486e-05
0.00099305347
7.7624972e-05
0.00097914234
7.5638434e-05
0.00096456047
7.3209445e-05
0.00094976265
7.0454548e-05
0.00093509492
6.75169e-05
0.00092077469
6.4540343e-05
0.00090691762
6.163346e-05
0.00089357954
5.8846209e-05
0.00088078325
5.6201443e-05
0.00086853145
5.3714905e-05
0.0008568144
5.1383839e-05
0.00084561391
4.9204292e-05
0.00083490685
4.7174281e-05
0.0008246686
4.5281289e-05
0.00081487355
4.3517195e-05
0.00080549583
4.1875803e-05
0.00079651051
4.0345125e-05
0.00078789329
3.8919846e-05
0.0007796212
3.7590653e-05
0.0007716728
3.6347158e-05
0.00076402754
3.5186255e-05
0.00075666649
3.4098868e-05
0.00074957194
3.3079507e-05
0.00074272739
3.2123444e-05
0.0007361177
3.1223984e-05
0.00072972854
3.0379032e-05
0.00072354667
2.9583083e-05
0.00071755975
2.8833001e-05
0.00071175634
2.8125009e-05
0.00070612592
2.7454951e-05
0.00070065863
2.6820645e-05
0.00069534536
2.6218336e-05
0.00069017754
2.5646875e-05
0.00068514725
2.5103936e-05
0.00068024702
2.4588921e-05
0.00067546979
2.4101636e-05
0.00067080877
2.3642859e-05
0.00066625736
2.3213725e-05
0.0006618089
2.2815283e-05
0.00065745659
2.2448429e-05
0.0006531935
2.2113566e-05
0.00064901254
2.1811288e-05
0.00064490652
2.1542192e-05
0.00064086801
2.1308273e-05
0.00063688933
2.1112637e-05
0.00063296223
2.0960475e-05
0.00062907771
2.0858586e-05
0.00062522558
2.0816302e-05
0.00062139416
2.0844788e-05
0.00061756983
2.0957691e-05
0.00061373668
2.1169972e-05
0.00060987607
2.1498301e-05
0.00060596645
2.1958959e-05
0.00060198322
2.2567773e-05
0.00059789896
2.3336982e-05
0.00059368405
2.427422e-05
0.00058930802
2.5378714e-05
0.00058474222
2.6635952e-05
0.00057996446
2.8007991e-05
0.00057496555
2.9423466e-05
0.00056975799
3.0763964e-05
0.00056438222
3.1871017e-05
0.00055890885
3.2564841e-05
0.00055342482
3.2750216e-05
0.00054803151
3.2321867e-05
0.00054279229
3.1505089e-05
0.00053778197
3.0220776e-05
0.00053291048
2.9473287e-05
0.00052835897
2.7776889e-05
0.00052329986
2.9055893e-05
2.3705765e-05
0.0010553771
6.1268855e-05
-0.0010536841
0.0010586413
7.5430086e-05
0.0010627087
8.6776764e-05
0.0010667433
9.3979055e-05
0.0010703072
9.7708744e-05
0.0010732663
9.9127951e-05
0.0010756698
9.9191011e-05
0.0010776331
9.852348e-05
0.0010792376
9.7398173e-05
0.0010805478
9.5974307e-05
0.0010816162
9.4380504e-05
0.0010824825
9.2703989e-05
0.0010831785
9.1009929e-05
0.0010837245
8.9341978e-05
0.0010841488
8.7776374e-05
0.0010844739
8.6355817e-05
0.0010847035
8.5071949e-05
0.0010848532
8.3972975e-05
0.0010849491
8.3080963e-05
0.0010849843
8.2400083e-05
0.0010849448
8.1928746e-05
0.0010848303
8.1658787e-05
0.0010846027
8.1579006e-05
0.001084194
8.1658087e-05
0.0010835026
8.1876579e-05
0.0010823774
8.2214549e-05
0.0010805403
8.2627483e-05
0.0010776279
8.3057305e-05
0.0010732793
8.3463067e-05
0.0010671987
8.3705612e-05
0.0010592257
8.3611375e-05
0.0010493372
8.3098008e-05
0.001037702
8.2089677e-05
0.0010246913
8.0527676e-05
0.0010107931
7.8438516e-05
0.00099648773
7.5938804e-05
0.00098215687
7.3177073e-05
0.00096804982
7.0308492e-05
0.00095430678
6.7457948e-05
0.00094100227
6.4688349e-05
0.00092817375
6.2032812e-05
0.00091583568
5.9512353e-05
0.00090398793
5.7129039e-05
0.00089262024
5.488488e-05
0.0008817164
5.2779643e-05
0.00087125741
5.0804113e-05
0.00086122205
4.8955213e-05
0.00085158852
4.7224183e-05
0.00084233525
4.5600422e-05
0.00083344064
4.4080868e-05
0.00082488417
4.2655342e-05
0.00081664617
4.1317499e-05
0.00080870803
4.0061592e-05
0.00080105233
3.8879682e-05
0.00079366246
3.77689e-05
0.00078652296
3.6722584e-05
0.00077961924
3.5736722e-05
0.00077293767
3.4806577e-05
0.00076646559
3.3927036e-05
0.00076019106
3.3095171e-05
0.00075410305
3.230635e-05
0.00074819112
3.1558805e-05
0.00074244559
3.084946e-05
0.00073685741
3.0177101e-05
0.00073141804
2.9541009e-05
0.00072611932
2.8941578e-05
0.00072095336
2.8379681e-05
0.00071591237
2.7856277e-05
0.00071098845
2.7372347e-05
0.00070617359
2.6928428e-05
0.00070145961
2.6525272e-05
0.00069683819
2.6163608e-05
0.00069230083
2.5845632e-05
0.00068783874
2.5574726e-05
0.00068344264
2.5356577e-05
0.0006791025
2.5198728e-05
0.00067480717
2.5111627e-05
0.00067054403
2.5107928e-05
0.00066629849
2.5203238e-05
0.00066205356
2.5414899e-05
0.00065778943
2.5762428e-05
0.00065348316
2.6265235e-05
0.00064910843
2.6942501e-05
0.0006446358
2.7809607e-05
0.0006400333
2.887672e-05
0.00063526793
3.0144087e-05
0.00063030861
3.1595275e-05
0.0006251313
3.3185298e-05
0.00061972612
3.4828643e-05
0.00061410646
3.6383628e-05
0.00060831535
3.7662128e-05
0.00060242751
3.8452682e-05
0.00059653471
3.8643013e-05
0.00059074301
3.8113565e-05
0.00058511941
3.7128685e-05
0.00057974088
3.5599312e-05
0.0005745158
3.4698367e-05
0.00056963366
3.2659031e-05
0.0005641792
3.4510351e-05
2.746441e-05
0.0010919875
5.9672568e-05
-0.0010903912
0.0010949626
7.245497e-05
0.0010987077
8.3031663e-05
0.0011025054
9.0181364e-05
0.001105943
9.4271165e-05
0.0011088723
9.6198695e-05
0.0011113049
9.6758356e-05
0.0011133215
9.6506932e-05
0.0011149885
9.5731104e-05
0.0011163605
9.4602302e-05
0.0011174849
9.3256125e-05
0.0011184
9.1788863e-05
0.0011191378
9.0272147e-05
0.001119722
8.8757753e-05
0.0011201814
8.7316993e-05
0.0011205403
8.5996935e-05
0.0011208104
8.480188e-05
0.0011210098
8.3773595e-05
0.0011211529
8.2937788e-05
0.0011212512
8.2301803e-05
0.0011213145
8.1865495e-05
0.0011213491
8.1624148e-05
0.0011213559
8.1572251e-05
0.0011213267
8.1687284e-05
0.0011212471
8.1956185e-05
0.0011210922
8.2369416e-05
0.0011208143
8.2905368e-05
0.0011203289
8.3542676e-05
0.00111952
8.4272025e-05
0.0011181643
8.5061306e-05
0.0011159174
8.58583e-05
0.0011123979
8.6617432e-05
0.0011072452
8.7242369e-05
0.0011002139
8.7559017e-05
0.0010912202
8.7432201e-05
0.001080377
8.6782027e-05
0.0010680226
8.5531453e-05
0.0010546427
8.3688426e-05
0.0010407323
8.1368372e-05
0.0010266914
7.8729169e-05
0.0010127851
7.5939161e-05
0.00099916657
7.3130866e-05
0.00098592215
7.0373458e-05
0.00097309921
6.7707824e-05
0.00096072063
6.5158226e-05
0.00094879333
6.2731405e-05
0.00093731298
6.0435568e-05
0.00092626884
5.8268323e-05
0.00091564633
5.6222937e-05
0.00090542787