/*--------------------------------*- C++ -*----------------------------------*\
| =========                 |                                                 |
| \\      /  F ield         | OpenFOAM: The Open Source CFD Toolbox           |
|  \\    /   O peration     | Version:  2206                                  |
|   \\  /    A nd           | Website:  www.openfoam.com                      |
|    \\/     M anipulation  |                                                 |
\*---------------------------------------------------------------------------*/
FoamFile
{
    version     2.0;
    format      ascii;
    arch        "LSB;label=32;scalar=64";
    class       volVectorField;
    location    "300";
    object      U;
}
// * * * * * * * * * * * * * * * * * * * * * * * * * * * * * * * * * * * * * //

dimensions      [0 1 -1 0 0 0 0];

internalField   nonuniform List<vector> 
7480
(
(0.86064713 0.014726062 5.8438159e-16)
(0.7449285 0.025614776 0)
(0.62902733 0.02727964 0)
(0.52558056 0.019505402 0)
(0.44976637 0.0094085666 0)
(0.39743588 0.0037510735 0)
(0.35965615 0.0017181296 0)
(0.33050961 0.001208481 0)
(0.30679404 0.001083969 0)
(0.28690706 0.00096665787 0)
(0.27007512 0.00081826188 0)
(0.25581558 0.0006707368 0)
(0.24372456 0.00054243028 0)
(0.23344954 0.00043760407 0)
(0.22469122 0.00035412747 0)
(0.2171952 0.00028681918 0)
(0.21076397 0.00023257035 0)
(0.20523528 0.00018143447 0)
(0.20043937 0.00030643489 -1.7459453e-17)
(0.19628108 0.00015776678 0)
(0.19261979 0.00010588955 0)
(0.18936276 8.8696792e-05 0)
(0.18642778 7.7774071e-05 0)
(0.1837559 6.8650018e-05 0)
(0.18130539 6.1062268e-05 0)
(0.17903917 5.4735543e-05 0)
(0.17693281 4.9388336e-05 0)
(0.17496181 4.5058564e-05 0)
(0.17310422 4.1650562e-05 0)
(0.17134179 3.8723046e-05 0)
(0.1696643 3.6003294e-05 0)
(0.16806389 3.3570183e-05 0)
(0.16653215 3.1410037e-05 0)
(0.16506239 2.9475718e-05 0)
(0.16364704 2.7738353e-05 0)
(0.16228312 2.6253891e-05 0)
(0.16095912 2.496042e-05 0)
(0.15967399 2.3711567e-05 0)
(0.15842421 2.2581864e-05 0)
(0.1572057 2.1557082e-05 0)
(0.1560156 2.0609844e-05 0)
(0.15485118 1.9745871e-05 0)
(0.15371033 1.8913465e-05 0)
(0.15259184 1.8122202e-05 0)
(0.15149386 1.7385592e-05 0)
(0.15041539 1.667351e-05 0)
(0.14935499 1.6014944e-05 0)
(0.14831096 1.539643e-05 0)
(0.14728243 1.4795629e-05 0)
(0.14626845 1.423398e-05 0)
(0.14526819 1.3686043e-05 0)
(0.14428125 1.3158483e-05 0)
(0.14330697 1.2654983e-05 0)
(0.14234501 1.216436e-05 0)
(0.1413948 1.1700333e-05 0)
(0.1404559 1.1249278e-05 0)
(0.13952801 1.081786e-05 0)
(0.13861057 1.0406357e-05 0)
(0.13770316 1.0008872e-05 0)
(0.13680548 9.6267483e-06 0)
(0.13591752 9.2520105e-06 0)
(0.13503919 8.8925011e-06 0)
(0.13417028 8.5453386e-06 0)
(0.13331053 8.2139287e-06 0)
(0.13245953 7.8987205e-06 0)
(0.13161664 7.6025857e-06 0)
(0.13078094 7.3261827e-06 0)
(0.12995147 7.0672168e-06 0)
(0.1291273 6.8239816e-06 0)
(0.12830756 6.5944109e-06 0)
(0.12749142 6.3784679e-06 0)
(0.126678 6.1746993e-06 0)
(0.12586638 5.9845315e-06 0)
(0.12505541 5.8092074e-06 0)
(0.12424354 5.6521008e-06 0)
(0.12342876 5.5149516e-06 0)
(0.12260854 5.4014537e-06 0)
(0.12177969 5.3137221e-06 0)
(0.12093829 5.2553437e-06 0)
(0.12007967 5.2275991e-06 0)
(0.11919839 5.232902e-06 0)
(0.11828832 5.2703771e-06 0)
(0.11734281 5.3390888e-06 0)
(0.11635492 5.4341357e-06 0)
(0.11531788 5.5489057e-06 0)
(0.11422549 5.6733268e-06 0)
(0.11307283 5.7939705e-06 0)
(0.11185668 5.8977287e-06 0)
(0.11057697 5.9662747e-06 0)
(0.10923678 5.9910367e-06 0)
(0.10784495 5.9537634e-06 0)
(0.10641599 5.8450743e-06 0)
(0.10497196 5.6571841e-06 0)
(0.10352984 5.4299799e-06 0)
(0.10212635 5.0797972e-06 0)
(0.10074388 4.8814872e-06 0)
(0.099461811 4.3223435e-06 0)
(0.098099747 9.6952343e-06 5.2670227e-20)
(0.097057897 -5.8484829e-08 -3.2809343e-19)
(0.095335581 1.4610198e-05 -1.5600095e-18)
(0.95739274 0.024763196 0)
(0.94350607 0.032433101 0)
(0.91251779 0.032605967 0)
(0.86087711 0.028831211 0)
(0.79792163 0.022987007 0)
(0.73477501 0.017325894 0)
(0.67778006 0.012913809 0)
(0.62895192 0.0098360995 0)
(0.58789134 0.007748678 0)
(0.55336123 0.0062557343 0)
(0.52413663 0.0051192387 0)
(0.49923157 0.0042186239 0)
(0.47789151 0.0034878229 0)
(0.45953681 0.0028899513 0)
(0.44369939 0.0023992278 0)
(0.43000598 0.0019946774 0)
(0.41813226 0.0016631299 0)
(0.40779101 0.0013939379 0)
(0.39872017 0.0011762226 0)
(0.39072139 0.00098940967 0)
(0.38361321 0.00085405912 0)
(0.37724258 0.00074361115 0)
(0.37148181 0.00065291409 0)
(0.36623114 0.00057824915 0)
(0.36141314 0.00051641443 0)
(0.35695993 0.00046440342 0)
(0.35282486 0.00042000958 0)
(0.34896129 0.00038239626 0)
(0.3453311 0.00035066418 0)
(0.34190238 0.00032317305 0)
(0.33865302 0.00029864462 0)
(0.33556462 0.0002767955 0)
(0.33261978 0.00025731758 0)
(0.3298041 0.00023989624 0)
(0.32710302 0.00022418938 0)
(0.32450893 0.0002103524 0)
(0.32200168 0.00019808336 0)
(0.31957825 0.00018671496 0)
(0.31723026 0.00017641445 0)
(0.31494955 0.00016704062 0)
(0.31273028 0.00015843064 0)
(0.31056706 0.00015053336 0)
(0.30845526 0.00014316096 0)
(0.30639154 0.0001362757 0)
(0.30437206 0.00012986878 0)
(0.30239427 0.00012384128 0)
(0.30045495 0.00011824447 0)
(0.29855087 0.00011301834 0)
(0.29667988 0.00010807551 0)
(0.29483986 0.00010344071 0)
(0.29302895 9.903502e-05 0)
(0.29124583 9.4850906e-05 0)
(0.28948903 9.08835e-05 0)
(0.28775746 8.7096406e-05 0)
(0.28604989 8.3510509e-05 0)
(0.28436525 8.0084906e-05 0)
(0.28270266 7.6827066e-05 0)
(0.28106097 7.3733028e-05 0)
(0.27943921 7.077866e-05 0)
(0.27783668 6.7953378e-05 0)
(0.27625302 6.5229953e-05 0)
(0.27468788 6.2623254e-05 0)
(0.27314069 6.0127002e-05 0)
(0.27161085 5.7747731e-05 0)
(0.27009758 5.5489025e-05 0)
(0.26859973 5.3362246e-05 0)
(0.26711572 5.1371398e-05 0)
(0.26564385 4.9507911e-05 0)
(0.26418242 4.7762043e-05 0)
(0.26272985 4.6123701e-05 0)
(0.2612845 4.4588523e-05 0)
(0.25984477 4.3150101e-05 0)
(0.25840893 4.1811592e-05 0)
(0.2569749 4.0580676e-05 0)
(0.25553999 3.947229e-05 0)
(0.25410076 3.8499393e-05 0)
(0.25265286 3.7680766e-05 0)
(0.25119085 3.7032947e-05 0)
(0.24970806 3.6575815e-05 0)
(0.24819648 3.6323231e-05 0)
(0.24664673 3.6289304e-05 0)
(0.24504816 3.6476807e-05 0)
(0.24338905 3.6882947e-05 0)
(0.24165699 3.7488192e-05 0)
(0.23983957 3.8261171e-05 0)
(0.23792498 3.9153459e-05 0)
(0.23590316 4.0099311e-05 0)
(0.23376663 4.1017394e-05 0)
(0.23151295 4.1801086e-05 0)
(0.22914543 4.2332641e-05 0)
(0.22667797 4.245543e-05 0)
(0.22413537 4.2020407e-05 0)
(0.2215569 4.098908e-05 0)
(0.21897525 3.935315e-05 0)
(0.21645549 3.724905e-05 0)
(0.21397353 3.5023504e-05 0)
(0.21166128 3.284307e-05 0)
(0.20922123 3.1958579e-05 0)
(0.20731848 2.2064855e-05 0)
(0.20420764 3.8984377e-05 0)
(0.96577746 0.026101114 0)
(0.97066987 0.035000445 0)
(0.97572715 0.038645178 0)
(0.97459853 0.0375598 0)
(0.96000369 0.034355443 0)
(0.93180572 0.030011949 0)
(0.89505517 0.025308021 0)
(0.85494819 0.020900287 0)
(0.8147732 0.017157469 0)
(0.77646601 0.014091394 0)
(0.74106216 0.011610734 0)
(0.70901336 0.0096073576 0)
(0.68037503 0.0079822527 0)
(0.65496046 0.0066585463 0)
(0.63245808 0.0055776334 0)
(0.61253673 0.0046908821 0)
(0.59487394 0.0039618792 0)
(0.57917174 0.0033619154 0)
(0.5651623 0.0028664907 0)
(0.55262257 0.0024620071 0)
(0.54134882 0.0021316194 0)
(0.53116356 0.0018607736 0)
(0.52191477 0.0016379251 0)
(0.51347205 0.0014524595 0)
(0.50572515 0.0012970322 0)
(0.49857826 0.0011657514 0)
(0.49194999 0.0010534713 0)
(0.48577627 0.0009571513 0)
(0.48000224 0.00087459773 0)
(0.47458173 0.00080270836 0)
(0.46947512 0.00073902977 0)
(0.46464866 0.00068252432 0)
(0.46007257 0.00063224688 0)
(0.45572156 0.00058732342 0)
(0.45157309 0.00054690204 0)
(0.44761013 0.00051116438 0)
(0.44380609 0.0004793134 0)
(0.44015288 0.00045005282 0)
(0.43663443 0.00042358604 0)
(0.43323822 0.00039951353 0)
(0.42995428 0.00037745342 0)
(0.4267733 0.00035724235 0)
(0.42368681 0.00033851372 0)
(0.42068796 0.00032113234 0)
(0.41776992 0.00030501408 0)
(0.41492733 0.00028995858 0)
(0.41215449 0.0002760073 0)
(0.40944609 0.00026301945 0)
(0.40679794 0.00025081702 0)
(0.40420616 0.00023940359 0)
(0.40166714 0.00022862983 0)
(0.39917795 0.00021845631 0)
(0.3967357 0.00020885201 0)
(0.39433796 0.00019974017 0)
(0.39198238 0.00019113449 0)
(0.38966684 0.00018295782 0)
(0.3873894 0.00017521015 0)
(0.38514801 0.00016787278 0)
(0.38294092 0.00016089344 0)
(0.38076668 0.00015424233 0)
(0.37862415 0.00014786765 0)
(0.37651227 0.00014178537 0)
(0.37442985 0.00013598038 0)
(0.37237573 0.00013045794 0)
(0.37034861 0.00012522217 0)
(0.36834682 0.00012029181 0)
(0.36636826 0.0001156731 0)
(0.36441066 0.00011134988 0)
(0.36247167 0.00010730278 0)
(0.36054899 0.00010351122 0)
(0.35864028 9.9963551e-05 0)
(0.3567432 9.6645601e-05 0)
(0.35485531 9.3560566e-05 0)
(0.35297377 9.0722306e-05 0)
(0.3510951 8.8158207e-05 0)
(0.349215 8.5894725e-05 0)
(0.3473281 8.3969242e-05 0)
(0.34542778 8.241724e-05 0)
(0.34350591 8.1280113e-05 0)
(0.34155279 8.0589857e-05 0)
(0.33955697 8.0377714e-05 0)
(0.33750539 8.065472e-05 0)
(0.33538352 8.1419472e-05 0)
(0.33317575 8.2638763e-05 0)
(0.33086606 8.4254653e-05 0)
(0.3284387 8.6174938e-05 0)
(0.32587935 8.8271065e-05 0)
(0.32317623 9.0373361e-05 0)
(0.32032322 9.2254123e-05 0)
(0.31732131 9.3631118e-05 0)
(0.31418574 9.4139345e-05 0)
(0.31094667 9.3402741e-05 0)
(0.3076544 9.1317986e-05 0)
(0.30435329 8.7771537e-05 0)
(0.30112797 8.325196e-05 0)
(0.2979531 7.8097683e-05 0)
(0.29499251 7.3699874e-05 0)
(0.29187979 6.972739e-05 0)
(0.28942456 5.6627723e-05 0)
(0.2854669 7.4474979e-05 -6.8990599e-20)
(0.96830967 0.024275597 0)
(0.97389611 0.032408238 0)
(0.98193271 0.036262186 0)
(0.98850264 0.036615357 0)
(0.9920064 0.034885503 0)
(0.99163101 0.032403985 0)
(0.98544155 0.029763557 0)
(0.97259606 0.027131021 0)
(0.95325345 0.024451067 0)
(0.92937 0.021598167 0)
(0.9027053 0.018775405 0)
(0.87465657 0.016144425 0)
(0.84638886 0.01379964 0)
(0.81880783 0.011767201 0)
(0.79255884 0.010024824 0)
(0.76803852 0.0085414299 0)
(0.74542581 0.0072905433 0)
(0.72473095 0.0062438995 0)
(0.70585834 0.0053766931 0)
(0.68866743 0.0046568724 0)
(0.67299912 0.0040585968 0)
(0.65869904 0.0035617042 0)
(0.64562281 0.0031451848 0)
(0.63363516 0.0027926434 0)
(0.62261088 0.0024934627 0)
(0.61243747 0.0022384963 0)
(0.60301087 0.002019424 0)
(0.59424777 0.0018303821 0)
(0.58607615 0.0016669252 0)
(0.57843186 0.0015241215 0)
(0.57125794 0.0013979969 0)
(0.56450495 0.0012864072 0)
(0.55812924 0.0011873901 0)
(0.55209216 0.0010990791 0)
(0.54636205 0.0010198321 0)
(0.5409098 0.00094929123 0)
(0.53570999 0.00088624293 0)
(0.53073931 0.00082883902 0)
(0.52597761 0.0007769156 0)
(0.5214064 0.00072978359 0)
(0.51701007 0.00068672417 0)
(0.51277433 0.00064737059 0)
(0.50868604 0.00061111245 0)
(0.50473403 0.00057764361 0)
(0.50090769 0.00054673404 0)
(0.49719807 0.00051802556 0)
(0.49359661 0.00049149061 0)
(0.49009536 0.00046686807 0)
(0.48668763 0.00044385618 0)
(0.48336731 0.00042240329 0)
(0.48012862 0.00040226923 0)
(0.47696661 0.00038335653 0)
(0.47387654 0.00036558199 0)
(0.47085431 0.00034880619 0)
(0.46789614 0.00033301328 0)
(0.46499855 0.00031808021 0)
(0.46215827 0.00030398404 0)
(0.45937214 0.00029067394 0)
(0.45663747 0.00027805836 0)
(0.45395187 0.00026608143 0)
(0.45131316 0.00025466165 0)
(0.44871934 0.00024380451 0)
(0.44616842 0.00023347764 0)
(0.44365852 0.00022367681 0)
(0.44118767 0.00021440098 0)
(0.43875365 0.00020567142 0)
(0.43635382 0.00019749265 0)
(0.43398539 0.00018983937 0)
(0.4316454 0.0001826814 0)
(0.42933087 0.00017598554 0)
(0.42703877 0.00016972927 0)
(0.42476606 0.00016388779 0)
(0.42250959 0.00015846145 0)
(0.42026583 0.00015346786 0)
(0.41803061 0.00014894454 0)
(0.41579898 0.00014493108 0)
(0.41356484 0.0001414837 0)
(0.41132079 0.00013865849 0)
(0.40905779 0.00013652035 0)
(0.40676506 0.00013512263 0)
(0.40442988 0.00013451679 0)
(0.40203765 0.00013472592 0)
(0.39957198 0.00013575339 0)
(0.39701505 0.00013755564 0)
(0.39434824 0.00014005059 0)
(0.39155276 0.00014310341 0)
(0.3886109 0.00014652005 0)
(0.38550737 0.00015002953 0)
(0.38223296 0.00015325689 0)
(0.37878697 0.00015570225 0)
(0.3751858 0.00015672661 0)
(0.37146399 0.00015565755 0)
(0.36768018 0.00015229575 0)
(0.36388826 0.00014637523 0)
(0.36018497 0.00013889583 0)
(0.35654767 0.00013003418 0)
(0.35315349 0.00012306838 0)
(0.34960648 0.00011509139 0)
(0.34677437 0.00010127757 0)
(0.34226605 0.00011251443 5.1668819e-20)
(0.97016441 0.023194909 0)
(0.97499544 0.030409527 0)
(0.98237828 0.03419543 0)
(0.98945799 0.034747885 0)
(0.99453836 0.033508577 0)
(0.99759568 0.031642089 0)
(0.99998811 0.029746718 0)
(0.99984198 0.027988186 0)
(0.99822912 0.026280362 0)
(0.99353036 0.024530041 0)
(0.98502182 0.022729252 0)
(0.97251427 0.020853563 0)
(0.95655401 0.018868866 0)
(0.93797213 0.016860241 0)
(0.91748167 0.014924365 0)
(0.89578012 0.01312335 0)
(0.87357571 0.011500791 0)
(0.85149812 0.010056786 0)
(0.83006115 0.0087895178 0)
(0.80963043 0.0076869448 0)
(0.79041285 0.0067401562 0)
(0.77248044 0.0059371913 0)
(0.75581364 0.0052571308 0)
(0.74034749 0.0046783357 0)
(0.7259988 0.0041833341 0)
(0.71268 0.0037574402 0)
(0.7003013 0.0033881611 0)
(0.68877657 0.0030666183 0)
(0.6780249 0.0027864666 0)
(0.66797081 0.0025407304 0)
(0.65854726 0.00232367 0)
(0.64969387 0.0021316373 0)
(0.64135556 0.0019612918 0)
(0.63348262 0.0018094749 0)
(0.62603316 0.001673567 0)
(0.61896653 0.0015523338 0)
(0.61225419 0.0014436913 0)
(0.6058614 0.001345265 0)
(0.59976151 0.0012564033 0)
(0.59392982 0.0011757869 0)
(0.58834475 0.0011023275 0)
(0.58298619 0.0010353671 0)
(0.57783576 0.00097394302 0)
(0.57287748 0.00091748186 0)
(0.56809644 0.00086554575 0)
(0.56347915 0.00081752236 0)
(0.55901417 0.00077321699 0)
(0.55469065 0.00073220963 0)
(0.55049917 0.0006940436 0)
(0.546431 0.00065858176 0)
(0.54247774 0.00062546032 0)
(0.53863213 0.00059448559 0)
(0.5348873 0.00056549226 0)
(0.53123719 0.00053825127 0)
(0.5276763 0.00051269273 0)
(0.5241994 0.00048862943 0)
(0.52080173 0.00046599118 0)
(0.51747887 0.00044467306 0)
(0.51422707 0.00042453301 0)
(0.51104271 0.00040548348 0)
(0.50792241 0.00038740327 0)
(0.50486306 0.00037027261 0)
(0.50186175 0.00035403079 0)
(0.49891571 0.0003386538 0)
(0.49602222 0.00032412698 0)
(0.49317836 0.00031046656 0)
(0.49038094 0.00029766941 0)
(0.4876266 0.00028569879 0)
(0.48491178 0.00027451218 0)
(0.4822328 0.00026406093 0)
(0.47958594 0.00025430798 0)
(0.47696747 0.00024521479 0)
(0.47437349 0.00023677554 0)
(0.47179976 0.00022900747 0)
(0.46924147 0.00022195457 0)
(0.46669304 0.0002156677 0)
(0.46414774 0.00021022102 0)
(0.4615975 0.00020569146 0)
(0.45903257 0.00020216849 0)
(0.45644131 0.00019972912 0)
(0.45381002 0.0001984478 0)
(0.45112285 0.00019836349 0)
(0.44836195 0.00019948822 0)
(0.44550765 0.00020177229 0)
(0.44253911 0.00020511292 0)
(0.43943493 0.00020933425 0)
(0.43617446 0.00021417342 0)
(0.43273952 0.00021924428 0)
(0.42911853 0.00022399594 0)
(0.42530999 0.00022765989 0)
(0.421332 0.0002292624 0)
(0.41722346 0.00022777355 0)
(0.41305011 0.00022287047 0)
(0.40887411 0.0002141118 0)
(0.40479995 0.00020312223 0)
(0.40080929 0.00018985155 0)
(0.39708233 0.00017989612 0)
(0.39321428 0.00016690756 4.1182573e-20)
(0.39008972 0.00015424011 0)
(0.38516149 0.00015332687 0)
(0.97196979 0.022399341 0)
(0.97614868 0.028839218 0)
(0.98251827 0.032433497 0)
(0.988743 0.033198235 0)
(0.99371386 0.032375454 0)
(0.99741322 0.030857643 0)
(0.99998913 0.029201406 0)
(1.0018 0.027639657 0)
(1.0030371 0.026118669 0)
(1.0037205 0.024657886 0)
(1.0035644 0.023270359 0)
(1.0023273 0.021929601 0)
(0.99937363 0.02060491 0)
(0.99407194 0.01928366 0)
(0.98613345 0.017965938 0)
(0.97543357 0.016602413 0)
(0.96235852 0.015190277 0)
(0.94721313 0.013793938 0)
(0.93037448 0.012448236 0)
(0.91231543 0.011180657 0)
(0.89359046 0.010011913 0)
(0.87473532 0.0089493748 0)
(0.85620975 0.007994047 0)
(0.83834759 0.007145127 0)
(0.82134466 0.006400369 0)
(0.80528091 0.0057531176 0)
(0.79016264 0.0051907727 0)
(0.7759604 0.0046997122 0)
(0.76262756 0.0042691985 0)
(0.75010963 0.0038890514 0)
(0.73834969 0.0035515489 0)
(0.72728956 0.0032518593 0)
(0.71687215 0.0029854039 0)
(0.7070443 0.0027476011 0)
(0.69775782 0.002534757 0)
(0.68896499 0.0023444012 0)
(0.680628 0.0021735011 0)
(0.6727084 0.0020191661 0)
(0.66517138 0.0018798685 0)
(0.65798608 0.0017536319 0)
(0.65112512 0.0016388186 0)
(0.64456291 0.0015343465 0)
(0.63827587 0.0014388047 0)
(0.63224312 0.0013512456 0)
(0.62644544 0.0012709345 0)
(0.62086484 0.0011969411 0)
(0.61548611 0.0011288216 0)
(0.61029496 0.0010659257 0)
(0.60527883 0.0010075866 0)
(0.60042603 0.00095353059 0)
(0.59572544 0.00090322801 0)
(0.59116737 0.00085635465 0)
(0.58674261 0.00081263311 0)
(0.58244285 0.00077171189 0)
(0.57826055 0.00073344299 0)
(0.57418838 0.00069754483 0)
(0.57022005 0.00066386697 0)
(0.56634973 0.00063223253 0)
(0.56257229 0.00060243687 0)
(0.5588827 0.0005743484 0)
(0.5552763 0.00054779268 0)
(0.55174877 0.00052270944 0)
(0.54829613 0.00049899601 0)
(0.54491466 0.0004765989 0)
(0.54160067 0.00045548015 0)
(0.53835045 0.00043563858 0)
(0.53516021 0.00041705554 0)
(0.53202597 0.00039968016 0)
(0.52894346 0.00038345467 0)
(0.52590835 0.00036831138 0)
(0.52291621 0.0003541949 0)
(0.51996258 0.0003410502 0)
(0.51704278 0.00032886158 0)
(0.51415184 0.00031764039 0)
(0.51128431 0.00030743262 0)
(0.50843398 0.00029829782 0)
(0.50559352 0.00029032618 0)
(0.50275426 0.00028361482 0)
(0.49990578 0.00027827814 0)
(0.49703574 0.00027441856 0)
(0.49412959 0.00027213629 0)
(0.49117045 0.0002714899 0)
(0.48813917 0.00027250457 0)
(0.48501445 0.00027512917 0)
(0.48177349 0.00027924397 0)
(0.47839254 0.00028463314 0)
(0.47484839 0.00029095968 0)
(0.47112041 0.00029770545 0)
(0.46719526 0.00030411098 0)
(0.46307125 0.00030908819 0)
(0.45876848 0.00031127127 0)
(0.4543301 0.00030922089 0)
(0.44982792 0.00030246821 0)
(0.44533106 0.0002903951 0)
(0.44094906 0.00027533389 0)
(0.43666812 0.0002570044 0)
(0.43266653 0.00024358813 0)
(0.42854059 0.00022477981 0)
(0.42517341 0.00021465048 1.2065764e-19)
(0.41989723 0.00019735778 0)
(0.97377295 0.021646091 0)
(0.97734342 0.027397799 0)
(0.98288632 0.030824225 0)
(0.98842789 0.03178792 0)
(0.99297798 0.031261121 0)
(0.99646877 0.030021064 0)
(0.99909417 0.028579833 0)
(1.0011577 0.027158266 0)
(1.0028204 0.02575386 0)
(1.0040618 0.024393914 0)
(1.0049608 0.023093585 0)
(1.0055576 0.021855361 0)
(1.0058206 0.020685583 0)
(1.0055947 0.019593452 0)
(1.004691 0.018565446 0)
(1.0029218 0.017583605 0)
(0.99971115 0.016641034 0)
(0.9947121 0.015722574 0)
(0.98766196 0.014807799 0)
(0.97847159 0.013854743 0)
(0.96725257 0.012865552 0)
(0.95415819 0.011871172 0)
(0.93945576 0.010890602 0)
(0.92355659 0.009944415 0)
(0.90696618 0.0090461344 0)
(0.89018007 0.0082076451 0)
(0.8736133 0.0074390192 0)
(0.85755565 0.006745494 0)
(0.84216711 0.0061289041 0)
(0.82751228 0.005583457 0)
(0.81360352 0.0050993311 0)
(0.8004277 0.0046681206 0)
(0.78795769 0.0042825632 0)
(0.77615823 0.0039365645 0)
(0.7649898 0.0036258027 0)
(0.75440864 0.0033469564 0)
(0.7443747 0.0030959777 0)
(0.73484925 0.0028693234 0)
(0.72579429 0.002664674 0)
(0.71717447 0.0024792431 0)
(0.70895798 0.0023107469 0)
(0.70111496 0.0021575791 0)
(0.69361757 0.0020177687 0)
(0.68644057 0.001889899 0)
(0.6795607 0.0017728589 0)
(0.67295621 0.0016653086 0)
(0.6666076 0.0015664654 0)
(0.66049686 0.0014753862 0)
(0.65460795 0.0013911352 0)
(0.64892601 0.0013132533 0)
(0.64343716 0.0012409963 0)
(0.63812901 0.0011738609 0)
(0.6329899 0.0011114163 0)
(0.62800923 0.0010531574 0)
(0.62317722 0.00099882614 0)
(0.61848455 0.00094802103 0)
(0.61392303 0.0009004848 0)
(0.6094851 0.0008559403 0)
(0.60516396 0.00081409987 0)
(0.60095311 0.00077477164 0)
(0.5968465 0.00073771214 0)
(0.59283854 0.00070280337 0)
(0.5889241 0.00066988738 0)
(0.58509831 0.00063887097 0)
(0.58135639 0.00060967851 0)
(0.57769377 0.00058227556 0)
(0.57410599 0.00055662028 0)
(0.57058834 0.00053264423 0)
(0.56713584 0.0005102698 0)
(0.56374344 0.00048940629 0)
(0.56040597 0.00046997571 0)
(0.55711819 0.00045190238 0)
(0.55387467 0.00043515612 0)
(0.55066971 0.00041973728 0)
(0.54749716 0.0004056891 0)
(0.54435018 0.00039307595 0)
(0.54122083 0.00038200118 0)
(0.53809986 0.00037258046 0)
(0.53497627 0.00036495274 0)
(0.53183708 0.00035924692 0)
(0.52866698 0.00035559124 0)
(0.5254482 0.00035406757 0)
(0.52216044 0.00035471871 0)
(0.51878098 0.00035749693 0)
(0.51528522 0.00036226925 0)
(0.5116473 0.00036878012 0)
(0.50784179 0.00037661134 0)
(0.50384599 0.00038509378 0)
(0.49964523 0.00039322493 0)
(0.495238 0.00039954794 0)
(0.49064642 0.00040225288 0)
(0.48591752 0.0003994485 0)
(0.48112811 0.00039050397 0)
(0.47635299 0.00037463644 0)
(0.47170488 0.00035494902 0)
(0.46717423 0.00033095914 0)
(0.46293521 0.00031360034 0)
(0.45858981 0.00028830708 0)
(0.45501227 0.00028184287 1.0809421e-19)
(0.44943236 0.00024471917 0)
(0.97553129 0.020983907 0)
(0.97861562 0.026074303 0)
(0.98342021 0.029317681 0)
(0.98839455 0.030459332 0)
(0.99262387 0.030201255 0)
(0.99593873 0.029218034 0)
(0.99849071 0.027969198 0)
(1.0005089 0.026676068 0)
(1.0021594 0.025376863 0)
(1.0035028 0.024101748 0)
(1.0045935 0.022870356 0)
(1.0054447 0.02169161 0)
(1.0060745 0.020573346 0)
(1.0064846 0.019520206 0)
(1.0068176 0.018542181 0)
(1.0068104 0.017644236 0)
(1.0065729 0.016818553 0)
(1.0059505 0.01606026 0)
(1.0048029 0.015362278 0)
(1.0028661 0.014706858 0)
(0.99973581 0.01407612 0)
(0.99510294 0.013459469 0)
(0.98866652 0.012817573 0)
(0.98034904 0.012119245 0)
(0.97013867 0.011377025 0)
(0.95814374 0.01060608 0)
(0.94463077 0.0098249338 0)
(0.93002925 0.0090568061 0)
(0.91483229 0.0083159104 0)
(0.89950087 0.0076167777 0)
(0.88438924 0.0069703384 0)
(0.86972004 0.0063836631 0)
(0.85560633 0.0058569559 0)
(0.84209475 0.0053842878 0)
(0.82919878 0.0049587231 0)
(0.8169119 0.0045748184 0)
(0.80521612 0.0042273496 0)
(0.79408616 0.0039123818 0)
(0.78349156 0.0036272261 0)
(0.77340055 0.0033684309 0)
(0.76378229 0.0031331092 0)
(0.75460621 0.0029191198 0)
(0.74584282 0.0027238964 0)
(0.73746458 0.0025455053 0)
(0.72944541 0.002382384 0)
(0.72176076 0.0022327367 0)
(0.71438792 0.0020953985 0)
(0.70730564 0.0019690565 0)
(0.7004947 0.0018524387 0)
(0.6939372 0.0017448349 0)
(0.68761642 0.0016452294 0)
(0.6815172 0.0015528968 0)
(0.6756254 0.0014672133 0)
(0.66992809 0.0013874826 0)
(0.66441328 0.0013133044 0)
(0.65906972 0.0012441221 0)
(0.65388711 0.00117954 0)
(0.64885595 0.0011191598 0)
(0.64396759 0.0010625883 0)
(0.63921396 0.0010095485 0)
(0.63458755 0.00095970783 0)
(0.63008137 0.00091287503 0)
(0.62568895 0.00086881952 0)
(0.62140423 0.00082739294 0)
(0.61722133 0.00078847025 0)
(0.61313471 0.00075197088 0)
(0.60913904 0.00071781706 0)
(0.60522882 0.00068591449 0)
(0.60139837 0.0006561604 0)
(0.59764186 0.00062843644 0)
(0.59395335 0.00060263749 0)
(0.59032681 0.00057866324 0)
(0.58675602 0.00055646348 0)
(0.58323456 0.00053602138 0)
(0.57975556 0.00051737255 0)
(0.5763115 0.00050058153 0)
(0.57289386 0.00048576102 0)
(0.56949281 0.00047304267 0)
(0.56609679 0.0004625888 0)
(0.56269226 0.00045455512 0)
(0.55926325 0.00044909976 0)
(0.55579119 0.00044633121 0)
(0.55225478 0.00044631421 0)
(0.54863003 0.00044900917 0)
(0.54489075 0.00045427321 0)
(0.54100925 0.00046181051 0)
(0.53695808 0.00047111326 0)
(0.53271286 0.00048134109 0)
(0.52825786 0.00049121371 0)
(0.52359191 0.00049885899 0)
(0.51873892 0.00050197606 0)
(0.51374918 0.00049818647 0)
(0.50870341 0.00048668628 0)
(0.50368081 0.0004665456 0)
(0.49879599 0.0004416892 0)
(0.49404315 0.00041147041 0)
(0.48959158 0.00038969011 0)
(0.48505107 0.00035730264 -1.4575037e-20)
(0.4812848 0.00035550597 0)
(0.47542967 0.00029550652 -1.4132214e-20)
(0.97716583 0.020384484 0)
(0.97987989 0.024898087 0)
(0.98406091 0.027921226 0)
(0.98851121 0.029168114 0)
(0.99244241 0.029148697 0)
(0.99562552 0.028415074 0)
(0.99813301 0.027359943 0)
(1.0001309 0.02619963 0)
(1.0017584 0.025000813 0)
(1.0030898 0.023802384 0)
(1.0041766 0.022632128 0)
(1.0050582 0.021505303 0)
(1.0057646 0.020432426 0)
(1.0063172 0.019416635 0)
(1.006726 0.018472385 0)
(1.0070094 0.017603859 0)
(1.0071862 0.016798643 0)
(1.0072605 0.016065308 0)
(1.0072135 0.015407102 0)
(1.0070137 0.014811571 0)
(1.0065933 0.014269441 0)
(1.0058419 0.013776332 0)
(1.0046389 0.013319486 0)
(1.0026572 0.012881535 0)
(0.99956045 0.012445268 0)
(0.99502928 0.011993525 0)
(0.98877844 0.011492729 0)
(0.98071531 0.010923918 0)
(0.97082509 0.010305738 0)
(0.95925297 0.0096524422 0)
(0.94633668 0.0089863052 0)
(0.93254211 0.008324734 0)
(0.91834627 0.0076855319 0)
(0.9041436 0.0070837566 0)
(0.89020114 0.0065291312 0)
(0.87666752 0.0060253162 0)
(0.86361534 0.005568825 0)
(0.85107792 0.0051539325 0)
(0.83906556 0.0047763912 0)
(0.82757332 0.0044319869 0)
(0.81658683 0.0041176207 0)
(0.80608548 0.0038309758 0)
(0.79604585 0.0035690652 0)
(0.78644372 0.0033295538 0)
(0.77725418 0.0031104738 0)
(0.76845274 0.0029095737 0)
(0.76001578 0.0027253019 0)
(0.75192046 0.0025559402 0)
(0.74414558 0.0023998365 0)
(0.73667102 0.0022559822 0)
(0.72947775 0.0021230433 0)
(0.72254829 0.0020000286 0)
(0.7158662 0.0018860719 0)
(0.70941637 0.0017802477 0)
(0.70318469 0.0016819755 0)
(0.69715794 0.0015905138 0)
(0.69132388 0.0015053096 0)
(0.68567108 0.0014258149 0)
(0.68018906 0.0013515008 0)
(0.67486807 0.0012819784 0)
(0.66969901 0.0012168052 0)
(0.66467344 0.0011556983 0)
(0.65978342 0.0010983374 0)
(0.65502165 0.0010445025 0)
(0.65038116 0.00099400215 0)
(0.64585532 0.00094669434 0)
(0.64143776 0.00090245392 0)
(0.63712217 0.00086115073 0)
(0.63290209 0.00082264888 0)
(0.62877094 0.00078679716 0)
(0.62472196 0.00075345852 0)
(0.62074834 0.00072250184 0)
(0.61684305 0.00069385078 0)
(0.61299891 0.00066746604 0)
(0.60920831 0.00064336982 0)
(0.60546306 0.00062162126 0)
(0.60175401 0.00060233774 0)
(0.59807078 0.00058566339 0)
(0.5944013 0.00057178186 0)
(0.59073149 0.00056087528 0)
(0.58704482 0.00055313289 0)
(0.58332204 0.00054869264 0)
(0.57954098 0.00054764531 0)
(0.57567657 0.00054996387 0)
(0.57170122 0.00055549859 0)
(0.56758563 0.00056391228 0)
(0.56330065 0.00057459836 0)
(0.55882043 0.00058652472 0)
(0.55412839 0.0005980998 0)
(0.54922362 0.00060699344 0)
(0.54413143 0.00061037192 0)
(0.53890456 0.00060533979 0)
(0.53362652 0.00059091163 0)
(0.5283797 0.00056602864 0)
(0.5232796 0.00053547813 0)
(0.51832377 0.00049848866 0)
(0.51367663 0.00047181595 0)
(0.5089566 0.00043174781 0)
(0.50501616 0.00043555735 9.4002986e-20)
(0.49890448 0.00034985371 0)
(0.97866499 0.019826065 0)
(0.98107842 0.023839787 0)
(0.98473923 0.02664759 0)
(0.98871942 0.027952796 0)
(0.9923537 0.028119004 0)
(0.99539304 0.027597912 0)
(0.99785231 0.026725061 0)
(0.99984395 0.025702044 0)
(1.0014757 0.024609811 0)
(1.0028137 0.023494081 0)
(1.0039055 0.022388575 0)
(1.0047928 0.021313787 0)
(1.0055096 0.020283134 0)
(1.0060808 0.019303052 0)
(1.0065242 0.018388241 0)
(1.0068662 0.017542598 0)
(1.007122 0.016758725 0)
(1.0072944 0.016042915 0)
(1.0073984 0.015394598 0)
(1.0074707 0.014808568 0)
(1.0074619 0.014281427 0)
(1.0073961 0.013808663 0)
(1.0072476 0.013382645 0)
(1.0069701 0.012994063 0)
(1.0064857 0.012635857 0)
(1.0056816 0.012301211 0)
(1.004388 0.011978925 0)
(1.0022565 0.011656617 0)
(0.99896276 0.011320596 0)
(0.99415764 0.010943169 0)
(0.98764417 0.010496712 0)
(0.97932377 0.0099885504 0)
(0.96925348 0.0094314303 0)
(0.95769376 0.0088448471 0)
(0.94507497 0.0082498193 0)
(0.93187424 0.0076644586 0)
(0.91850621 0.0071053501 0)
(0.90526222 0.0065835808 0)
(0.89231225 0.0061045919 0)
(0.87974603 0.0056666629 0)
(0.86761087 0.0052655426 0)
(0.85592879 0.0048978387 0)
(0.84470485 0.0045601587 0)
(0.8339331 0.0042501732 0)
(0.82360042 0.0039658663 0)
(0.81369002 0.0037047354 0)
(0.80418301 0.003464983 0)
(0.79505909 0.00324456 0)
(0.78629809 0.0030414644 0)
(0.77787989 0.0028543929 0)
(0.7697848 0.0026816727 0)
(0.76199422 0.0025220216 0)
(0.7544903 0.002374299 0)
(0.74725637 0.0022373173 0)
(0.74027666 0.0021102846 0)
(0.73353625 0.0019922441 0)
(0.72702125 0.0018824604 0)
(0.72071852 0.0017802109 0)
(0.71461591 0.0016848056 0)
(0.70870201 0.0015957187 0)
(0.70296617 0.0015123751 0)
(0.69739845 0.0014343811 0)
(0.6919895 0.0013613072 0)
(0.68673067 0.0012928397 0)
(0.68161381 0.0012287038 0)
(0.67663121 0.0011686853 0)
(0.67177545 0.0011125972 0)
(0.66703929 0.0010602585 0)
(0.66241548 0.0010114913 0)
(0.65789665 0.00096610489 0)
(0.65347525 0.00092392476 0)
(0.64914364 0.0008847831 0)
(0.64489403 0.00084857097 0)
(0.64071842 0.00081522021 0)
(0.63660846 0.00078473346 0)
(0.63255526 0.00075715816 0)
(0.62854908 0.0007326108 0)
(0.62457896 0.00071124364 0)
(0.62063235 0.00069325866 0)
(0.6166947 0.00067886309 0)
(0.61274899 0.00066827779 0)
(0.6087754 0.00066167244 0)
(0.60475106 0.00065916746 0)
(0.60064998 0.0006607525 0)
(0.59644342 0.00066627378 0)
(0.59210068 0.00067535127 0)
(0.58759119 0.00068727064 0)
(0.58288781 0.0007007884 0)
(0.57797321 0.00071397087 0)
(0.57284652 0.0007239917 0)
(0.56753387 0.0007274474 0)
(0.56208956 0.0007208997 0)
(0.55659871 0.0007031741 0)
(0.55114578 0.00067309779 0)
(0.54584644 0.00063635183 0)
(0.5407012 0.0005920755 0)
(0.5358701 0.00056005062 0)
(0.53098037 0.0005117263 0)
(0.52687539 0.00052204705 0)
(0.52051924 0.00040792242 0)
(0.98004007 0.019301092 0)
(0.982199 0.022877311 0)
(0.98541859 0.025477893 0)
(0.98898209 0.02681287 0)
(0.9923318 0.027127966 0)
(0.99521424 0.026787144 0)
(0.99760513 0.026077924 0)
(0.99957729 0.02518554 0)
(1.0012119 0.024198638 0)
(1.0025637 0.02316807 0)
(1.0036738 0.02213107 0)
(1.0045797 0.021111652 0)
(1.0053138 0.020125714 0)
(1.0059013 0.019182826 0)
(1.0063633 0.018296723 0)
(1.0067246 0.017473259 0)
(1.0070034 0.016708563 0)
(1.0072106 0.016007683 0)
(1.0073606 0.015370948 0)
(1.0074661 0.014794763 0)
(1.0075361 0.014274854 0)
(1.007579 0.013806506 0)
(1.0075978 0.013384951 0)
(1.0075896 0.013002993 0)
(1.0075448 0.012655799 0)
(1.0074459 0.012339515 0)
(1.0072645 0.012048838 0)
(1.0069441 0.011777225 0)
(1.0063895 0.011520377 0)
(1.0054846 0.011271231 0)
(1.0039428 0.011020505 0)