/*--------------------------------*- C++ -*----------------------------------*\
| =========                 |                                                 |
| \\      /  F ield         | OpenFOAM: The Open Source CFD Toolbox           |
|  \\    /   O peration     | Version:  2206                                  |
|   \\  /    A nd           | Website:  www.openfoam.com                      |
|    \\/     M anipulation  |                                                 |
\*---------------------------------------------------------------------------*/
FoamFile
{
    version     2.0;
    format      ascii;
    arch        "LSB;label=32;scalar=64";
    class       volScalarField;
    location    "361";
    object      nut;
}
// * * * * * * * * * * * * * * * * * * * * * * * * * * * * * * * * * * * * * //

dimensions      [0 2 -1 0 0 0 0];

internalField   nonuniform List<scalar> 
13056
(
1.3245499e-11
1.3246527e-11
1.3248815e-11
1.3251908e-11
1.325568e-11
1.3260099e-11
1.3265155e-11
1.3270857e-11
1.3277231e-11
1.3284326e-11
1.3292214e-11
1.3300988e-11
1.3310781e-11
1.3321766e-11
1.3334208e-11
1.334841e-11
1.3365053e-11
1.3384483e-11
1.3409335e-11
1.3438002e-11
1.3485025e-11
1.3530905e-11
1.3675035e-11
1.3657411e-11
4.1997852e-21
1.645336e-21
2.6621958e-21
5.2467709e-21
1.0310471e-20
1.9293682e-20
3.3780147e-20
5.48556e-20
8.2454064e-20
1.1505951e-19
1.500491e-19
1.8450021e-19
2.1596536e-19
2.428821e-19
2.6459155e-19
2.8113229e-19
2.9296907e-19
3.0076841e-19
3.0524339e-19
3.0706513e-19
3.0682234e-19
3.0500863e-19
3.0202555e-19
2.9819313e-19
2.9376271e-19
2.889297e-19
2.8384436e-19
2.7862104e-19
2.7334615e-19
2.6808429e-19
2.628833e-19
2.57778e-19
2.5279335e-19
2.4794647e-19
2.4324861e-19
2.3870664e-19
2.3432408e-19
2.3010188e-19
2.2603917e-19
2.2213391e-19
2.1838295e-19
2.1478233e-19
2.1132766e-19
2.0801431e-19
2.0483746e-19
2.0179221e-19
1.9887358e-19
1.9607682e-19
1.9339736e-19
1.9083057e-19
1.8837194e-19
1.860171e-19
1.8376185e-19
1.8160216e-19
1.7953403e-19
1.7755362e-19
1.7565751e-19
1.7384231e-19
1.7210449e-19
1.7044073e-19
1.688478e-19
1.6732265e-19
1.6586202e-19
1.6446207e-19
1.6312188e-19
1.6183734e-19
1.6060554e-19
1.5942364e-19
1.5828878e-19
1.5719793e-19
1.5614828e-19
1.5513719e-19
1.5416158e-19
1.5321828e-19
1.5230424e-19
1.514163e-19
1.5055185e-19
1.4970822e-19
1.4888219e-19
1.4807032e-19
1.4726922e-19
1.4647631e-19
1.4568906e-19
1.4490421e-19
1.441182e-19
1.4332792e-19
1.4253077e-19
1.4172268e-19
1.4090007e-19
1.4007856e-19
1.3928165e-19
1.3851384e-19
1.3777187e-19
1.370544e-19
1.3635941e-19
1.3568414e-19
1.3502634e-19
1.343849e-19
1.3375858e-19
1.3314574e-19
1.3254457e-19
1.3195354e-19
1.3137209e-19
1.3079865e-19
1.3023153e-19
1.2966582e-19
1.2910345e-19
1.2851754e-19
1.2795319e-19
1.2723745e-19
1.2663336e-19
1.2573184e-19
1.3245499e-11
1.3246528e-11
1.3248818e-11
1.3251915e-11
1.325569e-11
1.3260114e-11
1.3265175e-11
1.3270883e-11
1.3277263e-11
1.3284366e-11
1.3292262e-11
1.3301045e-11
1.3310848e-11
1.3321843e-11
1.3334297e-11
1.3348512e-11
1.336517e-11
1.3384617e-11
1.3409491e-11
1.3438181e-11
1.3485241e-11
1.3531157e-11
1.3675387e-11
1.3657833e-11
3.4415071e-19
1.3581595e-19
2.1975312e-19
4.3314942e-19
8.5133802e-19
1.5933976e-18
2.7902941e-18
4.5318398e-18
6.8126032e-18
9.5072259e-18
1.239883e-17
1.524579e-17
1.7845818e-17
2.0069826e-17
2.1863427e-17
2.3229873e-17
2.4207613e-17
2.4851756e-17
2.522124e-17
2.5371528e-17
2.5351265e-17
2.5201233e-17
2.4954611e-17
2.4637835e-17
2.4271672e-17
2.3872262e-17
2.3452019e-17
2.3020388e-17
2.2584506e-17
2.2149712e-17
2.1719953e-17
2.1298108e-17
2.0886237e-17
2.0485753e-17
2.0097587e-17
1.9722304e-17
1.9360196e-17
1.9011339e-17
1.8675663e-17
1.8352997e-17
1.8043082e-17
1.7745589e-17
1.7460158e-17
1.7186403e-17
1.6923929e-17
1.6672328e-17
1.6431188e-17
1.620012e-17
1.5978744e-17
1.5766678e-17
1.5563547e-17
1.5368994e-17
1.5182669e-17
1.5004239e-17
1.4833375e-17
1.4669759e-17
1.4513108e-17
1.4363141e-17
1.4219569e-17
1.4082114e-17
1.3950513e-17
1.3824512e-17
1.370384e-17
1.3588182e-17
1.3477462e-17
1.3371339e-17
1.3269574e-17
1.317193e-17
1.3078174e-17
1.2988053e-17
1.2901335e-17
1.2817803e-17
1.2737201e-17
1.2659269e-17
1.2583753e-17
1.2510393e-17
1.2438974e-17
1.2369274e-17
1.2301028e-17
1.2233951e-17
1.2167762e-17
1.2102251e-17
1.2037206e-17
1.1972359e-17
1.1907416e-17
1.184212e-17
1.1776255e-17
1.1709486e-17
1.1641518e-17
1.1573639e-17
1.1507793e-17
1.1444352e-17
1.1383046e-17
1.1323764e-17
1.126634e-17
1.1210545e-17
1.1156194e-17
1.1103194e-17
1.1051445e-17
1.1000808e-17
1.0951137e-17
1.0902303e-17
1.0854261e-17
1.080688e-17
1.0760023e-17
1.0713281e-17
1.0666815e-17
1.0618405e-17
1.0571776e-17
1.0512637e-17
1.0462724e-17
1.0388237e-17
1.3245499e-11
1.3246531e-11
1.3248827e-11
1.3251934e-11
1.3255721e-11
1.3260159e-11
1.3265237e-11
1.3270962e-11
1.3277362e-11
1.3284487e-11
1.3292407e-11
1.3301217e-11
1.3311049e-11
1.3322077e-11
1.3334566e-11
1.3348822e-11
1.3365525e-11
1.3385025e-11
1.3409963e-11
1.3438726e-11
1.3485896e-11
1.353192e-11
1.367645e-11
1.365904e-11
2.7416769e-18
1.0886356e-18
1.7614738e-18
3.4726134e-18
6.8270808e-18
1.2781493e-17
2.2388398e-17
3.6369983e-17
5.4682987e-17
7.6320154e-17
9.9538765e-17
1.2239762e-16
1.4327206e-16
1.6112589e-16
1.7552301e-16
1.8649016e-16
1.9433652e-16
1.9950484e-16
2.0246845e-16
2.036727e-16
2.0350813e-16
2.0230212e-16
2.0032097e-16
1.9777691e-16
1.9483657e-16
1.9162953e-16
1.8825539e-16
1.8478995e-16
1.812905e-16
1.7779985e-16
1.7434971e-16
1.7096316e-16
1.6765673e-16
1.6444175e-16
1.6132569e-16
1.5831308e-16
1.5540626e-16
1.5260584e-16
1.4991125e-16
1.4732112e-16
1.4483335e-16
1.4244533e-16
1.4015413e-16
1.3795668e-16
1.3584979e-16
1.3383019e-16
1.3189459e-16
1.3003983e-16
1.2826287e-16
1.2656066e-16
1.2493018e-16
1.2336856e-16
1.2187299e-16
1.204408e-16
1.1906935e-16
1.1775608e-16
1.1649871e-16
1.1529501e-16
1.1414263e-16
1.1303937e-16
1.1198309e-16
1.1097176e-16
1.1000321e-16
1.090749e-16
1.0818623e-16
1.0733445e-16
1.0651766e-16
1.0573394e-16
1.0498142e-16
1.0425809e-16
1.0356206e-16
1.028916e-16
1.0224465e-16
1.0161914e-16
1.0101301e-16
1.0042417e-16
9.9850913e-17
9.9291448e-17
9.8743642e-17
9.8205214e-17
9.7673916e-17
9.7148046e-17
9.6625914e-17
9.6105363e-17
9.5584038e-17
9.5059869e-17
9.4531136e-17
9.399514e-17
9.344951e-17
9.2904597e-17
9.2375998e-17
9.1866706e-17
9.1374552e-17
9.0898652e-17
9.0437668e-17
8.9989761e-17
8.9553452e-17
8.9127988e-17
8.8712561e-17
8.8306072e-17
8.7907328e-17
8.7515312e-17
8.7129648e-17
8.6749298e-17
8.6373148e-17
8.5997924e-17
8.5624916e-17
8.5236303e-17
8.4861985e-17
8.4387248e-17
8.3986566e-17
8.3388614e-17
1.3245499e-11
1.3246536e-11
1.3248844e-11
1.3251967e-11
1.3255774e-11
1.3260236e-11
1.3265341e-11
1.3271097e-11
1.3277531e-11
1.3284694e-11
1.3292655e-11
1.330151e-11
1.3311392e-11
1.3322474e-11
1.3335025e-11
1.3349349e-11
1.336613e-11
1.3385719e-11
1.3410766e-11
1.3439653e-11
1.348701e-11
1.3533218e-11
1.3678257e-11
1.3661069e-11
1.1081296e-17
4.4270256e-18
7.1632072e-18
1.412523e-17
2.7780361e-17
5.2031233e-17
9.1174457e-17
1.4816043e-16
2.2281501e-16
3.1102799e-16
4.0568729e-16
4.9887279e-16
5.8395896e-16
6.5672307e-16
7.1539074e-16
7.600745e-16
7.9203736e-16
8.130858e-16
8.2515004e-16
8.300456e-16
8.2936428e-16
8.244403e-16
8.1635883e-16
8.0598453e-16
7.9399642e-16
7.8092232e-16
7.6716806e-16
7.5304243e-16
7.3877874e-16
7.2455145e-16
7.1048961e-16
6.9668726e-16
6.8321175e-16
6.7010919e-16
6.5740996e-16
6.4513253e-16
6.3328635e-16
6.2187393e-16
6.1089291e-16
6.003377e-16
5.9019976e-16
5.8046835e-16
5.7113162e-16
5.6217699e-16
5.5359146e-16
5.4536171e-16
5.3747429e-16
5.2991636e-16
5.2267557e-16
5.1573938e-16
5.0909554e-16
5.0273232e-16
4.966383e-16
4.9080257e-16
4.8521436e-16
4.7986327e-16
4.7474001e-16
4.6983543e-16
4.6514002e-16
4.6064475e-16
4.5634091e-16
4.5222026e-16
4.4827395e-16
4.4449157e-16
4.4087074e-16
4.3740024e-16
4.3407227e-16
4.3087907e-16
4.2781296e-16
4.2486575e-16
4.2202979e-16
4.19298e-16
4.16662e-16
4.1411327e-16
4.1164352e-16
4.092442e-16
4.0690831e-16
4.046286e-16
4.0239636e-16
4.0020229e-16
3.9803724e-16
3.9589428e-16
3.9376651e-16
3.9164515e-16
3.895206e-16
3.8738443e-16
3.8522964e-16
3.8304522e-16
3.8082152e-16
3.7860071e-16
3.7644639e-16
3.7437075e-16
3.7236495e-16
3.7042541e-16
3.6854668e-16
3.6672124e-16
3.6494308e-16
3.6320913e-16
3.6151608e-16
3.5985947e-16
3.5823443e-16
3.5663681e-16
3.5506508e-16
3.5351501e-16
3.5198206e-16
3.5045289e-16
3.4893274e-16
3.47349e-16
3.4582352e-16
3.438888e-16
3.4225585e-16
3.3981898e-16
1.32455e-11
1.3246543e-11
1.3248868e-11
1.3252014e-11
1.3255851e-11
1.3260347e-11
1.3265491e-11
1.3271291e-11
1.3277775e-11
1.3284991e-11
1.3293012e-11
1.3301932e-11
1.3311886e-11
1.3323047e-11
1.3335686e-11
1.3350108e-11
1.3367002e-11
1.3386719e-11
1.3411924e-11
1.3440988e-11
1.3488615e-11
1.3535087e-11
1.3680855e-11
1.3663976e-11
3.2447782e-17
1.3044669e-17
2.1106559e-17
4.1633394e-17
8.1921506e-17
1.535185e-16
2.6914817e-16
4.3755711e-16
6.5823994e-16
9.1903151e-16
1.1988782e-15
1.4743419e-15
1.7258269e-15
1.9408556e-15
2.1141956e-15
2.2461929e-15
2.3405908e-15
2.4027353e-15
2.4383346e-15
2.4527559e-15
2.4507036e-15
2.4361202e-15
2.412212e-15
2.3815334e-15
2.3460901e-15
2.3074414e-15
2.2667857e-15
2.2250353e-15
2.182879e-15
2.1408321e-15
2.0992756e-15
2.0584871e-15
2.0186656e-15
1.979947e-15
1.942421e-15
1.906142e-15
1.8711379e-15
1.8374161e-15
1.8049694e-15
1.7737814e-15
1.7438266e-15
1.7150734e-15
1.6874866e-15
1.6610292e-15
1.6356625e-15
1.6113473e-15
1.5880438e-15
1.565714e-15
1.5443214e-15
1.5238289e-15
1.5042004e-15
1.4854011e-15
1.4673973e-15
1.4501568e-15
1.4336476e-15
1.4178391e-15
1.4027039e-15
1.3882147e-15
1.3743436e-15
1.3610639e-15
1.3483497e-15
1.3361768e-15
1.324519e-15
1.3133455e-15
1.3026493e-15
1.2923972e-15
1.2825661e-15
1.2731331e-15
1.2640756e-15
1.2553692e-15
1.2469915e-15
1.2389214e-15
1.2311342e-15
1.2236047e-15
1.2163084e-15
1.20922e-15
1.202319e-15
1.1955837e-15
1.1889885e-15
1.182506e-15
1.1761091e-15
1.1697773e-15
1.1634902e-15
1.157222e-15
1.1509442e-15
1.144632e-15
1.1382646e-15
1.1318096e-15
1.1252383e-15
1.1186756e-15
1.1123093e-15
1.1061755e-15
1.1002482e-15
1.0945166e-15
1.0889648e-15
1.0835705e-15
1.0783159e-15
1.073192e-15
1.0681891e-15
1.0632938e-15
1.0584918e-15
1.0537708e-15
1.0491264e-15
1.044546e-15
1.0400162e-15
1.0354975e-15
1.0310055e-15
1.0263256e-15
1.0218179e-15
1.0161009e-15
1.0112755e-15
1.0040747e-15
1.32455e-11
1.3246553e-11
1.3248899e-11
1.3252077e-11
1.3255953e-11
1.3260495e-11
1.3265691e-11
1.327155e-11
1.32781e-11
1.3285388e-11
1.3293488e-11
1.3302495e-11
1.3312545e-11
1.3323812e-11
1.3336568e-11
1.3351121e-11
1.3368165e-11
1.3388052e-11
1.3413467e-11
1.3442768e-11
1.3490752e-11
1.3537577e-11
1.3684312e-11
1.3667841e-11
7.8977502e-17
3.1959634e-17
5.1708256e-17
1.0203466e-16
2.0089408e-16
3.7672435e-16
6.6089247e-16
1.074991e-15
1.617808e-15
2.2593767e-15
2.9478212e-15
3.6254102e-15
4.2439114e-15
4.7726464e-15
5.1987812e-15
5.5232057e-15
5.7551567e-15
5.907801e-15
5.995187e-15
6.0305173e-15
6.025361e-15
5.9894115e-15
5.9305505e-15
5.8550568e-15
5.7678603e-15
5.6727924e-15
5.572799e-15
5.4701209e-15
5.366451e-15
5.2630551e-15
5.1608693e-15
5.0605756e-15
4.9626622e-15
4.8674632e-15
4.7751986e-15
4.686002e-15
4.5999415e-15
4.517035e-15
4.4372648e-15
4.3605902e-15
4.2869487e-15
4.2162621e-15
4.1484442e-15
4.0834032e-15
4.0210447e-15
3.9612718e-15
3.9039865e-15
3.8490956e-15
3.7965091e-15
3.746136e-15
3.6978871e-15
3.6516771e-15
3.6074231e-15
3.5650455e-15
3.5244663e-15
3.4856097e-15
3.4484082e-15
3.4127953e-15
3.3787017e-15
3.346062e-15
3.3148126e-15
3.2848938e-15
3.2562413e-15
3.2287787e-15
3.2024899e-15
3.1772925e-15
3.1531299e-15
3.1299458e-15
3.1076843e-15
3.0862858e-15
3.0656948e-15
3.0458597e-15
3.0267197e-15
3.0082128e-15
2.9902787e-15
2.9728553e-15
2.9558919e-15
2.9393357e-15
2.9231233e-15
2.9071875e-15
2.8914615e-15
2.8758953e-15
2.8604387e-15
2.8450278e-15
2.8295932e-15
2.8140735e-15
2.798418e-15
2.7825467e-15
2.7663892e-15
2.7502525e-15
2.7345987e-15
2.7195165e-15
2.7049419e-15
2.690849e-15
2.677198e-15
2.6639345e-15
2.6510146e-15
2.6384162e-15
2.6261151e-15
2.6140788e-15
2.602272e-15
2.5906645e-15
2.5792452e-15
2.5679834e-15
2.5568459e-15
2.5457359e-15
2.5346914e-15
2.5231851e-15
2.5121018e-15
2.4980456e-15
2.4861814e-15
2.4684766e-15
1.3245501e-11
1.3246565e-11
1.324894e-11
1.3252158e-11
1.3256083e-11
1.3260683e-11
1.3265947e-11
1.3271881e-11
1.3278514e-11
1.3285895e-11
1.3294096e-11
1.3303215e-11
1.3313386e-11
1.3324788e-11
1.3337694e-11
1.3352414e-11
1.3369648e-11
1.3389753e-11
1.3415435e-11
1.3445037e-11
1.3493476e-11
1.3540748e-11
1.3688711e-11
1.3672761e-11
1.7093408e-16
6.9655194e-17
1.1268591e-16
2.2245724e-16
4.3830652e-16
8.2259353e-16
1.4441892e-15
2.3505866e-15
3.5392213e-15
4.9443671e-15
6.452197e-15
7.936084e-15
9.2903193e-15
1.044775e-14
1.1380361e-14
1.2090196e-14
1.2597553e-14
1.293131e-14
1.3122247e-14
1.319928e-14
1.3187736e-14
1.3108831e-14
1.2979814e-14
1.2814425e-14
1.2623448e-14
1.2415267e-14
1.2196325e-14
1.1971523e-14
1.1744565e-14
1.1518219e-14
1.1294532e-14
1.1074995e-14
1.0860675e-14
1.0652302e-14
1.0450357e-14
1.0255132e-14
1.0066775e-14
9.8853246e-15
9.7107418e-15
9.5429365e-15
9.3817723e-15
9.2270774e-15
9.0786628e-15
8.9363275e-15
8.7998648e-15
8.6690621e-15
8.543705e-15
8.4235894e-15
8.308518e-15
8.1982916e-15
8.0927149e-15
7.991601e-15
7.8947683e-15
7.802043e-15
7.7132536e-15
7.6282345e-15
7.546838e-15
7.468918e-15
7.3943232e-15
7.32291e-15
7.2545397e-15
7.1890807e-15
7.1263932e-15
7.0663086e-15
7.0087931e-15
6.9536654e-15
6.9008018e-15
6.8500787e-15
6.801374e-15
6.754557e-15
6.7095062e-15
6.6661088e-15
6.6242315e-15
6.5837386e-15
6.5444981e-15
6.5063739e-15
6.4692552e-15
6.4330263e-15
6.3975489e-15
6.3626753e-15
6.3282598e-15
6.2941928e-15
6.2603647e-15
6.2266356e-15
6.1928535e-15
6.1588844e-15
6.1246172e-15
6.0898767e-15
6.0545092e-15
6.0191865e-15
5.9849206e-15
5.9519058e-15
5.9200022e-15
5.8891533e-15
5.8592721e-15
5.8302393e-15
5.8019588e-15
5.7743823e-15
5.747457e-15
5.7211112e-15
5.6952678e-15
5.6698608e-15
5.6448661e-15
5.620216e-15
5.5958382e-15
5.5715205e-15
5.5473462e-15
5.5221611e-15
5.4979019e-15
5.467136e-15
5.4411669e-15
5.4024146e-15
1.3245502e-11
1.324658e-11
1.324899e-11
1.3252257e-11
1.3256245e-11
1.3260918e-11
1.3266265e-11
1.3272292e-11
1.3279029e-11
1.3286525e-11
1.3294851e-11
1.3304108e-11
1.3314431e-11
1.3326e-11
1.3339091e-11
1.3354018e-11
1.3371489e-11
1.3391863e-11
1.3417875e-11
1.344785e-11
1.3496852e-11
1.3544677e-11
1.3694152e-11
1.3678855e-11
3.4167197e-16
1.4027939e-16
2.2690966e-16
4.4817042e-16
8.8375924e-16
1.6601549e-15
2.9172561e-15
4.7517443e-15
7.1586629e-15
1.0004694e-14
1.3058814e-14
1.6064113e-14
1.8806301e-14
2.1149434e-14
2.3036962e-14
2.4473234e-14
2.549951e-14
2.6174363e-14
2.656017e-14
2.6715492e-14
2.6691607e-14
2.653146e-14
2.6269957e-14
2.5934897e-14
2.5548105e-14
2.5126537e-14
2.4683229e-14
2.4228097e-14
2.3768629e-14
2.3310424e-14
2.2857621e-14
2.2413236e-14
2.1979425e-14
2.1557665e-14
2.1148927e-14
2.0753799e-14
2.0372579e-14
2.0005346e-14
1.9652019e-14
1.9312415e-14
1.8986257e-14
1.8673197e-14
1.8372852e-14
1.8084815e-14
1.7808666e-14
1.7543975e-14
1.7290308e-14
1.7047252e-14
1.6814406e-14
1.6591367e-14
1.6377741e-14
1.6173148e-14
1.597722e-14
1.5789606e-14
1.5609958e-14
1.5437941e-14
1.5273256e-14
1.5115607e-14
1.4964688e-14
1.4820207e-14
1.4681884e-14
1.4549452e-14
1.4422628e-14
1.430107e-14
1.4184712e-14
1.4073184e-14
1.3966237e-14
1.386362e-14
1.3765086e-14
1.367037e-14
1.3579226e-14
1.3491426e-14
1.3406699e-14
1.3324772e-14
1.3245377e-14
1.3168237e-14
1.309313e-14
1.3019821e-14
1.2948029e-14
1.2877457e-14
1.2807809e-14
1.2738863e-14
1.2670399e-14
1.2602133e-14
1.2533757e-14
1.2465e-14
1.2395638e-14
1.2325317e-14
1.2253724e-14
1.2182221e-14
1.2112856e-14
1.2046023e-14
1.1981441e-14
1.1918994e-14
1.1858506e-14
1.1799737e-14
1.174249e-14
1.168667e-14
1.1632168e-14
1.157884e-14
1.1526528e-14
1.14751e-14
1.1424508e-14
1.1374612e-14
1.1325269e-14
1.1276047e-14
1.1227115e-14
1.1176137e-14
1.1127034e-14
1.1064761e-14
1.1012195e-14
1.0933755e-14
1.3245503e-11
1.3246598e-11
1.3249051e-11
1.3252379e-11
1.3256441e-11
1.3261203e-11
1.3266651e-11
1.3272793e-11
1.3279656e-11
1.3287291e-11
1.3295771e-11
1.3305195e-11
1.3315703e-11
1.3327475e-11
1.3340791e-11
1.3355971e-11
1.3373729e-11
1.3394429e-11
1.3420844e-11
1.345127e-11
1.3500953e-11
1.3549449e-11
1.3700748e-11
1.3686262e-11
6.4553358e-16
2.6721447e-16
4.3216454e-16
8.5403393e-16
1.6856633e-15
3.1699185e-15
5.5759181e-15
9.0901325e-15
1.3703642e-14
1.9160485e-14
2.5016723e-14
3.0778827e-14
3.6035492e-14
4.0526153e-14
4.4142747e-14
4.689401e-14
4.8859348e-14
5.0151234e-14
5.088933e-14
5.118591e-14
5.1139258e-14
5.0831658e-14
5.0329983e-14
4.9687485e-14
4.8945963e-14
4.8137894e-14
4.7288243e-14
4.6415995e-14
4.5535492e-14
4.4657453e-14
4.37898e-14
4.2938306e-14
4.2107101e-14
4.1299008e-14
4.0515884e-14
3.9758854e-14
3.9028489e-14
3.8324933e-14
3.7648033e-14
3.6997436e-14
3.637261e-14
3.5772887e-14
3.5197532e-14
3.4645764e-14
3.4116779e-14
3.3609752e-14
3.3123849e-14
3.2658279e-14
3.2212275e-14
3.1785064e-14
3.1375888e-14
3.098402e-14
3.0608757e-14
3.0249422e-14
2.9905351e-14
2.95759e-14
2.9260496e-14
2.8958571e-14
2.8669539e-14
2.8392841e-14
2.8127939e-14
2.7874322e-14
2.7631449e-14
2.7398657e-14
2.7175828e-14
2.696225e-14
2.6757443e-14
2.6560928e-14
2.637223e-14
2.6190843e-14
2.6016294e-14
2.5848147e-14
2.5685882e-14
2.5528973e-14
2.5376909e-14
2.5229161e-14
2.50853e-14
2.4944876e-14
2.4807355e-14
2.4672162e-14
2.4538735e-14
2.4406648e-14
2.4275478e-14
2.4144681e-14
2.4013669e-14
2.3881924e-14
2.3749016e-14
2.3614264e-14
2.3477072e-14
2.3340048e-14
2.3207121e-14
2.3079047e-14
2.2955284e-14
2.2835615e-14
2.2719704e-14
2.2607085e-14
2.2497386e-14
2.2390421e-14
2.2285984e-14
2.2183795e-14
2.2083557e-14
2.1985012e-14
2.1888067e-14
2.1792461e-14
2.1697911e-14
2.1603594e-14
2.1509833e-14
2.1412153e-14
2.1318063e-14
2.1198742e-14
2.1098015e-14
2.0947713e-14
1.3245504e-11
1.3246619e-11
1.3249123e-11
1.3252524e-11
1.3256677e-11
1.3261545e-11
1.3267115e-11
1.3273394e-11
1.3280409e-11
1.3288211e-11
1.3296875e-11
1.33065e-11
1.3317229e-11
1.3329245e-11
1.3342832e-11
1.3358314e-11
1.3376417e-11
1.3397508e-11
1.3424403e-11
1.345537e-11
1.3505866e-11
1.3555162e-11
1.3708629e-11
1.3695138e-11
1.1702963e-15
4.8883454e-16
7.9044432e-16
1.5629812e-15
3.0881432e-15
5.8142107e-15
1.0238963e-14
1.6708391e-14
2.5207429e-14
3.5263849e-14
4.6057627e-14
5.6677308e-14
6.6363907e-14
7.4637249e-14
8.1298773e-14
8.6365279e-14
8.9983626e-14
9.2361396e-14
9.3719232e-14
9.4264049e-14
9.4176907e-14
9.3609366e-14
9.2684575e-14
9.1500592e-14
9.0134374e-14
8.8645719e-14
8.7080584e-14
8.547392e-14
8.3852126e-14
8.2234934e-14
8.0636923e-14
7.906872e-14
7.7537922e-14
7.6049724e-14
7.460754e-14
7.321344e-14
7.1868471e-14
7.0572896e-14
6.9326431e-14
6.8128423e-14
6.6977889e-14
6.5873599e-14
6.4814198e-14
6.3798244e-14
6.2824258e-14
6.1890718e-14
6.0996089e-14
6.013891e-14
5.931777e-14
5.8531243e-14
5.7777933e-14
5.7056501e-14
5.636565e-14
5.5704135e-14
5.507073e-14
5.446425e-14
5.3883637e-14
5.3327847e-14
5.2795798e-14
5.228646e-14
5.1798842e-14
5.1332e-14
5.0884944e-14
5.0456437e-14
5.0046281e-14
4.9653151e-14
4.9276167e-14
4.8914444e-14
4.8567107e-14
4.8233222e-14
4.7911922e-14
4.7602397e-14
4.7303694e-14
4.7014844e-14
4.67349e-14
4.6462892e-14
4.6198029e-14
4.5939485e-14
4.5686271e-14
4.5437333e-14
4.5191634e-14
4.4948392e-14
4.4706827e-14
4.446594e-14
4.4224645e-14
4.3981992e-14
4.3737188e-14
4.348898e-14
4.3236269e-14
4.2983862e-14
4.2738999e-14
4.2503073e-14
4.2275092e-14
4.2054654e-14
4.1841141e-14
4.1633694e-14
4.1431629e-14
4.1234602e-14
4.1042234e-14
4.0854009e-14
4.0669376e-14
4.0487864e-14
4.0309302e-14
4.0133205e-14
3.9959055e-14
3.9785334e-14
3.9612637e-14
3.9432725e-14
3.925942e-14
3.9039652e-14
3.8854122e-14
3.8577282e-14
1.3245506e-11
1.3246645e-11
1.324921e-11
1.3252697e-11
1.3256957e-11
1.3261951e-11
1.3267667e-11
1.3274108e-11
1.3281303e-11
1.3289304e-11
1.3298186e-11
1.3308051e-11
1.3319043e-11
1.3331348e-11
1.3345256e-11
1.3361095e-11
1.3379606e-11
1.3401161e-11
1.3428623e-11
1.346023e-11
1.3511684e-11
1.3561924e-11
1.3717936e-11
1.3705662e-11
2.0566314e-15
8.6775193e-16
1.4028784e-15
2.7757322e-15
5.4904634e-15
1.035069e-14
1.8250919e-14
2.9815222e-14
4.501975e-14
6.301876e-14
8.2341173e-14
1.013519e-13
1.1869032e-13
1.3349668e-13
1.4541638e-13
1.5448054e-13
1.6095286e-13
1.6520538e-13
1.6763321e-13
1.6860672e-13
1.6844989e-13
1.6743387e-13
1.6577895e-13
1.6366053e-13
1.6121626e-13
1.5855308e-13
1.5575319e-13
1.528791e-13
1.4997801e-13
1.4708522e-13
1.442268e-13
1.4142174e-13
1.3868364e-13
1.3602178e-13
1.3344226e-13
1.3094878e-13
1.2854322e-13
1.2622604e-13
1.2399673e-13
1.2185411e-13
1.1979644e-13
1.178215e-13
1.1592688e-13
1.1410998e-13
1.1236817e-13
1.1069872e-13
1.0909888e-13
1.0756603e-13
1.0609766e-13
1.0469121e-13
1.0334418e-13
1.0205418e-13
1.0081888e-13
9.9636061e-14
9.850352e-14
9.7419139e-14
9.6381026e-14
9.5387311e-14
9.4436057e-14
9.3525422e-14
9.265363e-14
9.181899e-14
9.1019739e-14
9.0253639e-14
8.9520367e-14
8.8817532e-14
8.8143561e-14
8.749687e-14
8.6875894e-14
8.627896e-14
8.5704515e-14
8.5151113e-14
8.4617043e-14
8.4100573e-14
8.360001e-14
8.3113615e-14
8.2639975e-14
8.2177613e-14
8.1724759e-14
8.1279531e-14
8.084007e-14
8.0404984e-14
7.9972876e-14
7.9541958e-14
7.9110292e-14
7.867618e-14
7.8238204e-14
7.7794122e-14
7.7341966e-14
7.6890344e-14
7.6452215e-14
7.6030073e-14
7.5622149e-14
7.5227728e-14
7.4845702e-14
7.4474535e-14
7.4113001e-14
7.3760488e-14
7.3416312e-14
7.3079552e-14
7.274922e-14
7.2424475e-14
7.2105012e-14
7.178996e-14
7.1478392e-14
7.1167593e-14
7.0858623e-14
7.0536751e-14
7.0226695e-14
6.9833534e-14
6.9501597e-14
6.9006308e-14
1.3245508e-11
1.3246675e-11
1.3249311e-11
1.32529e-11
1.3257286e-11
1.326243e-11
1.3268316e-11
1.3274948e-11
1.3282356e-11
1.3290591e-11
1.329973e-11
1.3309876e-11
1.3321177e-11
1.3333822e-11
1.3348107e-11
1.3364367e-11
1.3383357e-11
1.3405456e-11
1.3433584e-11
1.3465939e-11
1.3518512e-11
1.3569857e-11
1.3728824e-11
1.3718029e-11
3.5282712e-15
1.5056075e-15
2.4336169e-15
4.8183821e-15
9.5423695e-15
1.8014864e-14
3.1808859e-14
5.2026668e-14
7.8633388e-14
1.1014826e-13
1.4398983e-13
1.7728812e-13
2.0765607e-13
2.335868e-13
2.5446004e-13
2.7033163e-13
2.8166439e-13
2.891105e-13
2.9336213e-13
2.9506785e-13
2.947949e-13
2.9301796e-13
2.9012265e-13
2.8641597e-13
2.8213887e-13
2.7747856e-13
2.7257891e-13
2.6754934e-13
2.6247248e-13
2.5741013e-13
2.524079e-13
2.4749909e-13
2.4270745e-13
2.3804926e-13
2.3353519e-13
2.2917173e-13
2.2496215e-13
2.2090727e-13
2.170062e-13
2.1325688e-13
2.0965624e-13
2.0620042e-13
2.0288518e-13
1.99706e-13
1.9665824e-13
1.9373714e-13
1.9093789e-13
1.882559e-13
1.8568677e-13
1.8322601e-13
1.8086926e-13
1.7861232e-13
1.7645113e-13
1.7438178e-13
1.7240044e-13
1.7050337e-13
1.6868729e-13
1.669489e-13
1.6528481e-13
1.6369181e-13
1.6216677e-13
1.6070673e-13
1.5930863e-13
1.579685e-13
1.5668582e-13
1.5545638e-13
1.5427744e-13
1.531462e-13
1.5205993e-13
1.5101571e-13
1.5001081e-13
1.4904269e-13
1.4810837e-13
1.4720481e-13
1.4632904e-13
1.4547801e-13
1.4464927e-13
1.4384021e-13
1.4304775e-13
1.4226859e-13
1.4149948e-13
1.4073798e-13
1.3998166e-13
1.3922738e-13
1.3847176e-13
1.3771182e-13
1.3694509e-13
1.3616764e-13
1.3537602e-13
1.3458532e-13
1.3381823e-13
1.3307913e-13
1.3236492e-13
1.3167437e-13
1.3100552e-13
1.303557e-13
1.2972275e-13
1.291056e-13
1.2850305e-13
1.2791349e-13
1.2733519e-13
1.2676668e-13
1.2620741e-13
1.2565588e-13
1.2511044e-13
1.2456635e-13
1.2402547e-13
1.23462e-13
1.2291921e-13
1.2223099e-13
1.2164988e-13
1.2078281e-13
1.324551e-11
1.3246709e-11
1.3249429e-11
1.3253137e-11
1.3257671e-11
1.3262989e-11
1.3269074e-11
1.3275931e-11
1.3283587e-11
1.3292096e-11
1.3301534e-11
1.331201e-11
1.3323672e-11
1.3336714e-11
1.3351438e-11
1.3368188e-11
1.3387736e-11
1.3410468e-11
1.3439369e-11
1.3472594e-11
1.3526464e-11
1.3579089e-11
1.3741455e-11
1.3732455e-11
5.938349e-15
2.566632e-15
4.1479073e-15
8.2183332e-15
1.6296467e-14
3.0812428e-14
5.4487104e-14
8.9237223e-14
1.3501745e-13
1.8928078e-13
2.4757355e-13
3.0494131e-13
3.5726399e-13
4.0194225e-13
4.3790714e-13
4.6525572e-13
4.8478603e-13
4.9762187e-13
5.0495561e-13
5.0790427e-13
5.0744473e-13
5.0439443e-13
4.9941745e-13
4.9304253e-13
4.8568463e-13
4.7766621e-13
4.6923507e-13
4.6057972e-13
4.5184253e-13
4.4312995e-13
4.3452057e-13
4.2607178e-13
4.1782454e-13
4.0980689e-13
4.0203726e-13
3.9452681e-13
3.8728121e-13
3.803019e-13
3.7358733e-13
3.67134e-13
3.6093662e-13
3.5498855e-13
3.4928249e-13
3.4381066e-13
3.385651e-13
3.3353758e-13
3.2871985e-13
3.24104e-13
3.1968244e-13
3.1544747e-13
3.1139156e-13
3.0750748e-13
3.0378824e-13
3.0022711e-13
2.9681747e-13
2.9355294e-13
2.9042779e-13
2.8743639e-13
2.845729e-13
2.8183175e-13
2.7920759e-13
2.766953e-13
2.7428962e-13
2.7198364e-13
2.6977659e-13
2.6766114e-13
2.6563255e-13
2.6368605e-13
2.618169e-13
2.6002006e-13
2.5829086e-13
2.5662491e-13
2.5501706e-13
2.5346208e-13
2.5195487e-13
2.5049017e-13
2.4906375e-13
2.4767114e-13
2.4630701e-13
2.449657e-13
2.436416e-13
2.4233055e-13
2.4102832e-13
2.3972955e-13
2.3842839e-13
2.3711974e-13
2.3579935e-13
2.3446044e-13
2.3309708e-13
2.3173525e-13
2.3041407e-13
2.2914109e-13
2.2791099e-13
2.2672164e-13
2.2556971e-13
2.2445055e-13
2.2336046e-13
2.222976e-13
2.2125991e-13
2.2024459e-13
2.1924866e-13
2.1826959e-13
2.1730647e-13
2.1635666e-13
2.1541736e-13
2.1448039e-13
2.1354892e-13
2.125786e-13
2.1164385e-13
2.1045876e-13
2.09458e-13
2.079648e-13
1.3245513e-11
1.324675e-11
1.3249566e-11
1.3253412e-11
1.3258117e-11
1.3263637e-11
1.3269954e-11
1.3277071e-11
1.3285016e-11
1.3293843e-11
1.330363e-11
1.3314488e-11
1.3326568e-11
1.334007e-11
1.3355305e-11
1.3372622e-11
1.3392816e-11
1.3416279e-11
1.3446073e-11
1.3480302e-11
1.3535661e-11
1.358976e-11
1.3756003e-11
1.3749174e-11
9.8398271e-15
4.3150126e-15
6.9725498e-15
1.3824971e-14
2.745078e-14
5.1985602e-14
9.207623e-14
1.5101623e-13
2.2875971e-13
3.2098785e-13
4.2011898e-13
5.177096e-13
6.0673646e-13
6.827687e-13
7.4398347e-13
7.9054386e-13
8.2380609e-13
8.456808e-13
8.5819528e-13
8.6324891e-13
8.6250287e-13
8.5734738e-13
8.4891199e-13
8.3809615e-13
8.2560589e-13
8.1198986e-13
7.9766984e-13
7.8296667e-13
7.6812273e-13
7.5331926e-13
7.3869014e-13
7.243331e-13
7.1031795e-13
6.966925e-13
6.8348819e-13
6.7072411e-13
6.5840995e-13
6.4654821e-13
6.3513634e-13
6.2416843e-13
6.1363549e-13
6.0352629e-13
5.9382842e-13
5.845287e-13
5.7561358e-13
5.6706912e-13
5.5888126e-13
5.510366e-13
5.4352221e-13
5.3632502e-13
5.2943221e-13
5.2283153e-13
5.1651105e-13
5.1045935e-13
5.046652e-13
4.9911768e-13
4.9380712e-13
4.887239e-13
4.8385809e-13
4.7920023e-13
4.747412e-13
4.704723e-13
4.6638461e-13
4.6246625e-13
4.5871611e-13
4.5512158e-13
4.5167463e-13
4.4836712e-13
4.4519101e-13
4.4213772e-13
4.3919928e-13
4.3636827e-13
4.3363588e-13
4.3099324e-13
4.2843165e-13
4.2594219e-13
4.2351765e-13
4.2115043e-13
4.188315e-13
4.1655121e-13
4.1430004e-13
4.1207092e-13
4.0985668e-13
4.0764817e-13
4.054355e-13
4.0321e-13
4.0096441e-13
3.9868725e-13
3.9636839e-13
3.9405208e-13
3.9180486e-13
3.8963961e-13
3.8754731e-13
3.8552437e-13
3.8356509e-13
3.8166156e-13
3.7980751e-13
3.7799981e-13
3.7623493e-13
3.7450811e-13
3.7281428e-13
3.7114915e-13
3.6951115e-13
3.678958e-13
3.6629834e-13
3.6470484e-13
3.6312069e-13
3.6147053e-13
3.5988079e-13
3.5786557e-13
3.5616351e-13
3.53624e-13
1.3245516e-11
1.3246796e-11
1.3249723e-11
1.3253728e-11
1.3258632e-11
1.3264386e-11
1.3270971e-11
1.3278389e-11
1.3286668e-11
1.3295861e-11
1.3306051e-11
1.331735e-11
1.3329913e-11
1.3343946e-11
1.3359767e-11
1.3377738e-11
1.3398674e-11
1.3422977e-11
1.3453796e-11
1.3489175e-11
1.3546234e-11
1.3602018e-11
1.3772645e-11
1.376844e-11
1.6091208e-14
7.1738483e-15
1.1591451e-14
2.3000587e-14
4.5733099e-14
8.6753617e-14
1.5391854e-13
2.5283638e-13
3.8349451e-13
5.3865679e-13
7.0555513e-13
8.6994544e-13
1.0199699e-12
1.148142e-12
1.251375e-12
1.3299323e-12
1.3860907e-12
1.4230634e-12
1.4442616e-12
1.4528829e-12
1.4517247e-12
1.4431287e-12
1.428998e-12
1.4108487e-12
1.3898708e-12
1.3669896e-12
1.3429163e-12
1.3181923e-12
1.2932266e-12
1.2683252e-12
1.243714e-12
1.2195582e-12
1.1959758e-12
1.1730477e-12
1.1508271e-12
1.1293465e-12
1.1086223e-12
1.088659e-12
1.0694524e-12
1.0509926e-12
1.0332648e-12
1.01625e-12
9.9992735e-13
9.8427485e-13
9.6926964e-13
9.5488833e-13
9.4110726e-13
9.279039e-13
9.1525651e-13
9.0314309e-13
8.9154208e-13
8.8043284e-13
8.6979531e-13
8.5961027e-13
8.4985877e-13
8.4052249e-13
8.3158509e-13
8.2303039e-13
8.1484166e-13
8.0700297e-13
7.9949896e-13
7.9231494e-13
7.8543598e-13
7.7884184e-13
7.7253093e-13
7.6648184e-13
7.6068108e-13
7.5511491e-13
7.4976979e-13
7.4463126e-13
7.3968589e-13
7.3492117e-13
7.3032227e-13
7.2587424e-13
7.2156242e-13
7.1737177e-13
7.1329017e-13
7.0930485e-13
7.0540055e-13
7.0156105e-13
6.9777035e-13
6.9401654e-13
6.9028757e-13
6.8656803e-13
6.8284126e-13
6.7909271e-13
6.7531018e-13
6.7147427e-13
6.6756795e-13
6.6366581e-13
6.5988001e-13
6.5623225e-13
6.5270742e-13
6.4929948e-13
6.4599884e-13
6.4279215e-13
6.3966885e-13
6.3662369e-13
6.336507e-13
6.3074183e-13
6.2788856e-13
6.2508365e-13
6.2232449e-13
6.196035e-13
6.1691265e-13
6.1422848e-13
6.1156006e-13
6.0878057e-13
6.0610269e-13
6.0270869e-13
5.9984156e-13
5.955638e-13
1.324552e-11
1.3246848e-11
1.3249902e-11
1.3254091e-11
1.3259222e-11
1.3265246e-11
1.3272139e-11
1.3279903e-11
1.3288565e-11
1.3298181e-11
1.3308833e-11
1.3320638e-11
1.3333755e-11
1.3348396e-11
1.3364891e-11
1.3383609e-11
1.3405394e-11
1.3430657e-11
1.3462643e-11
1.3499332e-11
1.3558319e-11
1.3616015e-11
1.3791561e-11
1.3790522e-11
2.6012855e-14
1.1817609e-14
1.9095861e-14
3.79209e-14
7.5506883e-14
1.4348239e-13
2.5502277e-13
4.1961199e-13
6.3736089e-13
8.962713e-13
1.1750334e-12
1.4498145e-12
1.7007434e-12
1.915252e-12
2.0881349e-12
2.2197972e-12
2.3140194e-12
2.3761555e-12
2.411898e-12
2.426587e-12
2.4248973e-12
2.4107443e-12
2.3873116e-12
2.3571361e-12
2.3222103e-12
2.2840838e-12
2.2439482e-12
2.2027109e-12
2.1610576e-12
2.1195017e-12
2.0784223e-12
2.038097e-12
1.9987241e-12
1.9604397e-12