/*--------------------------------*- C++ -*----------------------------------*\
| =========                 |                                                 |
| \\      /  F ield         | OpenFOAM: The Open Source CFD Toolbox           |
|  \\    /   O peration     | Version:  2206                                  |
|   \\  /    A nd           | Website:  www.openfoam.com                      |
|    \\/     M anipulation  |                                                 |
\*---------------------------------------------------------------------------*/
FoamFile
{
    version     2.0;
    format      ascii;
    arch        "LSB;label=32;scalar=64";
    class       volScalarField;
    location    "361";
    object      nuTilda;
}
// * * * * * * * * * * * * * * * * * * * * * * * * * * * * * * * * * * * * * //

dimensions      [0 2 -1 0 0 0 0];

internalField   nonuniform List<scalar> 
13056
(
2e-06
2.0000389e-06
2.0001252e-06
2.0002419e-06
2.0003843e-06
2.0005509e-06
2.0007416e-06
2.0009566e-06
2.0011968e-06
2.0014641e-06
2.0017611e-06
2.0020914e-06
2.0024598e-06
2.0028728e-06
2.0033403e-06
2.0038736e-06
2.0044979e-06
2.005226e-06
2.0061562e-06
2.0072275e-06
2.0089812e-06
2.0106878e-06
2.016021e-06
2.0153712e-06
8.4395439e-09
6.6769151e-09
7.5304721e-09
8.9224728e-09
1.0564084e-08
1.2355661e-08
1.4212733e-08
1.6044177e-08
1.7765e-08
1.9308247e-08
2.0633388e-08
2.1727583e-08
2.2599989e-08
2.3273467e-08
2.3776953e-08
2.4140146e-08
2.4390328e-08
2.4551061e-08
2.4641876e-08
2.4678561e-08
2.4673681e-08
2.4637137e-08
2.4576675e-08
2.4498338e-08
2.440683e-08
2.4305819e-08
2.4198156e-08
2.4086056e-08
2.3971237e-08
2.3855034e-08
2.3738483e-08
2.3622381e-08
2.3507347e-08
2.3393849e-08
2.3282242e-08
2.317279e-08
2.3065689e-08
2.2961077e-08
2.2859048e-08
2.2759668e-08
2.2662973e-08
2.2568975e-08
2.247767e-08
2.2389042e-08
2.2303065e-08
2.2219706e-08
2.2138922e-08
2.2060673e-08
2.1984917e-08
2.1911605e-08
2.1840685e-08
2.1772105e-08
2.1705812e-08
2.1641754e-08
2.1579874e-08
2.1520115e-08
2.146243e-08
2.1406767e-08
2.1353067e-08
2.1301273e-08
2.1251327e-08
2.1203175e-08
2.1156749e-08
2.1111964e-08
2.1068822e-08
2.1027221e-08
2.0987095e-08
2.0948377e-08
2.0910997e-08
2.0874876e-08
2.0839942e-08
2.0806124e-08
2.0773336e-08
2.0741485e-08
2.0710482e-08
2.068023e-08
2.065065e-08
2.062166e-08
2.0593155e-08
2.0565024e-08
2.0537151e-08
2.0509452e-08
2.0481839e-08
2.0454198e-08
2.0426404e-08
2.0398344e-08
2.0369922e-08
2.0340988e-08
2.0311407e-08
2.0281736e-08
2.0252828e-08
2.0224859e-08
2.019772e-08
2.0171373e-08
2.0145752e-08
2.0120764e-08
2.0096334e-08
2.0072424e-08
2.0048995e-08
2.0025991e-08
2.0003348e-08
1.9981011e-08
1.9958963e-08
1.9937147e-08
1.9915501e-08
1.9893838e-08
1.9872233e-08
1.9849648e-08
1.9827821e-08
1.9800034e-08
1.9776491e-08
1.9741199e-08
2e-06
2.0000389e-06
2.0001253e-06
2.0002422e-06
2.0003846e-06
2.0005515e-06
2.0007424e-06
2.0009576e-06
2.001198e-06
2.0014656e-06
2.0017629e-06
2.0020935e-06
2.0024623e-06
2.0028757e-06
2.0033437e-06
2.0038774e-06
2.0045023e-06
2.005231e-06
2.006162e-06
2.0072342e-06
2.0089892e-06
2.0106972e-06
2.016034e-06
2.0153867e-06
2.5392144e-08
2.0125649e-08
2.2698438e-08
2.6895006e-08
3.184474e-08
3.7247167e-08
4.2847422e-08
4.837053e-08
5.3559989e-08
5.8213761e-08
6.2209596e-08
6.5508807e-08
6.8139089e-08
7.0169456e-08
7.1687224e-08
7.2781988e-08
7.3536033e-08
7.4020408e-08
7.4294013e-08
7.4404442e-08
7.4389581e-08
7.4279275e-08
7.4096877e-08
7.3860602e-08
7.3584633e-08
7.3280023e-08
7.295537e-08
7.2617345e-08
7.2271132e-08
7.1920753e-08
7.1569326e-08
7.121926e-08
7.0872419e-08
7.0530212e-08
7.0193708e-08
6.9863706e-08
6.9540793e-08
6.9225385e-08
6.8917769e-08
6.8618142e-08
6.8326612e-08
6.8043213e-08
6.7767934e-08
6.7500728e-08
6.7241517e-08
6.6990198e-08
6.6746646e-08
6.6510737e-08
6.6282345e-08
6.6061321e-08
6.584751e-08
6.5640755e-08
6.5440896e-08
6.5247774e-08
6.506122e-08
6.4881062e-08
6.4707156e-08
6.4539346e-08
6.4377456e-08
6.4221312e-08
6.4070741e-08
6.3925577e-08
6.3785619e-08
6.3650606e-08
6.3520548e-08
6.3395135e-08
6.3274169e-08
6.3157447e-08
6.3044758e-08
6.2935867e-08
6.2830551e-08
6.2728601e-08
6.2629754e-08
6.2533734e-08
6.2440268e-08
6.2349065e-08
6.225989e-08
6.217249e-08
6.2086554e-08
6.2001741e-08
6.191771e-08
6.18342e-08
6.1750948e-08
6.1667613e-08
6.1583815e-08
6.1499214e-08
6.1413522e-08
6.1326286e-08
6.1237099e-08
6.1147639e-08
6.1060481e-08
6.0976151e-08
6.0894326e-08
6.0814887e-08
6.0737641e-08
6.0662302e-08
6.0588643e-08
6.0516554e-08
6.0445917e-08
6.0376559e-08
6.0308289e-08
6.0240944e-08
6.0174469e-08
6.0108694e-08
6.0043431e-08
5.9978117e-08
5.9912976e-08
5.9844884e-08
5.9779075e-08
5.9695298e-08
5.9624315e-08
5.9517909e-08
2.0000001e-06
2.000039e-06
2.0001257e-06
2.0002429e-06
2.0003858e-06
2.0005532e-06
2.0007447e-06
2.0009605e-06
2.0012018e-06
2.0014702e-06
2.0017684e-06
2.0021e-06
2.0024699e-06
2.0028845e-06
2.0033538e-06
2.003889e-06
2.0045156e-06
2.0052463e-06
2.0061797e-06
2.0072546e-06
2.0090137e-06
2.0107255e-06
2.0160732e-06
2.0154313e-06
4.265955e-08
3.3863577e-08
3.8192778e-08
4.5256016e-08
5.3588422e-08
6.268413e-08
7.211373e-08
8.1413792e-08
9.0151979e-08
9.7987802e-08
1.0471533e-07
1.1026951e-07
1.1469714e-07
1.1811459e-07
1.20669e-07
1.2251131e-07
1.2378009e-07
1.2459499e-07
1.2505514e-07
1.2524068e-07
1.2521537e-07
1.2502945e-07
1.2472221e-07
1.2432432e-07
1.2385964e-07
1.2334678e-07
1.228002e-07
1.2223112e-07
1.2164828e-07
1.2105844e-07
1.2046684e-07
1.1987754e-07
1.1929368e-07
1.1871763e-07
1.1815119e-07
1.1759569e-07
1.1705213e-07
1.1652121e-07
1.1600341e-07
1.1549906e-07
1.1500834e-07
1.1453132e-07
1.1406796e-07
1.136182e-07
1.1318189e-07
1.1275887e-07
1.1234893e-07
1.1195186e-07
1.1156743e-07
1.1119542e-07
1.1083554e-07
1.1048755e-07
1.1015116e-07
1.0982611e-07
1.0951212e-07
1.092089e-07
1.089162e-07
1.0863377e-07
1.0836129e-07
1.0809849e-07
1.0784507e-07
1.0760076e-07
1.073652e-07
1.0713797e-07
1.0691908e-07
1.06708e-07
1.0650441e-07
1.0630797e-07
1.0611831e-07
1.0593504e-07
1.0575779e-07
1.0558621e-07
1.0541984e-07
1.0525823e-07
1.0510092e-07
1.0494742e-07
1.0479733e-07
1.0465023e-07
1.0450558e-07
1.0436283e-07
1.0422139e-07
1.0408082e-07
1.0394069e-07
1.0380042e-07
1.0365937e-07
1.0351696e-07
1.0337272e-07
1.0322587e-07
1.0307574e-07
1.0292515e-07
1.0277843e-07
1.0263648e-07
1.0249874e-07
1.0236502e-07
1.0223499e-07
1.0210817e-07
1.0198418e-07
1.0186283e-07
1.0174392e-07
1.0162717e-07
1.0151226e-07
1.0139889e-07
1.01287e-07
1.0117628e-07
1.0106642e-07
1.0095648e-07
1.0084683e-07
1.0073221e-07
1.0062143e-07
1.0048041e-07
1.0036093e-07
1.0018181e-07
2.0000001e-06
2.0000392e-06
2.0001263e-06
2.0002442e-06
2.0003878e-06
2.0005561e-06
2.0007486e-06
2.0009656e-06
2.0012081e-06
2.001478e-06
2.0017777e-06
2.002111e-06
2.0024828e-06
2.0028995e-06
2.003371e-06
2.0039088e-06
2.0045383e-06
2.0052723e-06
2.0062097e-06
2.0072892e-06
2.0090551e-06
2.0107738e-06
2.0161397e-06
2.0155061e-06
6.0486693e-08
4.8088387e-08
5.4236179e-08
6.4270412e-08
7.6110868e-08
8.9038582e-08
1.0244258e-07
1.1566322e-07
1.2808501e-07
1.3922335e-07
1.4878531e-07
1.5667859e-07
1.6297005e-07
1.6782543e-07
1.7145416e-07
1.7407093e-07
1.7587278e-07
1.7702977e-07
1.7768282e-07
1.7794578e-07
1.7790925e-07
1.776446e-07
1.7720766e-07
1.7664196e-07
1.7598143e-07
1.7525248e-07
1.7447565e-07
1.7366691e-07
1.7283863e-07
1.7200042e-07
1.7115975e-07
1.7032236e-07
1.6949272e-07
1.6867418e-07
1.678693e-07
1.6707999e-07
1.6630765e-07
1.6555328e-07
1.6481756e-07
1.6410096e-07
1.6340373e-07
1.6272596e-07
1.6206762e-07
1.614286e-07
1.608087e-07
1.6020769e-07
1.5962526e-07
1.5906112e-07
1.5851496e-07
1.5798643e-07
1.5747515e-07
1.5698075e-07
1.5650285e-07
1.5604107e-07
1.5559499e-07
1.5516422e-07
1.547484e-07
1.5434716e-07
1.5396008e-07
1.5358675e-07
1.5322674e-07
1.5287966e-07
1.5254504e-07
1.5222223e-07
1.5191128e-07
1.5161144e-07
1.5132222e-07
1.5104316e-07
1.5077373e-07
1.5051339e-07
1.5026159e-07
1.5001784e-07
1.497815e-07
1.4955192e-07
1.4932844e-07
1.4911037e-07
1.4889714e-07
1.4868815e-07
1.4848265e-07
1.4827984e-07
1.4807888e-07
1.4787917e-07
1.4768007e-07
1.4748077e-07
1.4728035e-07
1.4707801e-07
1.4687306e-07
1.466644e-07
1.4645108e-07
1.462371e-07
1.4602862e-07
1.4582691e-07
1.4563119e-07
1.4544118e-07
1.4525642e-07
1.4507622e-07
1.4490003e-07
1.4472761e-07
1.4455866e-07
1.4439277e-07
1.4422948e-07
1.440684e-07
1.4390941e-07
1.4375209e-07
1.43596e-07
1.4343978e-07
1.4328398e-07
1.4312112e-07
1.4296372e-07
1.4276334e-07
1.4259357e-07
1.4233907e-07
2.0000001e-06
2.0000395e-06
2.0001272e-06
2.0002459e-06
2.0003907e-06
2.0005603e-06
2.0007543e-06
2.000973e-06
2.0012173e-06
2.0014892e-06
2.0017912e-06
2.0021269e-06
2.0025014e-06
2.002921e-06
2.0033959e-06
2.0039373e-06
2.004571e-06
2.0053097e-06
2.006253e-06
2.007339e-06
2.0091149e-06
2.0108432e-06
2.0162355e-06
2.0156133e-06
7.9124041e-08
6.300434e-08
7.1058587e-08
8.4211744e-08
9.9738237e-08
1.1669504e-07
1.3427961e-07
1.5162503e-07
1.6792226e-07
1.8253444e-07
1.9507696e-07
2.05429e-07
2.1367884e-07
2.200445e-07
2.2480114e-07
2.2823065e-07
2.3059165e-07
2.3210724e-07
2.3296224e-07
2.3330594e-07
2.3325712e-07
2.3290933e-07
2.3233577e-07
2.315935e-07
2.3072698e-07
2.2977082e-07
2.2875196e-07
2.276913e-07
2.2660507e-07
2.2550587e-07
2.2440347e-07
2.2330541e-07
2.2221752e-07
2.2114422e-07
2.2008885e-07
2.1905392e-07
2.1804125e-07
2.1705215e-07
2.1608751e-07
2.1514796e-07
2.1423382e-07
2.133452e-07
2.1248207e-07
2.1164427e-07
2.1083156e-07
2.1004362e-07
2.0928005e-07
2.0854045e-07
2.0782444e-07
2.0713155e-07
2.0646129e-07
2.0581316e-07
2.0518667e-07
2.0458131e-07
2.0399655e-07
2.0343185e-07
2.0288676e-07
2.0236079e-07
2.0185339e-07
2.01364e-07
2.0089209e-07
2.0043714e-07
1.9999851e-07
1.9957537e-07
1.9916778e-07
1.9877475e-07
1.9839565e-07
1.9802985e-07
1.9767669e-07
1.9733543e-07
1.9700538e-07
1.9668586e-07
1.9637606e-07
1.9607512e-07
1.9578217e-07
1.954963e-07
1.9521677e-07
1.949428e-07
1.946734e-07
1.9440751e-07
1.9414406e-07
1.9388223e-07
1.9362119e-07
1.9335988e-07
1.9309711e-07
1.9283181e-07
1.9256308e-07
1.9228949e-07
1.9200977e-07
1.917292e-07
1.9145583e-07
1.9119134e-07
1.909347e-07
1.9068556e-07
1.9044329e-07
1.90207e-07
1.8997599e-07
1.897499e-07
1.8952837e-07
1.8931086e-07
1.8909676e-07
1.8888556e-07
1.8867709e-07
1.8847081e-07
1.8826614e-07
1.8806132e-07
1.8785703e-07
1.8764349e-07
1.8743711e-07
1.8717438e-07
1.8695177e-07
1.8661808e-07
2.0000001e-06
2.0000398e-06
2.0001284e-06
2.0002483e-06
2.0003946e-06
2.0005659e-06
2.0007619e-06
2.0009827e-06
2.0012295e-06
2.0015041e-06
2.0018091e-06
2.0021481e-06
2.0025262e-06
2.0029497e-06
2.003429e-06
2.0039753e-06
2.0046145e-06
2.0053597e-06
2.0063107e-06
2.0074055e-06
2.0091945e-06
2.0109356e-06
2.0163628e-06
2.0157558e-06
9.8829831e-08
7.882476e-08
8.8900085e-08
1.0536567e-07
1.2481132e-07
1.4605557e-07
1.6809117e-07
1.8982938e-07
2.1025385e-07
2.2856481e-07
2.4427976e-07
2.572477e-07
2.6758008e-07
2.7555102e-07
2.8150596e-07
2.8579854e-07
2.8875299e-07
2.9064889e-07
2.9171777e-07
2.9214661e-07
2.9208414e-07
2.9164749e-07
2.9092829e-07
2.8999799e-07
2.8891221e-07
2.8771429e-07
2.8643795e-07
2.8510934e-07
2.8374878e-07
2.8237204e-07
2.8099133e-07
2.7961611e-07
2.7825366e-07
2.7690951e-07
2.7558785e-07
2.742918e-07
2.7302366e-07
2.7178505e-07
2.705771e-07
2.6940058e-07
2.682559e-07
2.6714319e-07
2.6606241e-07
2.6501336e-07
2.6399575e-07
2.6300916e-07
2.6205309e-07
2.6112706e-07
2.6023057e-07
2.5936304e-07
2.5852385e-07
2.5771239e-07
2.5692802e-07
2.5617012e-07
2.5543803e-07
2.5473106e-07
2.5404864e-07
2.5339017e-07
2.5275495e-07
2.521423e-07
2.5155152e-07
2.5098198e-07
2.5043288e-07
2.4990318e-07
2.4939294e-07
2.4890092e-07
2.4842636e-07
2.4796844e-07
2.4752635e-07
2.4709914e-07
2.4668596e-07
2.4628597e-07
2.4589815e-07
2.455214e-07
2.4515464e-07
2.4479675e-07
2.4444679e-07
2.4410378e-07
2.4376648e-07
2.4343357e-07
2.431037e-07
2.4277584e-07
2.4244898e-07
2.4212177e-07
2.4179271e-07
2.4146048e-07
2.4112395e-07
2.4078134e-07
2.4043104e-07
2.4007965e-07
2.397373e-07
2.3940606e-07
2.3908465e-07
2.3877263e-07
2.3846922e-07
2.3817331e-07
2.37884e-07
2.3760087e-07
2.3732345e-07
2.3705105e-07
2.3678292e-07
2.3651844e-07
2.3625737e-07
2.3599905e-07
2.3574275e-07
2.3548624e-07
2.3523042e-07
2.34963e-07
2.3470455e-07
2.3437555e-07
2.3409676e-07
2.3367888e-07
2.0000001e-06
2.0000403e-06
2.0001299e-06
2.0002514e-06
2.0003995e-06
2.000573e-06
2.0007715e-06
2.0009952e-06
2.0012452e-06
2.0015232e-06
2.001832e-06
2.0021752e-06
2.0025578e-06
2.0029864e-06
2.0034712e-06
2.0040238e-06
2.0046702e-06
2.0054234e-06
2.0063843e-06
2.0074902e-06
2.0092959e-06
2.0110534e-06
2.0165249e-06
2.0159372e-06
1.1987245e-07
9.5774652e-08
1.0801389e-07
1.2803357e-07
1.5168991e-07
1.7754503e-07
2.0437051e-07
2.3083745e-07
2.5570495e-07
2.7799686e-07
2.9712494e-07
3.1290591e-07
3.2547667e-07
3.3517214e-07
3.4241377e-07
3.4763264e-07
3.5122366e-07
3.535272e-07
3.5482504e-07
3.5534464e-07
3.5526692e-07
3.5473431e-07
3.5385825e-07
3.5272561e-07
3.5140401e-07
3.4994615e-07
3.4839303e-07
3.4677642e-07
3.4512105e-07
3.4344607e-07
3.4176633e-07
3.4009331e-07
3.3843589e-07
3.3680077e-07
3.3519304e-07
3.336165e-07
3.3207394e-07
3.3056734e-07
3.2909805e-07
3.2766701e-07
3.2627472e-07
3.2492135e-07
3.2360683e-07
3.2233093e-07
3.2109327e-07
3.1989337e-07
3.1873061e-07
3.176044e-07
3.1651413e-07
3.1545909e-07
3.1443854e-07
3.1345172e-07
3.1249787e-07
3.1157621e-07
3.1068595e-07
3.0982626e-07
3.0899643e-07
3.0819574e-07
3.0742333e-07
3.0667836e-07
3.0596002e-07
3.0526748e-07
3.0459983e-07
3.0395575e-07
3.0333535e-07
3.0273711e-07
3.0216009e-07
3.0160331e-07
3.0106576e-07
3.0054633e-07
3.0004393e-07
2.9955758e-07
2.99086e-07
2.9862788e-07
2.9818191e-07
2.977467e-07
2.9732113e-07
2.9690399e-07
2.964938e-07
2.9608891e-07
2.9568772e-07
2.9528897e-07
2.9489141e-07
2.944934e-07
2.9409315e-07
2.9368903e-07
2.9327966e-07
2.9286288e-07
2.9243675e-07
2.9200928e-07
2.9159281e-07
2.9118984e-07
2.9079884e-07
2.9041927e-07
2.9005017e-07
2.896902e-07
2.8933826e-07
2.8899384e-07
2.8865637e-07
2.88325e-07
2.8799884e-07
2.8767711e-07
2.8735954e-07
2.8704531e-07
2.8673354e-07
2.8642152e-07
2.8611032e-07
2.8578503e-07
2.8547064e-07
2.8507043e-07
2.8473131e-07
2.8422298e-07
2.0000002e-06
2.0000408e-06
2.0001318e-06
2.0002551e-06
2.0004056e-06
2.0005818e-06
2.0007835e-06
2.0010107e-06
2.0012646e-06
2.0015469e-06
2.0018604e-06
2.0022088e-06
2.0025971e-06
2.003032e-06
2.0035237e-06
2.004084e-06
2.0047392e-06
2.0055024e-06
2.0064755e-06
2.0075952e-06
2.0094216e-06
2.0111993e-06
2.0167252e-06
2.0161618e-06
1.4253271e-07
1.1409344e-07
1.2866945e-07
1.5253623e-07
1.8075724e-07
2.1161642e-07
2.4364407e-07
2.7524882e-07
3.0494407e-07
3.3156079e-07
3.5439545e-07
3.7322987e-07
3.8822907e-07
3.9979458e-07
4.0843083e-07
4.1465323e-07
4.1893358e-07
4.2167829e-07
4.2322365e-07
4.2384104e-07
4.2374627e-07
4.2310923e-07
4.2206278e-07
4.2071049e-07
4.1913303e-07
4.173932e-07
4.1553988e-07
4.1361096e-07
4.116359e-07
4.0963755e-07
4.076336e-07
4.0563774e-07
4.0366054e-07
4.0171e-07
3.9979218e-07
3.9791161e-07
3.9607161e-07
3.9427453e-07
3.92522e-07
3.9081512e-07
3.8915449e-07
3.8754031e-07
3.8597249e-07
3.8445076e-07
3.8297468e-07
3.8154363e-07
3.8015692e-07
3.7881381e-07
3.7751359e-07
3.7625541e-07
3.7503838e-07
3.7386159e-07
3.7272413e-07
3.7162509e-07
3.705635e-07
3.6953839e-07
3.685489e-07
3.6759416e-07
3.6667316e-07
3.657849e-07
3.6492839e-07
3.6410267e-07
3.6330662e-07
3.6253868e-07
3.6179898e-07
3.6108571e-07
3.6039774e-07
3.597339e-07
3.59093e-07
3.5847368e-07
3.5787467e-07
3.5729478e-07
3.567325e-07
3.5618626e-07
3.5565448e-07
3.5513553e-07
3.5462805e-07
3.541306e-07
3.5364142e-07
3.5315856e-07
3.5268007e-07
3.5220448e-07
3.517303e-07
3.5125557e-07
3.5077814e-07
3.5029608e-07
3.4980776e-07
3.4931057e-07
3.4880221e-07
3.4829226e-07
3.4779541e-07
3.4731468e-07
3.4684822e-07
3.4639539e-07
3.4595508e-07
3.4552565e-07
3.451058e-07
3.4469494e-07
3.4429235e-07
3.4389706e-07
3.4350799e-07
3.4312419e-07
3.4274536e-07
3.4237052e-07
3.4199861e-07
3.416264e-07
3.4125518e-07
3.4086714e-07
3.4049211e-07
3.4001472e-07
3.3961017e-07
3.3900378e-07
2.0000002e-06
2.0000415e-06
2.0001341e-06
2.0002597e-06
2.000413e-06
2.0005926e-06
2.000798e-06
2.0010296e-06
2.0012882e-06
2.0015758e-06
2.001895e-06
2.0022497e-06
2.0026449e-06
2.0030874e-06
2.0035876e-06
2.0041573e-06
2.0048231e-06
2.0055985e-06
2.0065865e-06
2.0077228e-06
2.0095742e-06
2.0113764e-06
2.016968e-06
2.0164347e-06
1.6710595e-07
1.3403777e-07
1.5115569e-07
1.7921774e-07
2.1242465e-07
2.4875638e-07
2.8647802e-07
3.2370899e-07
3.5869161e-07
3.9004421e-07
4.169364e-07
4.3911192e-07
4.5676711e-07
4.7037698e-07
4.8053725e-07
4.878559e-07
4.9288901e-07
4.961153e-07
4.9793069e-07
4.9865459e-07
4.9854093e-07
4.9778956e-07
4.9655678e-07
4.9496441e-07
4.931073e-07
4.9105935e-07
4.8887802e-07
4.8660788e-07
4.8428356e-07
4.8193193e-07
4.7957381e-07
4.7722528e-07
4.7489878e-07
4.726037e-07
4.7034718e-07
4.6813453e-07
4.6596967e-07
4.6385535e-07
4.6179347e-07
4.5978534e-07
4.5783167e-07
4.5593267e-07
4.5408825e-07
4.5229809e-07
4.5056165e-07
4.4887823e-07
4.4724698e-07
4.4566706e-07
4.4413762e-07
4.4265766e-07
4.4122613e-07
4.3984196e-07
4.3850408e-07
4.3721141e-07
4.3596281e-07
4.3475712e-07
4.3359337e-07
4.3247051e-07
4.3138733e-07
4.3034269e-07
4.2933539e-07
4.2836432e-07
4.2742816e-07
4.2652504e-07
4.2565517e-07
4.2481637e-07
4.2400733e-07
4.2322667e-07
4.2247297e-07
4.2174465e-07
4.2104021e-07
4.2035824e-07
4.1969697e-07
4.1905454e-07
4.1842911e-07
4.1781874e-07
4.1722184e-07
4.1663673e-07
4.160613e-07
4.1549329e-07
4.149304e-07
4.143709e-07
4.1381303e-07
4.1325449e-07
4.1269275e-07
4.1212555e-07
4.1155096e-07
4.1096593e-07
4.1036772e-07
4.0976763e-07
4.0918295e-07
4.0861723e-07
4.0806832e-07
4.0753545e-07
4.0701731e-07
4.0651198e-07
4.0601794e-07
4.0553447e-07
4.0506075e-07
4.0459562e-07
4.0413779e-07
4.0368619e-07
4.0324043e-07
4.0279937e-07
4.0236175e-07
4.0192379e-07
4.0148698e-07
4.010304e-07
4.0058912e-07
4.0002739e-07
3.9955136e-07
3.9883785e-07
2.0000002e-06
2.0000423e-06
2.0001368e-06
2.0002652e-06
2.0004219e-06
2.0006055e-06
2.0008155e-06
2.0010522e-06
2.0013166e-06
2.0016104e-06
2.0019366e-06
2.0022988e-06
2.0027023e-06
2.0031539e-06
2.0036642e-06
2.0042451e-06
2.0049238e-06
2.0057137e-06
2.0067195e-06
2.0078758e-06
2.009757e-06
2.0115883e-06
2.017258e-06
2.0167615e-06
1.9390373e-07
1.5588441e-07
1.7578428e-07
2.084494e-07
2.4713631e-07
2.8949089e-07
3.3348492e-07
3.7691712e-07
4.1772874e-07
4.5430199e-07
4.8566589e-07
5.1152224e-07
5.3210238e-07
5.4796286e-07
5.5980042e-07
5.6832534e-07
5.7418666e-07
5.7794278e-07
5.8005531e-07
5.8089648e-07
5.8076218e-07
5.7988523e-07
5.7844769e-07
5.7659145e-07
5.7442699e-07
5.7204035e-07
5.6949846e-07
5.6685323e-07
5.64145e-07
5.6140504e-07
5.586576e-07
5.5592141e-07
5.5321094e-07
5.5053715e-07
5.4790833e-07
5.4533067e-07
5.4280873e-07
5.4034571e-07
5.3794383e-07
5.3560461e-07
5.3332886e-07
5.3111684e-07
5.2896843e-07
5.2688326e-07
5.2486071e-07
5.2289995e-07
5.2099999e-07
5.1915986e-07
5.1737855e-07
5.1565491e-07
5.1398769e-07
5.1237567e-07
5.108176e-07
5.093122e-07
5.0785815e-07
5.0645411e-07
5.0509892e-07
5.0379138e-07
5.0253007e-07
5.0131365e-07
5.0014074e-07
4.9901002e-07
4.9791997e-07
4.9686838e-07
4.9585554e-07
4.9487888e-07
4.9393687e-07
4.930279e-07
4.9215032e-07
4.9130229e-07
4.9048205e-07
4.8968796e-07
4.8891795e-07
4.8816986e-07
4.8744155e-07
4.8673074e-07
4.860356e-07
4.8535415e-07
4.8468396e-07
4.8402236e-07
4.833667e-07
4.8271496e-07
4.8206509e-07
4.8141441e-07
4.8075998e-07
4.8009915e-07
4.7942969e-07
4.7874805e-07
4.7805104e-07
4.7735181e-07
4.7667053e-07
4.7601134e-07
4.7537174e-07
4.7475083e-07
4.741471e-07
4.735583e-07
4.7298266e-07
4.7241934e-07
4.7186739e-07
4.7132544e-07
4.7079202e-07
4.7026584e-07
4.6974648e-07
4.692326e-07
4.6872273e-07
4.6821246e-07
4.6770354e-07
4.6717158e-07
4.6665743e-07
4.6600299e-07
4.6544834e-07
4.6461703e-07
2.0000003e-06
2.0000433e-06
2.0001401e-06
2.0002717e-06
2.0004324e-06
2.0006208e-06
2.0008363e-06
2.0010791e-06
2.0013502e-06
2.0016516e-06
2.001986e-06
2.0023571e-06
2.0027705e-06
2.0032329e-06
2.0037552e-06
2.0043495e-06
2.0050433e-06
2.0058504e-06
2.0068772e-06
2.0080571e-06
2.0099734e-06
2.0118392e-06
2.0176003e-06
2.0171489e-06
2.2325507e-07
1.7993312e-07
2.0289307e-07
2.4063378e-07
2.8537404e-07
3.3439097e-07
3.8533051e-07
4.3563396e-07
4.8290643e-07
5.2526648e-07
5.6158627e-07
5.9152105e-07
6.1534128e-07
6.3369437e-07
6.4738936e-07
6.5725013e-07
6.6402879e-07
6.6837205e-07
6.708142e-07
6.71786e-07
6.7162973e-07
6.7061469e-07
6.6895142e-07
6.6680404e-07
6.6430029e-07
6.6153969e-07
6.5859961e-07
6.555401e-07
6.5240778e-07
6.4923884e-07
6.4606129e-07
6.4289682e-07
6.3976214e-07
6.3666993e-07
6.3362977e-07
6.3064883e-07
6.2773237e-07
6.2488409e-07
6.2210656e-07
6.1940153e-07
6.1676995e-07
6.142121e-07
6.1172786e-07
6.0931678e-07
6.0697814e-07
6.0471101e-07
6.0251421e-07
6.0038663e-07
5.9832711e-07
5.9633429e-07
5.9440675e-07
5.9254307e-07
5.9074179e-07
5.8900145e-07
5.873205e-07
5.856974e-07
5.8413081e-07
5.8261931e-07
5.811613e-07
5.7975519e-07
5.783994e-07
5.7709239e-07
5.7583243e-07
5.7461691e-07
5.7344621e-07
5.7231733e-07
5.712285e-07
5.7017786e-07
5.691635e-07
5.6818328e-07
5.6723517e-07
5.6631727e-07
5.6542718e-07
5.6456241e-07
5.6372047e-07
5.6289873e-07
5.6209506e-07
5.6130719e-07
5.6053229e-07
5.5976729e-07
5.5900912e-07
5.5825544e-07
5.5750389e-07
5.5675136e-07
5.5599447e-07
5.5523015e-07
5.5445581e-07
5.5366735e-07
5.5286109e-07
5.5205223e-07
5.5126413e-07
5.5050158e-07
5.4976169e-07
5.4904344e-07
5.4834506e-07
5.4766397e-07
5.469981e-07
5.463465e-07
5.4570805e-07
5.4508118e-07
5.4446417e-07
5.4385554e-07
5.4325481e-07
5.4266042e-07
5.4207067e-07
5.4148046e-07
5.408918e-07
5.4027651e-07
5.3968181e-07
5.3892487e-07
5.3828331e-07
5.3732175e-07
2.0000004e-06
2.0000444e-06
2.0001439e-06
2.0002794e-06
2.0004449e-06
2.0006389e-06
2.0008608e-06
2.0011108e-06
2.0013899e-06
2.0017001e-06
2.0020441e-06
2.0024258e-06
2.0028507e-06
2.0033258e-06
2.0038622e-06
2.0044722e-06
2.0051838e-06
2.0060111e-06
2.0070625e-06
2.00827e-06
2.0102273e-06
2.0121333e-06
2.0180005e-06
2.0176037e-06
2.5550694e-07
2.0650955e-07
2.3284947e-07
2.762088e-07
3.2766214e-07
3.8407846e-07
4.4274048e-07
5.0068977e-07
5.5515463e-07
6.0395786e-07
6.4579575e-07
6.8027129e-07
7.0769869e-07
7.2882677e-07
7.445899e-07
7.5593849e-07
7.6373947e-07
7.6873776e-07
7.7154855e-07
7.7266763e-07
7.7248889e-07
7.7132216e-07
7.694097e-07
7.6694029e-07
7.640609e-07
7.6088602e-07
7.5750466e-07
7.5398588e-07
7.5038335e-07
7.4673869e-07
7.4308412e-07
7.394446e-07
7.3583937e-07
7.3228299e-07
7.2878651e-07
7.2535816e-07
7.22004e-07
7.187283e-07
7.15534e-07
7.1242311e-07
7.0939674e-07
7.064552e-07
7.0359836e-07
7.0082569e-07
6.9813639e-07
6.9552935e-07
6.9300324e-07
6.9055677e-07
6.881886e-07
6.8589718e-07
6.8368087e-07
6.8153802e-07
6.7946696e-07
6.7746601e-07
6.755334e-07
6.7366732e-07
6.7186624e-07
6.7012855e-07
6.6845237e-07
6.6683589e-07
6.6527729e-07
6.6377479e-07
6.6232639e-07
6.6092907e-07
6.5958331e-07
6.5828563e-07
6.5703399e-07
6.5582624e-07
6.5466019e-07
6.5353336e-07
6.5244344e-07
6.5138822e-07
6.5036496e-07
6.4937076e-07
6.4840276e-07
6.4745795e-07
6.4653388e-07
6.4562793e-07
6.4473684e-07
6.438571e-07
6.4298515e-07
6.4211832e-07
6.412539e-07
6.4038831e-07
6.3951765e-07
6.3863841e-07
6.3774762e-07
6.3684055e-07
6.3591295e-07
6.3498235e-07
6.3407561e-07
6.3319826e-07
6.3234699e-07
6.3152062e-07
6.3071713e-07
6.2993354e-07
6.2916747e-07
6.2841783e-07
6.2768332e-07
6.2696214e-07
6.2625231e-07
6.2555213e-07
6.2486104e-07
6.2417724e-07
6.2349879e-07
6.2281981e-07
6.2214261e-07
6.2143478e-07
6.2075063e-07
6.198799e-07
6.1914183e-07
6.1803562e-07
2.0000005e-06
2.0000457e-06
2.0001484e-06
2.0002883e-06
2.0004594e-06
2.0006599e-06
2.0008894e-06
2.0011478e-06
2.0014363e-06
2.0017567e-06
2.002112e-06
2.002506e-06
2.0029445e-06
2.0034344e-06
2.0039872e-06
2.0046154e-06
2.0053478e-06
2.0061985e-06
2.0072786e-06
2.0085181e-06
2.0105228e-06
2.0124755e-06
2.0184645e-06
2.018134e-06
2.9102389e-07
2.35968e-07
2.660538e-07
3.1565171e-07
3.7457223e-07
4.3923172e-07
5.0650723e-07
5.7299223e-07
6.3549144e-07
6.9149471e-07
7.3950022e-07
7.7905176e-07
8.1051221e-07
8.3474374e-07
8.5282077e-07
8.6583511e-07
8.747819e-07
8.8051576e-07
8.8374215e-07
8.8502947e-07
8.8482922e-07
8.8349651e-07
8.8130898e-07
8.78483e-07
8.75187e-07
8.7155218e-07
8.6768059e-07
8.6365137e-07
8.5952604e-07
8.5535232e-07
8.5116714e-07
8.4699911e-07
8.4287029e-07
8.3879739e-07
8.3479307e-07
8.3086677e-07
8.2702543e-07
8.2327396e-07
8.1961574e-07
8.1605308e-07
8.1258723e-07
8.0921857e-07
8.0594695e-07
8.0277176e-07
7.9969208e-07
7.9670666e-07
7.9381396e-07
7.910125e-07
7.8830076e-07
7.8567695e-07
7.8313919e-07
7.806856e-07
7.7831426e-07
7.7602323e-07
7.7381049e-07
7.7167398e-07
7.6961193e-07
7.6762248e-07
7.657035e-07
7.6385289e-07
7.6206857e-07
7.6034849e-07
7.586904e-07
7.5709075e-07
7.5555017e-07
7.5406464e-07
7.5263181e-07
7.5124922e-07
7.4991435e-07
7.4862437e-07
7.4737661e-07
7.4616856e-07
7.4499705e-07
7.4385878e-07
7.4275047e-07
7.4166864e-07
7.4061051e-07
7.3957307e-07
7.3855261e-07
7.3754506e-07
7.3654639e-07
7.3555353e-07
7.3456336e-07
7.3357181e-07
7.3257439e-07
7.3156711e-07
7.3054655e-07
7.2950729e-07
7.2844446e-07
7.2737817e-07
7.2633921e-07
7.2533391e-07
7.2435849e-07
7.2341163e-07
7.2249099e-07
7.2159316e-07
7.2071542e-07
7.198565e-07
7.1901495e-07
7.1818867e-07
7.1737539e-07
7.1657318e-07
7.1578139e-07
7.1499797e-07
7.1422067e-07
7.1344276e-07
7.1266689e-07
7.1185596e-07
7.1107212e-07
7.1007462e-07
7.0922898e-07
7.0796159e-07
2.0000006e-06
2.0000473e-06
2.0001535e-06
2.0002987e-06
2.0004762e-06
2.0006844e-06
2.0009226e-06
2.0011908e-06
2.0014901e-06
2.0018225e-06
2.0021908e-06
2.0025992e-06
2.0030533e-06
2.0035605e-06
2.0041323e-06
2.0047816e-06
2.005538e-06
2.0064158e-06
2.0075289e-06
2.0088053e-06
2.0108645e-06
2.0128707e-06
2.0189986e-06
2.0187479e-06
3.3018632e-07
2.6869385e-07
3.0294244e-07
3.5948292e-07
4.2672775e-07
5.0059094e-07
5.7749617e-07
6.5353393e-07
7.2503192e-07
7.8910428e-07
8.4402505e-07
8.8927037e-07
9.2525683e-07
9.5297319e-07
9.7365054e-07
9.8853895e-07
9.9877703e-07
1.0053422e-06
1.009041e-06
1.0105232e-06
1.0103048e-06
1.0087917e-06
1.0063011e-06
1.0030804e-06
9.993221e-07
9.9517612e-07
9.9075914e-07
9.8616165e-07
9.8145399e-07
9.7669071e-07
9.7191406e-07
9.6715675e-07
9.6244403e-07
9.5779501e-07
9.5322415e-07
9.4874229e-07
9.4435738e-07
9.4007501e-07
9.3589908e-07
9.3183223e-07
9.278759e-07
9.2403054e-07
9.2029597e-07
9.1667151e-07
9.1315612e-07
9.0974834e-07
9.0644646e-07
9.0324878e-07
9.0015354e-07
8.9715872e-07
8.9426217e-07
8.9146175e-07
8.8875524e-07
8.8614045e-07
8.8361505e-07
8.811767e-07
8.7882338e-07
8.7655296e-07
8.7436299e-07
8.7225109e-07
8.7021486e-07
8.6825197e-07
8.6635985e-07
8.6453439e-07
8.6277641e-07
8.6108122e-07
8.5944618e-07
8.5786846e-07
8.5634518e-07
8.5487311e-07
8.5344918e-07
8.5207054e-07
8.5073356e-07
8.4943446e-07
8.4816949e-07
8.469347e-07
8.4572689e-07
8.4454262e-07
8.4337766e-07
8.4222739e-07
8.4108716e-07
8.3995351e-07
8.3882287e-07
8.3769058e-07
8.3655154e-07
8.3540117e-07
8.3423559e-07
8.3304861e-07
8.3183465e-07
8.3061671e-07
8.2942995e-07
8.2828163e-07
8.2716746e-07
8.2608591e-07
8.2503434e-07
8.2400882e-07
8.2300627e-07
8.2202524e-07
8.2106404e-07
8.201203e-07
8.1919141e-07
8.1827517e-07
8.1737084e-07
8.1647608e-07
8.1558831e-07
8.1469985e-07
8.1381371e-07
8.1288756e-07
8.1199232e-07
8.1085319e-07
8.0988734e-07
8.084398e-07
2.0000007e-06
2.000049e-06
2.0001595e-06
2.0003106e-06
2.0004956e-06
2.0007126e-06
2.0009609e-06
2.0012405e-06
2.0015523e-06
2.0018985e-06
2.0022819e-06
2.0027068e-06
2.003179e-06
2.003706e-06
2.0042997e-06
2.0049733e-06
2.0057573e-06
2.0066662e-06
2.0078171e-06
2.0091357e-06
2.011257e-06
2.0133245e-06
2.0196089e-06
2.0194548e-06
3.7338715e-07
3.0510565e-07
3.4399067e-07
4.082695e-07
4.8480811e-07
5.6896312e-07
6.5665154e-07
7.4339927e-07
8.2499638e-07
8.9813228e-07
9.6082661e-07
1.0124773e-06
1.0535597e-06
1.0852036e-06
1.1088153e-06
1.125822e-06
1.1375232e-06
1.1450341e-06
1.1492746e-06
1.1509859e-06
1.1507564e-06
1.1490492e-06
1.146226e-06
1.142569e-06
1.1382979e-06
1.1335838e-06
1.1285598e-06
1.1233292e-06
1.1179722e-06
1.1125511e-06
1.1071143e-06
1.101699e-06
1.0963341e-06
1.0910414e-06
1.0858375e-06
1.0807348e-06
1.0757422e-06
1.0708664e-06
1.0661116e-06
1.061481e-06
1.0569762e-06
1.0525978e-06
1.0483455e-06
1.0442186e-06
1.0402158e-06
1.0363357e-06
1.0325761e-06
1.0289353e-06
1.0254111e-06
1.0220013e-06
1.0187034e-06
1.015515e-06
1.0124336e-06
1.0094567e-06
1.0065816e-06
1.0038056e-06
1.0011265e-06
9.9854183e-07
9.9604876e-07
9.936446e-07
9.9132662e-07
9.8909215e-07
9.8693827e-07
9.8486025e-07
9.8285909e-07
9.8092942e-07
9.790682e-07
9.7727221e-07
9.7553819e-07
9.7386241e-07
9.7224143e-07
9.7067194e-07
9.6914983e-07
9.6767079e-07
9.6623055e-07
9.6482458e-07
9.6344926e-07
9.6210067e-07
9.6077398e-07
9.5946393e-07
9.5816524e-07
9.5687397e-07
9.5558604e-07
9.5429616e-07
9.5299851e-07
9.5168791e-07
9.5035991e-07
9.4900746e-07
9.4762422e-07
9.4623638e-07
9.4488406e-07
9.4357554e-07
9.4230592e-07
9.410735e-07
9.3987525e-07
9.3870671e-07
9.3756434e-07
9.3644652e-07
9.3535131e-07
9.3427599e-07
9.332176e-07
9.3217363e-07
9.3114325e-07
9.3012377e-07
9.2911227e-07
9.2809998e-07
9.2709034e-07
9.2603515e-07
9.2501512e-07
9.2371743e-07
9.2261692e-07
9.209676e-07
2.0000008e-06
2.000051e-06
2.0001663e-06
2.0003243e-06
2.0005179e-06
2.0007451e-06
2.0010049e-06
2.0012975e-06
2.0016238e-06
2.0019858e-06
2.0023866e-06
2.0028304e-06
2.0033233e-06
2.003873e-06
2.0044918e-06
2.0051933e-06
2.0060088e-06
2.0069532e-06
2.0081471e-06
2.0095139e-06
2.0117055e-06
2.0138422e-06
2.0203021e-06
2.020264e-06
4.2102629e-07
3.4565641e-07
3.8971491e-07
4.6262796e-07
5.4955208e-07
6.4522603e-07
7.4500122e-07
8.437703e-07
9.367175e-07
1.0200517e-06
1.0915029e-06
1.1503777e-06
1.1972147e-06
1.2333004e-06
1.2602364e-06
1.2796486e-06
1.2930167e-06
1.3016107e-06
1.3064781e-06
1.3084628e-06
1.3082349e-06
1.3063219e-06
1.3031358e-06
1.2989983e-06
1.2941595e-06
1.2888145e-06
1.2831151e-06
1.277179e-06
1.2710978e-06
1.2649426e-06
1.2587684e-06
1.2526178e-06