/*--------------------------------*- C++ -*----------------------------------*\
| =========                 |                                                 |
| \\      /  F ield         | OpenFOAM: The Open Source CFD Toolbox           |
|  \\    /   O peration     | Version:  2206                                  |
|   \\  /    A nd           | Website:  www.openfoam.com                      |
|    \\/     M anipulation  |                                                 |
\*---------------------------------------------------------------------------*/
FoamFile
{
    version     2.0;
    format      ascii;
    arch        "LSB;label=32;scalar=64";
    class       volScalarField;
    location    "361";
    object      p;
}
// * * * * * * * * * * * * * * * * * * * * * * * * * * * * * * * * * * * * * //

dimensions      [0 2 -2 0 0 0 0];

internalField   nonuniform List<scalar> 
13056
(
0.011681583
0.011783469
0.011999876
0.012276367
0.012611368
0.013005237
0.013456229
0.01396362
0.014528783
0.015154979
0.015847233
0.016612673
0.01746115
0.018406535
0.019467774
0.020673792
0.02206188
0.023705745
0.025671444
0.028234095
0.031360988
0.036702235
0.041950035
0.081365409
0.051345433
0.0019033746
0.0005988249
0.0014686305
0.0020239011
0.0024507028
0.0026996099
0.0028761688
0.0030037585
0.003088028
0.0031428918
0.0031778626
0.0031986753
0.0032096039
0.0032132815
0.0032118674
0.0032072121
0.0032004497
0.0031924573
0.003183962
0.0031754864
0.0031673593
0.0031598375
0.0031530965
0.0031472747
0.0031424501
0.0031386168
0.0031357788
0.0031339272
0.0031330167
0.0031330376
0.0031339397
0.0031356408
0.003138089
0.0031412316
0.0031450133
0.0031493814
0.0031542818
0.0031596786
0.003165518
0.0031717244
0.0031782571
0.0031850711
0.0031921199
0.0031993603
0.0032067399
0.0032142277
0.0032217927
0.0032293625
0.0032368721
0.0032442784
0.0032515286
0.0032585655
0.003265339
0.0032717768
0.0032778443
0.0032834764
0.0032885391
0.0032929585
0.0032966591
0.003299546
0.0033015414
0.0033025465
0.003302398
0.0033010822
0.0032984383
0.0032942294
0.0032883812
0.0032807495
0.0032712093
0.0032596509
0.0032458035
0.0032293961
0.0032102931
0.0031882613
0.0031632048
0.0031349555
0.0031030764
0.0030673376
0.003027442
0.0029832852
0.0029346248
0.0028808974
0.0028217805
0.0027570174
0.002686377
0.002609233
0.0025247973
0.0024331615
0.0023353562
0.0022338408
0.0021309476
0.0020277383
0.0019242388
0.0018202231
0.0017159472
0.0016118992
0.0015082867
0.0014048995
0.0013020252
0.0011998801
0.0010990972
0.001000025
0.00090273904
0.0008083039
0.00071707153
0.00063299921
0.0005520043
0.00049999109
0.00042224615
0.00058767236
-0.00040761534
0.011681583
0.011783469
0.011999877
0.012276367
0.012611368
0.013005237
0.013456229
0.01396362
0.014528784
0.01515498
0.015847233
0.016612674
0.017461151
0.018406536
0.019467776
0.020673795
0.022061885
0.023705752
0.025671453
0.028234109
0.031361007
0.036702276
0.041950092
0.081360559
0.051356974
0.0019107013
0.00060069953
0.0014694773
0.0020244191
0.0024510668
0.0026998851
0.0028763872
0.0030039369
0.0030881771
0.0031430187
0.0031779721
0.0031987708
0.003209688
0.003213356
0.0032119339
0.0032072718
0.0032005036
0.003192506
0.0031840063
0.0031755268
0.0031673962
0.0031598713
0.0031531275
0.0031473033
0.0031424765
0.0031386411
0.0031358013
0.0031339481
0.0031330373
0.0031330556
0.0031339564
0.0031356563
0.0031381035
0.0031412451
0.0031450259
0.0031493932
0.0031542928
0.0031596889
0.0031655277
0.0031717334
0.0031782655
0.003185079
0.0031921272
0.0031993671
0.0032067464
0.0032142338
0.0032217983
0.0032293678
0.003236877
0.003244283
0.0032515329
0.0032585695
0.0032653427
0.0032717803
0.0032778476
0.0032834795
0.003288542
0.0032929611
0.0032966616
0.0032995482
0.0033015435
0.0033025485
0.0033023998
0.0033010839
0.0032984398
0.0032942309
0.0032883825
0.0032807507
0.0032712104
0.0032596519
0.0032458045
0.003229397
0.003210294
0.0031882621
0.0031632055
0.0031349562
0.0031030771
0.0030673382
0.0030274425
0.0029832857
0.0029346253
0.0028808979
0.002821781
0.0027570178
0.0026863774
0.0026092333
0.0025247976
0.0024331618
0.0023353565
0.0022338411
0.0021309479
0.0020277386
0.0019242391
0.0018202234
0.0017159475
0.0016118994
0.001508287
0.0014048998
0.0013020255
0.0011998804
0.0010990975
0.0010000252
0.00090273927
0.00080830413
0.00071707176
0.00063299945
0.00055200454
0.00049999136
0.00042224645
0.00058767267
-0.00040761515
0.011681583
0.011783469
0.011999877
0.012276367
0.012611368
0.013005238
0.01345623
0.01396362
0.014528784
0.01515498
0.015847234
0.016612676
0.017461152
0.018406538
0.019467779
0.020673798
0.02206189
0.023705759
0.025671462
0.028234126
0.031361029
0.036702322
0.041950139
0.08135564
0.051372889
0.0019177862
0.00060292279
0.00147049
0.0020250386
0.002451502
0.0027002142
0.0028766484
0.0030041503
0.0030883554
0.0031431704
0.0031781031
0.003198885
0.0032097885
0.0032134452
0.0032120135
0.0032073431
0.0032005679
0.0031925642
0.0031840592
0.003175575
0.0031674403
0.0031599117
0.0031531646
0.0031473375
0.003142508
0.0031386702
0.0031358283
0.0031339731
0.0031330615
0.0031330772
0.0031339764
0.003135675
0.0031381209
0.0031412613
0.003145041
0.0031494073
0.0031543059
0.0031597012
0.0031655392
0.0031717442
0.0031782756
0.0031850884
0.003192136
0.0031993754
0.0032067541
0.003214241
0.0032218051
0.0032293741
0.0032368829
0.0032442885
0.003251538
0.0032585743
0.0032653472
0.0032717845
0.0032778515
0.0032834831
0.0032885453
0.0032929642
0.0032966645
0.0032995509
0.003301546
0.0033025508
0.003302402
0.0033010859
0.0032984417
0.0032942326
0.0032883841
0.0032807522
0.0032712118
0.0032596532
0.0032458057
0.0032293981
0.003210295
0.003188263
0.0031632064
0.003134957
0.0031030778
0.0030673389
0.0030274432
0.0029832863
0.0029346259
0.0028808984
0.0028217815
0.0027570183
0.0026863779
0.0026092338
0.002524798
0.0024331623
0.0023353569
0.0022338415
0.0021309483
0.002027739
0.0019242394
0.0018202237
0.0017159478
0.0016118997
0.0015082873
0.0014049001
0.0013020257
0.0011998807
0.0010990978
0.0010000255
0.00090273955
0.00080830441
0.00071707204
0.00063299973
0.00055200482
0.0004999917
0.00042224681
0.00058767304
-0.00040761492
0.011681583
0.011783469
0.011999877
0.012276367
0.012611369
0.013005238
0.01345623
0.013963621
0.014528785
0.015154981
0.015847235
0.016612677
0.017461154
0.01840654
0.019467782
0.020673802
0.022061894
0.023705766
0.025671472
0.028234142
0.03136105
0.036702366
0.041950185
0.081350818
0.051390628
0.0019230467
0.00060501445
0.001471482
0.0020256455
0.0024519284
0.0027005367
0.0028769043
0.0030043593
0.0030885301
0.0031433191
0.0031782314
0.0031989969
0.003209887
0.0032135325
0.0032120914
0.0032074131
0.0032006309
0.0031926213
0.003184111
0.0031756223
0.0031674835
0.0031599513
0.003153201
0.0031473709
0.0031425389
0.0031386988
0.0031358547
0.0031339975
0.0031330845
0.0031330983
0.003133996
0.0031356932
0.0031381379
0.0031412772
0.0031450558
0.0031494211
0.0031543188
0.0031597132
0.0031655504
0.0031717547
0.0031782854
0.0031850976
0.0031921447
0.0031993834
0.0032067616
0.003214248
0.0032218117
0.0032293802
0.0032368886
0.0032442939
0.003251543
0.003258579
0.0032653516
0.0032717886
0.0032778553
0.0032834866
0.0032885486
0.0032929673
0.0032966673
0.0032995536
0.0033015485
0.0033025531
0.0033024041
0.0033010878
0.0032984435
0.0032942343
0.0032883857
0.0032807536
0.0032712131
0.0032596544
0.0032458068
0.0032293992
0.003210296
0.003188264
0.0031632073
0.0031349578
0.0031030786
0.0030673396
0.0030274438
0.0029832869
0.0029346265
0.002880899
0.002821782
0.0027570188
0.0026863784
0.0026092342
0.0025247984
0.0024331626
0.0023353573
0.0022338418
0.0021309486
0.0020277393
0.0019242398
0.001820224
0.0017159481
0.0016119
0.0015082876
0.0014049003
0.001302026
0.0011998809
0.001099098
0.0010000258
0.00090273982
0.00080830468
0.00071707231
0.00063300001
0.0005520051
0.00049999202
0.00042224715
0.00058767339
-0.0004076147
0.011681583
0.011783469
0.011999877
0.012276367
0.012611369
0.013005238
0.01345623
0.013963621
0.014528785
0.015154982
0.015847236
0.016612678
0.017461156
0.018406543
0.019467785
0.020673806
0.022061899
0.023705773
0.025671482
0.028234158
0.031361072
0.036702412
0.041950239
0.081345651
0.051409453
0.0019289319
0.00060712988
0.0014724975
0.0020262669
0.0024523651
0.0027008669
0.0028771664
0.0030045734
0.003088709
0.0031434714
0.0031783627
0.0031991115
0.0032099879
0.0032136219
0.0032121712
0.0032074847
0.0032006955
0.0031926797
0.0031841641
0.0031756706
0.0031675277
0.0031599918
0.0031532382
0.0031474052
0.0031425705
0.003138728
0.0031358817
0.0031340226
0.0031331077
0.0031331198
0.0031340161
0.0031357119
0.0031381553
0.0031412934
0.003145071
0.0031494353
0.0031543321
0.0031597256
0.003165562
0.0031717655
0.0031782955
0.003185107
0.0031921535
0.0031993917
0.0032067693
0.0032142552
0.0032218184
0.0032293865
0.0032368945
0.0032442994
0.0032515482
0.0032585838
0.0032653561
0.0032717927
0.0032778592
0.0032834903
0.003288552
0.0032929704
0.0032966703
0.0032995563
0.003301551
0.0033025555
0.0033024063
0.0033010899
0.0032984454
0.003294236
0.0032883873
0.0032807551
0.0032712145
0.0032596557
0.003245808
0.0032294003
0.003210297
0.0031882649
0.0031632081
0.0031349586
0.0031030793
0.0030673403
0.0030274445
0.0029832876
0.0029346271
0.0028808995
0.0028217825
0.0027570193
0.0026863788
0.0026092347
0.0025247989
0.0024331631
0.0023353576
0.0022338422
0.002130949
0.0020277396
0.0019242401
0.0018202244
0.0017159484
0.0016119003
0.0015082879
0.0014049006
0.0013020263
0.0011998812
0.0010990983
0.0010000261
0.00090274009
0.00080830495
0.00071707258
0.00063300029
0.00055200539
0.00049999236
0.0004222475
0.00058767376
-0.00040761449
0.011681583
0.01178347
0.011999877
0.012276368
0.012611369
0.013005238
0.013456231
0.013963622
0.014528786
0.015154983
0.015847237
0.016612679
0.017461157
0.018406545
0.019467788
0.02067381
0.022061905
0.023705781
0.025671492
0.028234177
0.031361097
0.036702461
0.041950302
0.081339917
0.051429069
0.0019362474
0.00060937948
0.0014735761
0.002026927
0.0024528289
0.0027012176
0.0028774447
0.0030048008
0.003088899
0.0031436331
0.0031785023
0.0031992332
0.003210095
0.0032137169
0.003212256
0.0032075607
0.003200764
0.0031927418
0.0031842205
0.003175722
0.0031675747
0.0031600349
0.0031532778
0.0031474416
0.0031426041
0.003138759
0.0031359104
0.0031340492
0.0031331323
0.0031331428
0.0031340375
0.0031357318
0.0031381738
0.0031413107
0.0031450871
0.0031494503
0.0031543461
0.0031597387
0.0031655742
0.0031717769
0.0031783062
0.003185117
0.0031921629
0.0031994005
0.0032067775
0.0032142629
0.0032218256
0.0032293932
0.0032369008
0.0032443052
0.0032515537
0.0032585889
0.0032653608
0.0032717972
0.0032778633
0.0032834941
0.0032885556
0.0032929738
0.0032966734
0.0032995592
0.0033015537
0.0033025579
0.0033024086
0.003301092
0.0032984474
0.0032942379
0.003288389
0.0032807567
0.003271216
0.0032596571
0.0032458092
0.0032294014
0.0032102981
0.0031882659
0.0031632091
0.0031349595
0.0031030801
0.003067341
0.0030274452
0.0029832882
0.0029346277
0.0028809001
0.0028217831
0.0027570198
0.0026863793
0.0026092351
0.0025247993
0.0024331635
0.0023353581
0.0022338426
0.0021309494
0.00202774
0.0019242405
0.0018202247
0.0017159488
0.0016119007
0.0015082882
0.001404901
0.0013020266
0.0011998815
0.0010990986
0.0010000264
0.00090274039
0.00080830524
0.00071707287
0.0006330006
0.00055200569
0.00049999271
0.00042224786
0.00058767415
-0.00040761425
0.011681583
0.01178347
0.011999877
0.012276368
0.012611369
0.013005239
0.013456231
0.013963622
0.014528786
0.015154984
0.015847238
0.016612681
0.017461159
0.018406547
0.019467791
0.020673814
0.022061911
0.02370579
0.025671505
0.028234197
0.031361124
0.036702515
0.041950376
0.081333498
0.051449716
0.0019443094
0.00061180354
0.0014747369
0.0020276376
0.0024533282
0.0027015952
0.0028777443
0.0030050455
0.0030891036
0.0031438072
0.0031786525
0.0031993642
0.0032102103
0.0032138192
0.0032123472
0.0032076426
0.0032008378
0.0031928086
0.0031842812
0.0031757774
0.0031676253
0.0031600812
0.0031533203
0.0031474808
0.0031426402
0.0031387924
0.0031359413
0.0031340778
0.0031331589
0.0031331675
0.0031340604
0.0031357531
0.0031381937
0.0031413292
0.0031451044
0.0031494665
0.0031543612
0.0031597528
0.0031655874
0.0031717893
0.0031783178
0.0031851278
0.003192173
0.0031994099
0.0032067864
0.0032142712
0.0032218333
0.0032294005
0.0032369076
0.0032443115
0.0032515595
0.0032585944
0.003265366
0.003271802
0.0032778678
0.0032834983
0.0032885595
0.0032929774
0.0032966767
0.0032995623
0.0033015566
0.0033025606
0.0033024111
0.0033010943
0.0032984495
0.0032942398
0.0032883908
0.0032807584
0.0032712175
0.0032596585
0.0032458106
0.0032294027
0.0032102992
0.003188267
0.0031632101
0.0031349604
0.003103081
0.0030673419
0.003027446
0.002983289
0.0029346283
0.0028809007
0.0028217837
0.0027570204
0.0026863799
0.0026092356
0.0025247998
0.0024331639
0.0023353585
0.002233843
0.0021309498
0.0020277404
0.0019242408
0.0018202251
0.0017159491
0.001611901
0.0015082885
0.0014049013
0.001302027
0.0011998819
0.0010990989
0.0010000267
0.0009027407
0.00080830556
0.00071707319
0.00063300092
0.00055200601
0.0004999931
0.00042224826
0.00058767457
-0.000407614
0.011681583
0.01178347
0.011999877
0.012276368
0.012611369
0.013005239
0.013456232
0.013963623
0.014528787
0.015154985
0.015847239
0.016612683
0.017461162
0.01840655
0.019467795
0.02067382
0.022061918
0.0237058
0.025671518
0.02823422
0.031361155
0.036702577
0.041950461
0.081326255
0.051471668
0.0019529637
0.00061443177
0.0014759956
0.0020284082
0.0024538696
0.0027020046
0.0028780693
0.0030053109
0.0030893254
0.0031439959
0.0031788153
0.0031995063
0.0032103353
0.00321393
0.0032124462
0.0032077313
0.0032009179
0.003192881
0.003184347
0.0031758373
0.0031676801
0.0031601314
0.0031533665
0.0031475233
0.0031426794
0.0031388286
0.0031359748
0.0031341089
0.0031331877
0.0031331942
0.0031340853
0.0031357763
0.0031382153
0.0031413493
0.0031451232
0.003149484
0.0031543776
0.0031597681
0.0031656017
0.0031718026
0.0031783303
0.0031851395
0.0031921839
0.0031994201
0.0032067959
0.0032142801
0.0032218417
0.0032294083
0.0032369149
0.0032443184
0.0032515659
0.0032586003
0.0032653715
0.0032718071
0.0032778726
0.0032835028
0.0032885637
0.0032929813
0.0032966803
0.0032995657
0.0033015597
0.0033025635
0.0033024137
0.0033010968
0.0032984518
0.003294242
0.0032883928
0.0032807602
0.0032712192
0.0032596601
0.003245812
0.003229404
0.0032103005
0.0031882682
0.0031632112
0.0031349614
0.0031030819
0.0030673427
0.0030274468
0.0029832897
0.0029346291
0.0028809014
0.0028217843
0.002757021
0.0026863805
0.0026092362
0.0025248003
0.0024331644
0.002335359
0.0022338435
0.0021309502
0.0020277408
0.0019242413
0.0018202255
0.0017159495
0.0016119014
0.0015082889
0.0014049017
0.0013020273
0.0011998822
0.0010990993
0.001000027
0.00090274104
0.0008083059
0.00071707353
0.00063300128
0.00055200637
0.00049999351
0.00042224869
0.00058767503
-0.00040761373
0.011681583
0.01178347
0.011999878
0.012276368
0.01261137
0.013005239
0.013456232
0.013963623
0.014528788
0.015154986
0.015847241
0.016612685
0.017461164
0.018406554
0.019467799
0.020673826
0.022061927
0.023705812
0.025671534
0.028234247
0.03136119
0.036702648
0.04195056
0.081318009
0.051495158
0.0019623492
0.00061730093
0.0014773701
0.00202925
0.0024544611
0.0027024519
0.0028784241
0.0030056008
0.0030895676
0.0031442021
0.0031789932
0.0031996614
0.0032104718
0.0032140511
0.0032125542
0.0032078283
0.0032010052
0.0031929601
0.0031844189
0.0031759028
0.00316774
0.0031601863
0.0031534169
0.0031475697
0.0031427222
0.0031388681
0.0031360114
0.0031341428
0.0031332192
0.0031332235
0.0031341125
0.0031358016
0.0031382389
0.0031413713
0.0031451437
0.0031495031
0.0031543954
0.0031597848
0.0031656173
0.0031718172
0.0031783439
0.0031851523
0.0031921958
0.0031994313
0.0032068064
0.0032142899
0.0032218508
0.0032294168
0.0032369229
0.0032443258
0.0032515729
0.0032586068
0.0032653776
0.0032718128
0.0032778779
0.0032835077
0.0032885682
0.0032929855
0.0032966843
0.0032995693
0.0033015631
0.0033025667
0.0033024167
0.0033010995
0.0032984544
0.0032942443
0.003288395
0.0032807622
0.0032712211
0.0032596618
0.0032458136
0.0032294055
0.0032103019
0.0031882694
0.0031632123
0.0031349626
0.003103083
0.0030673437
0.0030274477
0.0029832906
0.0029346299
0.0028809022
0.002821785
0.0027570217
0.0026863811
0.0026092368
0.0025248009
0.002433165
0.0023353595
0.002233844
0.0021309507
0.0020277413
0.0019242417
0.0018202259
0.00171595
0.0016119018
0.0015082893
0.0014049021
0.0013020277
0.0011998826
0.0010990997
0.0010000274
0.00090274142
0.00080830627
0.0007170739
0.00063300166
0.00055200675
0.00049999396
0.00042224915
0.00058767553
-0.00040761343
0.011681583
0.01178347
0.011999878
0.012276369
0.01261137
0.01300524
0.013456233
0.013963624
0.014528789
0.015154987
0.015847243
0.016612687
0.017461167
0.018406558
0.019467805
0.020673833
0.022061936
0.023705825
0.025671552
0.028234277
0.031361231
0.03670273
0.041950676
0.081308542
0.051520396
0.0019726308
0.00062045359
0.0014788809
0.0020301754
0.0024551113
0.0027029435
0.0028788143
0.0030059195
0.0030898339
0.0031444287
0.0031791888
0.003199832
0.003210622
0.0032141843
0.003212673
0.0032079349
0.0032011013
0.0031930471
0.0031844979
0.0031759749
0.0031678058
0.0031602466
0.0031534723
0.0031476207
0.0031427692
0.0031389116
0.0031360516
0.0031341801
0.0031332537
0.0031332556
0.0031341424
0.0031358294
0.0031382648
0.0031413955
0.0031451662
0.0031495242
0.0031544151
0.0031598032
0.0031656345
0.0031718333
0.0031783589
0.0031851663
0.003192209
0.0031994436
0.0032068179
0.0032143006
0.0032218609
0.0032294262
0.0032369316
0.003244334
0.0032515805
0.003258614
0.0032653843
0.003271819
0.0032778837
0.0032835131
0.0032885733
0.0032929902
0.0032966886
0.0032995734
0.0033015669
0.0033025702
0.0033024199
0.0033011025
0.0032984571
0.0032942469
0.0032883973
0.0032807644
0.0032712232
0.0032596637
0.0032458154
0.0032294071
0.0032103034
0.0031882708
0.0031632137
0.0031349638
0.0031030841
0.0030673448
0.0030274487
0.0029832915
0.0029346308
0.002880903
0.0028217858
0.0027570224
0.0026863818
0.0026092375
0.0025248015
0.0024331656
0.0023353601
0.0022338445
0.0021309512
0.0020277418
0.0019242422
0.0018202264
0.0017159504
0.0016119023
0.0015082898
0.0014049025
0.0013020282
0.001199883
0.0010991001
0.0010000278
0.00090274183
0.00080830668
0.00071707431
0.00063300209
0.00055200718
0.00049999446
0.00042224967
0.00058767607
-0.0004076131
0.011681583
0.01178347
0.011999878
0.012276369
0.012611371
0.01300524
0.013456234
0.013963625
0.01452879
0.015154989
0.015847245
0.016612689
0.017461171
0.018406562
0.019467811
0.020673841
0.022061947
0.023705841
0.025671574
0.028234312
0.031361278
0.036702825
0.04195081
0.081297596
0.051547584
0.0019839621
0.00062393662
0.0014805505
0.0020311983
0.0024558301
0.0027034871
0.0028792455
0.0030062718
0.0030901283
0.0031446793
0.0031794049
0.0032000205
0.0032107879
0.0032143314
0.0032128043
0.0032080526
0.0032012075
0.0031931432
0.0031845852
0.0031760544
0.0031678785
0.0031603133
0.0031535336
0.0031476771
0.0031428212
0.0031389596
0.0031360961
0.0031342213
0.003133292
0.0031332911
0.0031341754
0.0031358602
0.0031382934
0.0031414222
0.0031451911
0.0031495474
0.0031544368
0.0031598235
0.0031656535
0.003171851
0.0031783755
0.0031851819
0.0031922235
0.0031994572
0.0032068306
0.0032143125
0.003221872
0.0032294366
0.0032369413
0.0032443431
0.003251589
0.0032586219
0.0032653916
0.0032718259
0.0032778901
0.0032835191
0.0032885788
0.0032929954
0.0032966935
0.0032995779
0.003301571
0.003302574
0.0033024235
0.0033011058
0.0032984602
0.0032942497
0.0032884
0.0032807669
0.0032712254
0.0032596658
0.0032458173
0.0032294089
0.0032103051
0.0031882724
0.0031632151
0.0031349651
0.0031030854
0.0030673459
0.0030274498
0.0029832925
0.0029346317
0.0028809039
0.0028217867
0.0027570232
0.0026863826
0.0026092382
0.0025248022
0.0024331663
0.0023353607
0.0022338451
0.0021309518
0.0020277424
0.0019242428
0.001820227
0.001715951
0.0016119028
0.0015082903
0.001404903
0.0013020286
0.0011998835
0.0010991006
0.0010000283
0.00090274228
0.00080830714
0.00071707477
0.00063300255
0.00055200764
0.00049999501
0.00042225024
0.00058767668
-0.00040761274
0.011681583
0.01178347
0.011999878
0.012276369
0.012611371
0.013005241
0.013456234
0.013963626
0.014528792
0.015154991
0.015847247
0.016612693
0.017461175
0.018406568
0.019467818
0.020673851
0.02206196
0.023705859
0.025671598
0.028234353
0.031361332
0.036702934
0.041950966
0.081284861
0.051576907
0.0019965051
0.00062780152
0.0014824038
0.0020323341
0.0024566282
0.0027040905
0.0028797244
0.0030066629
0.0030904552
0.0031449574
0.0031796449
0.0032002298
0.0032109721
0.0032144947
0.00321295
0.0032081834
0.0032013254
0.0031932499
0.0031846821
0.0031761428
0.0031679593
0.0031603873
0.0031536016
0.0031477397
0.003142879
0.003139013
0.0031361455
0.003134267
0.0031333344
0.0031333305
0.0031342121
0.0031358943
0.0031383252
0.0031414518
0.0031452188
0.0031495732
0.0031544609
0.003159846
0.0031656745
0.0031718707
0.0031783939
0.0031851991
0.0031922396
0.0031994722
0.0032068447
0.0032143257
0.0032218843
0.0032294481
0.0032369521
0.0032443531
0.0032515984
0.0032586306
0.0032653998
0.0032718335
0.0032778972
0.0032835257
0.003288585
0.0032930011
0.0032966988
0.0032995828
0.0033015756
0.0033025783
0.0033024275
0.0033011095
0.0032984636
0.0032942529
0.0032884029
0.0032807696
0.0032712279
0.0032596681
0.0032458195
0.0032294109
0.0032103069
0.0031882741
0.0031632167
0.0031349666
0.0031030867
0.0030673472
0.003027451
0.0029832937
0.0029346328
0.0028809049
0.0028217876
0.0027570241
0.0026863834
0.002609239
0.002524803
0.002433167
0.0023353614
0.0022338458
0.0021309525
0.002027743
0.0019242434
0.0018202276
0.0017159515
0.0016119034
0.0015082908
0.0014049035
0.0013020292
0.001199884
0.0010991011
0.0010000288
0.00090274279
0.00080830764
0.00071707527
0.00063300307
0.00055200816
0.00049999562
0.00042225087
0.00058767735
-0.00040761234
0.011681583
0.011783471
0.011999879
0.01227637
0.012611372
0.013005242
0.013456235
0.013963628
0.014528794
0.015154993
0.01584725
0.016612696
0.017461179
0.018406574
0.019467826
0.020673861
0.022061975
0.02370588
0.025671626
0.0282344
0.031361395
0.03670306
0.041951146
0.081269966
0.051608525
0.0020104412
0.00063210534
0.0014844683
0.0020335998
0.0024575175
0.0027047629
0.0028802579
0.0030070987
0.0030908194
0.0031452673
0.0031799123
0.003200463
0.0032111773
0.0032146767
0.0032131124
0.0032083291
0.0032014567
0.0031933688
0.0031847902
0.0031762412
0.0031680493
0.0031604698
0.0031536773
0.0031478094
0.0031429433
0.0031390724
0.0031362004
0.003134318
0.0031333817
0.0031333744
0.0031342529
0.0031359323
0.0031383606
0.0031414849
0.0031452496
0.003149602
0.0031544878
0.0031598711
0.003165698
0.0031718927
0.0031784144
0.0031852183
0.0031922575
0.003199489
0.0032068604
0.0032143404
0.003221898
0.003229461
0.0032369641
0.0032443644
0.0032516089
0.0032586404
0.0032654089
0.003271842
0.0032779051
0.0032835331
0.0032885919
0.0032930075
0.0032967047
0.0032995883
0.0033015807
0.0033025831
0.0033024319
0.0033011136
0.0032984674
0.0032942564
0.0032884062
0.0032807726
0.0032712307
0.0032596707
0.0032458219
0.0032294132
0.003210309
0.003188276
0.0031632185
0.0031349683
0.0031030883
0.0030673487
0.0030274524
0.002983295
0.002934634
0.002880906
0.0028217887
0.0027570252
0.0026863844
0.0026092399
0.0025248039
0.0024331678
0.0023353622
0.0022338466
0.0021309532
0.0020277437
0.0019242441
0.0018202282
0.0017159522
0.001611904
0.0015082914
0.0014049041
0.0013020298
0.0011998846
0.0010991016
0.0010000294
0.00090274335
0.0008083082
0.00071707583
0.00063300365
0.00055200874
0.0004999963
0.00042225157
0.00058767809
-0.00040761189
0.011681583
0.011783471
0.011999879
0.01227637
0.012611372
0.013005243
0.013456237
0.013963629
0.014528795
0.015154995
0.015847253
0.0166127
0.017461185
0.018406581
0.019467835
0.020673874
0.022061992
0.023705904
0.025671659
0.028234454
0.031361467
0.036703205
0.041951355
0.081252462
0.051642561
0.0020259759
0.00063691156
0.0014867746
0.0020350142
0.0024585114
0.0027055144
0.0028808541
0.0030075857
0.0030912263
0.0031456136
0.0031802111
0.0032007236
0.0032114067
0.0032148801
0.0032132939
0.0032084919
0.0032016035
0.0031935016
0.0031849108
0.0031763512
0.0031681498
0.0031605619
0.003153762
0.0031478873
0.0031430151
0.0031391388
0.0031362619
0.0031343749
0.0031334345
0.0031334235
0.0031342985
0.0031359748
0.0031384002
0.0031415217
0.003145284
0.0031496341
0.0031545178
0.0031598991
0.0031657242
0.0031719172
0.0031784374
0.0031852397
0.0031922776
0.0031995078
0.0032068779
0.0032143568
0.0032219134
0.0032294753
0.0032369775
0.0032443769
0.0032516206
0.0032586513
0.0032654191
0.0032718515
0.003277914
0.0032835413
0.0032885995
0.0032930146
0.0032967114
0.0032995945
0.0033015865
0.0033025884
0.0033024368
0.0033011182
0.0032984716
0.0032942603
0.0032884098
0.003280776
0.0032712338
0.0032596736
0.0032458246
0.0032294156
0.0032103113
0.0031882782
0.0031632205
0.0031349701
0.00310309
0.0030673503
0.0030274539
0.0029832964
0.0029346353
0.0028809073
0.0028217899
0.0027570263
0.0026863854
0.0026092409
0.0025248048
0.0024331688
0.0023353631
0.0022338474
0.002130954
0.0020277445
0.0019242448
0.001820229
0.0017159529
0.0016119047
0.0015082921
0.0014049048
0.0013020304
0.0011998853
0.0010991023
0.00100003
0.00090274398
0.00080830883
0.00071707646
0.0006330043
0.00055200939
0.00049999705
0.00042225235
0.00058767893
-0.00040761139
0.011681583
0.011783471
0.01199988
0.012276371
0.012611373
0.013005244
0.013456238
0.013963631
0.014528798
0.015154998
0.015847257
0.016612705
0.017461191
0.018406589
0.019467846
0.020673889
0.022062011
0.023705932
0.025671696
0.028234515
0.031361549
0.036703369
0.041951597
0.081231813
0.051679084
0.0020433428
0.00064229104
0.0014893571
0.0020365985
0.0024596247
0.0027063562
0.0028815219
0.0030081312
0.0030916821
0.0031460015
0.0031805457
0.0032010155
0.0032116635
0.0032151079
0.0032134971
0.0032086743
0.0032017678
0.0031936504
0.003185046
0.0031764744
0.0031682624
0.0031606651
0.0031538568
0.0031479746
0.0031430956
0.0031392131
0.0031363307
0.0031344386
0.0031334937
0.0031334785
0.0031343496
0.0031360224
0.0031384445
0.0031415631
0.0031453226
0.0031496701
0.0031545514
0.0031599305
0.0031657536
0.0031719446
0.003178463
0.0031852637
0.0031923
0.0031995288
0.0032068976
0.0032143752
0.0032219305
0.0032294914
0.0032369925
0.0032443909
0.0032516337
0.0032586635
0.0032654305
0.0032718622
0.0032779239
0.0032835505
0.0032886081
0.0032930226
0.0032967188
0.0032996014
0.0033015929
0.0033025944
0.0033024424
0.0033011233
0.0032984764
0.0032942647
0.0032884139
0.0032807797
0.0032712373
0.0032596769
0.0032458276
0.0032294184
0.0032103139
0.0031882806
0.0031632227
0.0031349722
0.003103092
0.0030673521
0.0030274556
0.002983298
0.0029346368
0.0028809087
0.0028217912
0.0027570275
0.0026863866
0.0026092421
0.0025248059
0.0024331698
0.0023353641
0.0022338484
0.002130955
0.0020277454
0.0019242457
0.0018202298
0.0017159537
0.0016119055
0.0015082929
0.0014049056
0.0013020312
0.001199886
0.001099103
0.0010000307
0.00090274468
0.00080830953
0.00071707716
0.00063300503
0.00055201012
0.0004999979
0.00042225323
0.00058767986
-0.00040761082
0.011681583
0.011783472
0.01199988
0.012276372
0.012611374
0.013005245
0.013456239
0.013963633
0.0145288
0.015155001
0.015847261
0.016612711
0.017461198
0.018406599
0.019467859
0.020673905
0.022062033
0.023705963
0.025671738
0.028234584
0.031361643
0.036703555
0.041951875
0.081207371
0.051718091
0.0020628095
0.00064832308
0.0014922541
0.0020383766
0.0024608741
0.0027073008
0.0028822712
0.0030087433
0.0030921936
0.0031464368
0.0031809212
0.0032013429
0.0032119517
0.0032153634
0.0032137252
0.0032088788
0.0032019523
0.0031938173
0.0031851977
0.0031766126
0.0031683888
0.0031607809
0.0031539631
0.0031480725
0.0031431859
0.0031392965
0.0031364079
0.0031345102
0.00313356
0.0031335401
0.003134407
0.0031360757
0.0031384942
0.0031416094
0.0031453658
0.0031497105
0.0031545891
0.0031599658
0.0031657865
0.0031719754
0.0031784918
0.0031852906
0.0031923252
0.0031995523
0.0032069196
0.0032143958
0.0032219498
0.0032295094
0.0032370093
0.0032444066
0.0032516483
0.0032586772
0.0032654433
0.0032718741
0.003277935
0.0032835609
0.0032886178
0.0032930316
0.0032967271
0.0032996092
0.0033016001
0.003302601
0.0033024486
0.003301129
0.0032984817
0.0032942697
0.0032884184
0.003280784
0.0032712413
0.0032596805
0.0032458309
0.0032294215
0.0032103167
0.0031882833
0.0031632252
0.0031349745
0.0031030941
0.0030673541
0.0030274575
0.0029832998
0.0029346385
0.0028809103
0.0028217927
0.002757029
0.002686388
0.0026092433
0.0025248071
0.0024331709
0.0023353652
0.0022338494
0.002130956
0.0020277464
0.0019242467
0.0018202307
0.0017159546
0.0016119064
0.0015082938
0.0014049064
0.001302032
0.0011998868
0.0010991038
0.0010000315
0.00090274547
0.00080831032
0.00071707795
0.00063300584
0.00055201093
0.00049999885
0.00042225421
0.00058768091
-0.00040761019
0.011681583
0.011783472
0.011999881
0.012276372
0.012611375
0.013005246
0.013456241
0.013963635
0.014528803
0.015155005
0.015847266
0.016612717
0.017461207
0.01840661
0.019467873
0.020673925
0.022062059
0.023705999
0.025671786
0.028234662
0.031361748
0.036703764
0.041952196
0.081178359
0.051759481
0.0020846863
0.00065509662
0.0014955087
0.002040375
0.0024622784
0.0027083625
0.0028831134
0.0030094312
0.0030927684
0.0031469259
0.0031813432
0.0032017109
0.0032122756
0.0032156506
0.0032139814
0.0032091087
0.0032021595
0.0031940049
0.0031853681
0.003176768
0.0031685307
0.003160911
0.0031540826
0.0031481825
0.0031432874
0.0031393903
0.0031364946
0.0031345905
0.0031336346
0.0031336094
0.0031344714
0.0031361357
0.0031385501
0.0031416615
0.0031454144
0.0031497559
0.0031546315
0.0031600054
0.0031658235
0.00317201
0.0031785242
0.0031853209
0.0031923535
0.0031995788
0.0032069443
0.0032144189
0.0032219714
0.0032295296
0.0032370282
0.0032444243
0.0032516648
0.0032586926
0.0032654577
0.0032718875
0.0032779475
0.0032835725
0.0032886286
0.0032930417
0.0032967365
0.0032996179
0.0033016081
0.0033026086
0.0033024555
0.0033011355
0.0032984877
0.0032942752
0.0032884236
0.0032807887
0.0032712457
0.0032596846
0.0032458347
0.003229425
0.00321032
0.0031882863
0.003163228
0.0031349772
0.0031030966