/*--------------------------------*- C++ -*----------------------------------*\
| =========                 |                                                 |
| \\      /  F ield         | OpenFOAM: The Open Source CFD Toolbox           |
|  \\    /   O peration     | Version:  2206                                  |
|   \\  /    A nd           | Website:  www.openfoam.com                      |
|    \\/     M anipulation  |                                                 |
\*---------------------------------------------------------------------------*/
FoamFile
{
    version     2.0;
    format      ascii;
    arch        "LSB;label=32;scalar=64";
    class       surfaceScalarField;
    location    "361";
    object      phi;
}
// * * * * * * * * * * * * * * * * * * * * * * * * * * * * * * * * * * * * * //

dimensions      [0 3 -1 0 0 0 0];

oriented        oriented;

internalField   nonuniform List<scalar> 
25880
(
2.0046357e-06
1.8454431e-11
2.0045926e-06
4.3045777e-11
2.0045393e-06
5.3345117e-11
2.004479e-06
6.029268e-11
2.0044096e-06
6.9417199e-11
2.0043296e-06
8.0004348e-11
2.0042376e-06
9.1988599e-11
2.0041317e-06
1.0587866e-10
2.0040095e-06
1.2226876e-10
2.0038676e-06
1.4180462e-10
2.0037023e-06
1.6530743e-10
2.0035084e-06
1.9398086e-10
2.0032789e-06
2.2945193e-10
2.0030043e-06
2.7459975e-10
2.0026718e-06
3.3253567e-10
2.002259e-06
4.1277349e-10
2.0017416e-06
5.1738831e-10
2.0010459e-06
6.9567787e-10
2.0001482e-06
8.9772094e-10
1.9986793e-06
1.4689279e-09
1.9968213e-06
1.8579503e-09
1.9922485e-06
4.5728735e-09
1.9908985e-06
1.3499437e-09
9.999257e-07
9.9097282e-07
4.4118119e-09
9.9551389e-07
2.1216559e-09
2.2901562e-09
1.6045177e-09
5.1713817e-10
1.355093e-09
2.4942465e-10
1.2011949e-09
1.5389818e-10
1.092081e-09
1.0911387e-10
1.008792e-09
8.3289047e-11
9.4205237e-10
6.6739588e-11
8.8699569e-10
5.5056672e-11
8.4051549e-10
4.6480202e-11
8.005439e-10
3.9971587e-11
7.6568514e-10
3.4858762e-11
7.3494628e-10
3.0738856e-11
7.0758783e-10
2.7358455e-11
6.8304554e-10
2.4542287e-11
6.6088597e-10
2.2159572e-11
6.4076355e-10
2.0122416e-11
6.2239845e-10
1.8365103e-11
6.0556268e-10
1.6835769e-11
5.9006788e-10
1.5494797e-11
5.7575716e-10
1.4310718e-11
5.6249791e-10
1.325925e-11
5.50177e-10
1.2320913e-11
5.3869739e-10
1.1479608e-11
5.279757e-10
1.0721693e-11
5.179398e-10
1.0035899e-11
5.0852645e-10
9.4133436e-12
4.9968007e-10
8.8463831e-12
4.9135105e-10
8.3290266e-12
4.8349771e-10
7.8533368e-12
4.7608122e-10
7.4164849e-12
4.6906624e-10
7.0149836e-12
4.6242352e-10
6.6427183e-12
4.5612525e-10
6.2982726e-12
4.5014676e-10
5.9784915e-12
4.4446584e-10
5.6809223e-12
4.3906236e-10
5.4034833e-12
4.3391806e-10
5.1442928e-12
4.2901662e-10
4.9014421e-12
4.2434321e-10
4.6734117e-12
4.1988406e-10
4.4591472e-12
4.1562657e-10
4.257493e-12
4.1155927e-10
4.0673007e-12
4.0767168e-10
3.8875953e-12
4.0395411e-10
3.7175628e-12
4.0039755e-10
3.5565664e-12
3.9699378e-10
3.403769e-12
3.9373548e-10
3.2582972e-12
3.9061572e-10
3.1197645e-12
3.8762782e-10
2.9878976e-12
3.8476564e-10
2.8621869e-12
3.8202344e-10
2.742195e-12
3.7939589e-10
2.6275529e-12
3.7687791e-10
2.5179771e-12
3.7446464e-10
2.4132784e-12
3.7215175e-10
2.3128879e-12
3.6993533e-10
2.2164151e-12
3.6781125e-10
2.1240872e-12
3.6577539e-10
2.0358537e-12
3.6382397e-10
1.9514196e-12
3.6195342e-10
1.8705513e-12
3.6016074e-10
1.792685e-12
3.584399e-10
1.7208381e-12
3.567897e-10
1.6502048e-12
3.5520896e-10
1.5807354e-12
3.5369143e-10
1.5175302e-12
3.5223426e-10
1.4571739e-12
3.5083418e-10
1.4000839e-12
3.4948783e-10
1.3463512e-12
3.4819195e-10
1.295872e-12
3.4694375e-10
1.2482093e-12
3.4573991e-10
1.2038324e-12
3.4457655e-10
1.1633625e-12
3.4344984e-10
1.1267096e-12
3.4235597e-10
1.09387e-12
3.4129173e-10
1.0642419e-12
3.4025434e-10
1.0373862e-12
3.3924023e-10
1.014119e-12
3.3824512e-10
9.9511045e-13
3.3726471e-10
9.8040554e-13
3.3629561e-10
9.6909935e-13
3.3533504e-10
9.6056619e-13
3.3437929e-10
9.5575103e-13
3.3342388e-10
9.5541267e-13
3.3246482e-10
9.59066e-13
3.3149903e-10
9.6578788e-13
3.3052231e-10
9.767137e-13
3.2952959e-10
9.927249e-13
3.2851749e-10
1.0120985e-12
3.2752554e-10
9.9195227e-13
3.2657176e-10
9.5377261e-13
3.2565e-10
9.217614e-13
3.2475836e-10
8.9163922e-13
3.2389528e-10
8.6308327e-13
3.2305735e-10
8.3793469e-13
3.2224108e-10
8.1626187e-13
3.214447e-10
7.9638777e-13
3.2066701e-10
7.7768058e-13
3.1990603e-10
7.6098434e-13
3.191592e-10
7.4683394e-13
3.1842417e-10
7.3502661e-13
3.1769982e-10
7.2434936e-13
3.1698476e-10
7.1505589e-13
3.162765e-10
7.0826491e-13
3.1556939e-10
7.0710833e-13
3.1486215e-10
7.0724121e-13
3.1413113e-10
7.3101732e-13
3.1340038e-10
7.307495e-13
3.1254229e-10
8.5809426e-13
3.1165464e-10
8.8764746e-13
3.1071584e-10
9.3880188e-13
5.6894724e-13
2.0345092e-06
3.7335724e-11
2.0344651e-06
8.7103001e-11
2.0344105e-06
1.079581e-10
2.0343488e-06
1.2202037e-10
2.0342777e-06
1.4048539e-10
2.0341958e-06
1.6190846e-10
2.0341016e-06
1.8615618e-10
2.0339933e-06
2.142577e-10
2.0338681e-06
2.4741512e-10
2.033723e-06
2.8693425e-10
2.0335538e-06
3.3447554e-10
2.0333553e-06
3.9247283e-10
2.0331206e-06
4.6421573e-10
2.0328396e-06
5.5552583e-10
2.0324995e-06
6.7269246e-10
2.0320773e-06
8.3495326e-10
2.0315482e-06
1.0464924e-09
2.0308369e-06
1.4069945e-09
2.0299191e-06
1.8154628e-09
2.0284178e-06
2.9702503e-09
2.026519e-06
3.7567496e-09
2.0218469e-06
9.2449536e-09
2.0204608e-06
2.7360514e-09
1.0212103e-06
1.9902234e-06
1.3460614e-08
2.0032635e-06
6.4916776e-09
9.2590927e-09
4.9096221e-09
2.0991937e-09
4.1464253e-09
1.0126214e-09
3.675501e-09
6.2482248e-10
3.34161e-09
4.4300486e-10
3.0867483e-09
3.381508e-10
2.8825293e-09
2.7095851e-10
2.7140594e-09
2.2352656e-10
2.5718337e-09
1.8870591e-10
2.4495246e-09
1.6228075e-10
2.3428606e-09
1.4152273e-10
2.2488034e-09
1.2479603e-10
2.1650901e-09
1.1107183e-10
2.089994e-09
9.9638337e-11
2.0221889e-09
8.9964632e-11
1.9606174e-09
8.1694004e-11
1.904423e-09
7.4559471e-11
1.8529082e-09
6.8350528e-11
1.8054967e-09
6.2906332e-11
1.7617083e-09
5.8099114e-11
1.7211373e-09
5.3830288e-11
1.6834374e-09
5.0020763e-11
1.6483118e-09
4.6605181e-11
1.6155054e-09
4.3528156e-11
1.5847973e-09
4.0743936e-11
1.5559942e-09
3.8216458e-11
1.5289259e-09
3.5914687e-11
1.5034407e-09
3.3814291e-11
1.4794109e-09
3.1883079e-11
1.4567178e-09
3.0109549e-11
1.4352533e-09
2.8479492e-11
1.4149279e-09
2.6968168e-11
1.3956564e-09
2.5569775e-11
1.3773634e-09
2.4271518e-11
1.3599808e-09
2.3063436e-11
1.3434473e-09
2.1937081e-11
1.3277067e-09
2.088481e-11
1.3127093e-09
1.9898877e-11
1.2984096e-09
1.8973113e-11
1.2847655e-09
1.8103235e-11
1.2717385e-09
1.7284552e-11
1.2592934e-09
1.6512403e-11
1.2473981e-09
1.5782829e-11
1.2360232e-09
1.5092526e-11
1.2251408e-09
1.4438907e-11
1.214726e-09
1.3818574e-11
1.2047563e-09
1.3227985e-11
1.1952105e-09
1.2665567e-11
1.1860682e-09
1.213021e-11
1.1773106e-09
1.1619846e-11
1.1689201e-09
1.11327e-11
1.1608803e-09
1.0667274e-11
1.1531759e-09
1.0222417e-11
1.1457918e-09
9.7973588e-12
1.1387149e-09
9.389793e-12
1.1319332e-09
8.9981346e-12
1.125434e-09
8.6233027e-12
1.1192047e-09
8.2650927e-12
1.1132339e-09
7.9223085e-12
1.1075104e-09
7.5940018e-12
1.1020252e-09
7.2778839e-12
1.0967598e-09
6.9862005e-12
1.0917106e-09
6.6994459e-12
1.0868739e-09
6.4174224e-12
1.0822306e-09
6.1608263e-12
1.077772e-09
5.9157958e-12
1.0734881e-09
5.6840272e-12
1.0693685e-09
5.4658885e-12
1.0654034e-09
5.2609585e-12
1.0615842e-09
5.0674664e-12
1.0579007e-09
4.8873143e-12
1.054341e-09
4.723021e-12
1.0508935e-09
4.5742244e-12
1.0475465e-09
4.4409077e-12
1.0442901e-09
4.32063e-12
1.0411159e-09
4.211612e-12
1.0380128e-09
4.1171593e-12
1.0349679e-09
4.039995e-12
1.0319681e-09
3.9802997e-12
1.0290027e-09
3.9344037e-12
1.0260635e-09
3.899769e-12
1.0231391e-09
3.8802254e-12
1.0202156e-09
3.8788544e-12
1.017281e-09
3.8936879e-12
1.0143258e-09
3.9209827e-12
1.0113372e-09
3.9653448e-12
1.0082996e-09
4.0303459e-12
1.0052027e-09
4.1090082e-12
1.0021674e-09
4.0272258e-12
9.9924894e-10
3.8722142e-12
9.9642845e-10
3.7422432e-12
9.9370014e-10
3.6199493e-12
9.9105921e-10
3.5040164e-12
9.8849523e-10
3.401913e-12
9.8599758e-10
3.3139185e-12
9.8356073e-10
3.2332285e-12
9.8118114e-10
3.1572797e-12
9.7885263e-10
3.0894923e-12
9.7656742e-10
3.0320399e-12
9.7431835e-10
2.9840965e-12
9.7210196e-10
2.9407431e-12
9.69914e-10
2.9030091e-12
9.6774684e-10
2.875428e-12
9.6558323e-10
2.8707204e-12
9.6341924e-10
2.8712309e-12
9.6118251e-10
2.9677426e-12
9.5894674e-10
2.9665227e-12
9.5632118e-10
3.483657e-12
9.5360668e-10
3.6021404e-12
9.5072757e-10
3.8179192e-12
2.2997107e-12
2.0947015e-06
5.6949277e-11
2.0946557e-06
1.3288762e-10
2.0945989e-06
1.6472948e-10
2.0945347e-06
1.8619005e-10
2.0944609e-06
2.1436365e-10
2.0943757e-06
2.4704756e-10
2.0942778e-06
2.8403689e-10
2.0941652e-06
3.2690141e-10
2.0940351e-06
3.774745e-10
2.0938843e-06
4.3774705e-10
2.0937086e-06
5.1025023e-10
2.0935023e-06
5.9869421e-10
2.0932585e-06
7.0809332e-10
2.0929667e-06
8.4732208e-10
2.0926134e-06
1.0259648e-09
2.092175e-06
1.2733488e-09
2.0916257e-06
1.5958322e-09
2.0908873e-06
2.1453838e-09
2.0899348e-06
2.7679456e-09
2.088377e-06
4.5279928e-09
2.0864071e-06
5.7267205e-09
2.0815613e-06
1.4090744e-08
2.0801169e-06
4.1804445e-09
1.0580986e-06
3.0122416e-06
2.327397e-08
3.0380882e-06
1.1249839e-08
2.1283224e-08
8.5085182e-09
4.8405143e-09
7.1859126e-09
2.3352271e-09
6.36976e-09
1.440975e-09
5.7910935e-09
1.0216713e-09
5.349397e-09
7.7984736e-10
4.995472e-09
6.248835e-10
4.7035027e-09
5.1549588e-10
4.4570171e-09
4.3519145e-10
4.2450491e-09
3.7424877e-10
4.0601956e-09
3.2637622e-10
3.8971908e-09
2.8780088e-10
3.7521124e-09
2.5615025e-10
3.6219684e-09
2.2978228e-10
3.5044603e-09
2.0747274e-10
3.3977551e-09
1.8839924e-10
3.3003689e-09
1.7194568e-10
3.2110927e-09
1.5762673e-10
3.1289275e-09
1.4507145e-10
3.0530415e-09
1.3398518e-10
2.9827312e-09
1.2414054e-10
2.9173968e-09
1.1535514e-10
2.8565238e-09
1.0747825e-10
2.7996698e-09
1.0038212e-10
2.7464525e-09
9.3961271e-11
2.6965364e-09
8.8132506e-11
2.6496268e-09
8.2824259e-11
2.6054608e-09
7.7980389e-11
2.5638171e-09
7.3526795e-11
2.5244899e-09
6.9436698e-11
2.4872919e-09
6.5677522e-11
2.4520678e-09
6.2192202e-11
2.4186703e-09
5.8967294e-11
2.3869685e-09
5.5973313e-11
2.3568446e-09
5.3187292e-11
2.328192e-09
5.0589742e-11
2.3009138e-09
4.8163042e-11
2.2749233e-09
4.5889331e-11
2.250142e-09
4.3754379e-11
2.226497e-09
4.1748306e-11
2.2039212e-09
3.9860297e-11
2.182354e-09
3.8079603e-11
2.1617398e-09
3.6397093e-11
2.1420271e-09
3.4805148e-11
2.1231682e-09
3.3297801e-11
2.1051196e-09
3.1867219e-11
2.0878423e-09
3.0505231e-11
2.0712997e-09
2.9208212e-11
2.0554563e-09
2.7973599e-11
2.0402795e-09
2.6796625e-11
2.025739e-09
2.5673196e-11
2.0118065e-09
2.4599855e-11
1.9984549e-09
2.3573952e-11
1.9856586e-09
2.2593707e-11
1.9733946e-09
2.1653805e-11
1.9616421e-09
2.0750593e-11
1.9503792e-09
1.9886183e-11
1.9395842e-09
1.9060106e-11
1.9292369e-09
1.8269605e-11
1.9193184e-09
1.7512494e-11
1.9098128e-09
1.6783493e-11
1.9006882e-09
1.6110837e-11
1.8919381e-09
1.5449554e-11
1.8835563e-09
1.4799188e-11
1.8755097e-09
1.4207456e-11
1.8677831e-09
1.3642397e-11
1.8603592e-09
1.3107925e-11
1.8532202e-09
1.2604885e-11
1.8463488e-09
1.2132307e-11
1.8397302e-09
1.1686112e-11
1.8333468e-09
1.1270682e-11
1.827178e-09
1.0891821e-11
1.8212035e-09
1.0548699e-11
1.8154032e-09
1.0241273e-11
1.8097599e-09
9.9639183e-12
1.804259e-09
9.712536e-12
1.7988814e-09
9.4947397e-12
1.7936046e-09
9.3168098e-12
1.7884057e-09
9.1791611e-12
1.7832668e-09
9.0733369e-12
1.7781731e-09
8.9934866e-12
1.7731048e-09
8.9484341e-12
1.7680384e-09
8.9452851e-12
1.7629526e-09
8.9795033e-12
1.7578311e-09
9.0424642e-12
1.7526517e-09
9.1447845e-12
1.7473873e-09
9.2946925e-12
1.7420202e-09
9.4761207e-12
1.7367599e-09
9.2875348e-12
1.7317021e-09
8.9300434e-12
1.726814e-09
8.6302927e-12
1.7220857e-09
8.3482574e-12
1.7175088e-09
8.0808956e-12
1.7130653e-09
7.8454207e-12
1.7087368e-09
7.6424794e-12
1.7045136e-09
7.4563868e-12
1.7003897e-09
7.2812329e-12
1.6963543e-09
7.1248985e-12
1.6923939e-09
6.9923964e-12
1.6884962e-09
6.8818178e-12
1.6846551e-09
6.7818268e-12
1.6808633e-09
6.6947968e-12
1.6771076e-09
6.6311723e-12
1.673358e-09
6.6202895e-12
1.6696078e-09
6.6214262e-12
1.6657316e-09
6.8439294e-12
1.6618572e-09
6.8409866e-12
1.6573073e-09
8.0335016e-12
1.6526043e-09
8.3051024e-12
1.6476103e-09
8.8119691e-12
5.292347e-12
2.1861096e-06
7.7621042e-11
2.1860613e-06
1.8116493e-10
2.1860014e-06
2.2461232e-10
2.1859337e-06
2.5387957e-10
2.1858558e-06
2.9229255e-10
2.185766e-06
3.3685053e-10
2.1856627e-06
3.8727215e-10
2.1855439e-06
4.4569684e-10
2.1854068e-06
5.1462323e-10
2.1852478e-06
5.9676347e-10
2.1850625e-06
6.9556522e-10
2.1848451e-06
8.1608205e-10
2.184588e-06
9.6514321e-10
2.1842805e-06
1.1548367e-09
2.1839083e-06
1.3982121e-09
2.1834464e-06
1.7352176e-09
2.1828677e-06
2.1744832e-09
2.1820901e-06
2.9230155e-09
2.1810872e-06
3.7708276e-09
2.1794475e-06
6.1676707e-09
2.1773742e-06
7.8000956e-09
2.1722757e-06
1.918919e-08
2.1707481e-06
5.7080757e-09
1.1114462e-06
4.0715435e-06
3.4432713e-08
4.1151017e-06
1.6680762e-08
3.9035175e-08
1.2616515e-08
8.9047609e-09
1.0655413e-08
4.2963291e-09
9.4451691e-09
2.6512191e-09
8.5870807e-09
1.8797597e-09
7.9321057e-09
1.4348224e-09
7.4072891e-09
1.1497002e-09
6.9743436e-09
9.4844137e-10
6.6088447e-09
8.0069035e-10
6.2945312e-09
6.8856228e-10
6.0204249e-09
6.0048244e-10
5.7787172e-09
5.295086e-10
5.5635916e-09
4.7127591e-10
5.3706116e-09
4.2276226e-10
5.1963688e-09
3.8171556e-10
5.0381447e-09
3.4662329e-10
4.8937393e-09
3.1635107e-10
4.7613597e-09
2.9000632e-10
4.6395247e-09
2.6690649e-10
4.5270004e-09
2.4650945e-10
4.4227441e-09
2.2839685e-10
4.3258662e-09
2.1223309e-10
4.2356036e-09
1.9774084e-10
4.1513006e-09
1.8468511e-10
4.0723901e-09
1.7287178e-10
3.9983748e-09
1.621478e-10
3.9288176e-09
1.523815e-10
3.8633284e-09
1.4346951e-10
3.8015795e-09
1.3527573e-10
3.7432655e-09
1.2775065e-10
3.6881088e-09
1.2083428e-10
3.6358791e-09
1.1442192e-10
3.5863577e-09
1.0848863e-10
3.5393508e-09
1.029802e-10
3.4946837e-09
9.7854381e-11
3.4521982e-09
9.3075319e-11
3.4117506e-09
8.8610591e-11
3.3732126e-09
8.4427339e-11
3.3364676e-09
8.0499385e-11
3.3014074e-09
7.6808542e-11
3.2679327e-09
7.3334918e-11
3.2359536e-09
7.0058734e-11
3.2053875e-09
6.6963195e-11
3.1761584e-09
6.403428e-11
3.1481952e-09
6.1261009e-11
3.1214334e-09
5.8628976e-11
3.0958155e-09
5.612315e-11
3.0712869e-09
5.3736856e-11
3.0477951e-09
5.1465377e-11
3.0252918e-09
4.9299948e-11
3.0037319e-09
4.7233033e-11
2.9830735e-09
4.5258275e-11
2.9632767e-09
4.3370795e-11
2.944303e-09
4.1567319e-11
2.9261188e-09
3.9838075e-11
2.908693e-09
3.817634e-11
2.8919932e-09
3.6585994e-11
2.8759871e-09
3.5066175e-11
2.8606449e-09
3.3611812e-11
2.8459385e-09
3.2218891e-11
2.8318444e-09
3.0877682e-11
2.8183151e-09
2.9640139e-11
2.8053411e-09
2.8423536e-11
2.7929132e-09
2.7227017e-11
2.7809823e-09
2.6138373e-11
2.7695259e-09
2.5098808e-11
2.7585183e-09
2.4115522e-11
2.7479331e-09
2.3190067e-11
2.7377448e-09
2.2320657e-11
2.7279311e-09
2.1499799e-11
2.7184662e-09
2.0735546e-11
2.7093195e-09
2.0038568e-11
2.7004608e-09
1.9407343e-11
2.6918603e-09
1.8841792e-11
2.6834927e-09
1.833157e-11
2.6753361e-09
1.7869139e-11
2.6673623e-09
1.7468497e-11
2.6595379e-09
1.7141196e-11
2.6518291e-09
1.6887996e-11
2.6442091e-09
1.6693348e-11
2.6366561e-09
1.6546491e-11
2.6291409e-09
1.646365e-11
2.6216282e-09
1.6457895e-11
2.6140869e-09
1.6520882e-11
2.6064926e-09
1.6636757e-11
2.5988123e-09
1.6825045e-11
2.5910061e-09
1.7100876e-11
2.5830475e-09
1.743472e-11
2.5752473e-09
1.7087789e-11
2.5677473e-09
1.6430054e-11
2.560499e-09
1.5878535e-11
2.5534877e-09
1.5359624e-11
2.5467008e-09
1.4867713e-11
2.5401118e-09
1.4434461e-11
2.5336932e-09
1.406106e-11
2.5274309e-09
1.371866e-11
2.5213158e-09
1.3396395e-11
2.5153319e-09
1.3108755e-11
2.5094594e-09
1.2864957e-11
2.5036797e-09
1.2661486e-11
2.497984e-09
1.2477497e-11
2.4923615e-09
1.2317357e-11
2.4867924e-09
1.2200267e-11
2.4812325e-09
1.2180193e-11
2.4756717e-09
1.2182227e-11
2.4699242e-09
1.2591431e-11
2.4641792e-09
1.2585918e-11
2.4574333e-09
1.4779436e-11
2.4504609e-09
1.5277514e-11
2.4430529e-09
1.6219956e-11
9.725914e-12
2.3100956e-06
9.9704978e-11
2.310044e-06
2.3276753e-10
2.30998e-06
2.8864493e-10
2.3099076e-06
3.2626342e-10
2.3098242e-06
3.7562377e-10
2.3097282e-06
4.3287395e-10
2.3096178e-06
4.976495e-10
2.3094908e-06
5.7269841e-10
2.3093442e-06
6.6122977e-10
2.3091743e-06
7.6672541e-10
2.3089762e-06
8.9361058e-10
2.3087439e-06
1.0483719e-09
2.3084693e-06
1.2397743e-09
2.3081408e-06
1.4833335e-09
2.3077432e-06
1.7957927e-09
2.30725e-06
2.2284305e-09
2.3066322e-06
2.7922807e-09
2.3058022e-06
3.7530675e-09
2.3047319e-06
4.8410498e-09
2.3029828e-06
7.9168571e-09
2.3007712e-06
1.0011694e-08
2.2953349e-06
2.4625453e-08
2.2936966e-06
7.3463881e-09
1.1823907e-06
5.1828494e-06
4.7593047e-08
5.2498993e-06
2.3109288e-08
6.3518935e-08
1.7479393e-08
1.4534655e-08
1.4762519e-08
7.0132037e-09
1.3085733e-08
4.3280046e-09
1.1896852e-08
3.0686407e-09
1.098939e-08
2.3422844e-09
1.0262269e-08
1.8768216e-09
9.6624335e-09
1.5482768e-09
9.1560452e-09
1.3070786e-09
8.7205748e-09
1.1240327e-09
8.3408114e-09
9.802458e-10
8.0059359e-09
8.643841e-10
7.7078891e-09
7.6932273e-10
7.4405248e-09
6.9012656e-10
7.1991206e-09
6.2311972e-10
6.9799098e-09
5.6583414e-10
6.7798443e-09
5.1641652e-10
6.5964402e-09
4.734104e-10
6.4276453e-09
4.3570145e-10
6.27175e-09
4.0240469e-10
6.1273097e-09
3.7283714e-10
5.9930919e-09
3.4645095e-10
5.8680393e-09
3.2279341e-10
5.7512435e-09
3.014809e-10
5.6419187e-09
2.8219654e-10
5.5393761e-09
2.6469047e-10
5.4430099e-09
2.4874773e-10
5.3522799e-09
2.341995e-10
5.2667316e-09
2.2082397e-10
5.1859424e-09
2.0853991e-10
5.1095274e-09
1.9724927e-10
5.0371676e-09
1.867817e-10
4.9685602e-09
1.7709606e-10
4.9034364e-09
1.6810398e-10
4.8415543e-09
1.5973649e-10
4.7826946e-09
1.5193504e-10
4.7266584e-09
1.4464672e-10
4.6732679e-09
1.3781789e-10
4.6223615e-09
1.3140582e-10
4.5737892e-09
1.253808e-10
4.5274137e-09
1.1971038e-10
4.4831102e-09
1.1436226e-10
4.4407644e-09
1.0930904e-10
4.4002708e-09
1.0452781e-10
4.3615312e-09
1.0000066e-10
4.3244561e-09
9.5704078e-11
4.2889657e-09
9.1613524e-11
4.2549845e-09
8.7718099e-11
4.2224397e-09
8.40101e-11
4.1912645e-09
8.0475221e-11
4.1613963e-09
7.7101161e-11
4.1327771e-09
7.3877545e-11
4.1053515e-09
7.0796408e-11
4.0790664e-09
6.7852405e-11
4.0538749e-09
6.5029588e-11
4.0297342e-09
6.2316987e-11
4.0065993e-09
5.9720924e-11
3.9844255e-09
5.7239992e-11
3.9631714e-09
5.486592e-11
3.9427981e-09
5.2592163e-11
3.923273e-09
5.0402804e-11
3.9045304e-09
4.8382698e-11
3.8865571e-09
4.6396794e-11
3.8693405e-09
4.4443649e-11
3.8528123e-09
4.2666622e-11
3.8369413e-09
4.0969721e-11
3.8216922e-09
3.93647e-11
3.8070282e-09
3.7854084e-11
3.7929138e-09
3.6434962e-11
3.7793185e-09
3.5095112e-11
3.7662064e-09
3.3847674e-11
3.7535349e-09
3.2710047e-11
3.7412625e-09
3.1679759e-11
3.7293476e-09
3.0756677e-11
3.7177553e-09
2.9923918e-11
3.7064552e-09
2.9169186e-11
3.6954084e-09
2.8515313e-11
3.6845685e-09
2.7981149e-11
3.6738885e-09
2.7567936e-11
3.6633316e-09
2.72503e-11
3.6528674e-09
2.7010683e-11
3.6424555e-09
2.6875559e-11
3.6320471e-09
2.6866251e-11
3.6215988e-09
2.6969146e-11
3.6110772e-09
2.7158381e-11
3.6004364e-09
2.7465824e-11
3.5896212e-09
2.7916161e-11
3.5785947e-09
2.8461228e-11
3.5677875e-09
2.7894963e-11
3.5573963e-09
2.6821253e-11
3.5473539e-09
2.5920903e-11
3.5376397e-09
2.5073794e-11
3.5282367e-09
2.427077e-11
3.5191077e-09
2.3563488e-11
3.5102148e-09
2.29539e-11
3.5015386e-09
2.2394924e-11
3.4930661e-09
2.1868826e-11
3.4847756e-09
2.1399256e-11
3.4766393e-09
2.100125e-11
3.4686318e-09
2.0669057e-11
3.4607406e-09
2.036867e-11
3.4529507e-09
2.0107218e-11
3.445235e-09
1.9916027e-11
3.437532e-09
1.9883167e-11
3.4298278e-09
1.9886407e-11
3.4218652e-09
2.0554083e-11
3.413906e-09
2.0545037e-11
3.4045609e-09
2.4124599e-11
3.3949023e-09
2.49361e-11
3.3846369e-09
2.648535e-11
1.5865811e-11
2.4685073e-06
1.2359171e-10
2.4684514e-06
2.886162e-10
2.4683821e-06
3.579773e-10
2.4683037e-06
4.0464271e-10
2.4682135e-06
4.6585453e-10
2.4681095e-06
5.3684165e-10
2.46799e-06
6.1714808e-10
2.4678525e-06
7.1017988e-10
2.4676939e-06
8.1991438e-10
2.4675099e-06
9.5066492e-10
2.4672956e-06
1.1079123e-09
2.4670443e-06
1.2996908e-09
2.4667472e-06
1.5368547e-09
2.4663919e-06
1.8386215e-09
2.465962e-06
2.2257187e-09
2.4654288e-06
2.7616615e-09
2.464761e-06
3.4600557e-09
2.463864e-06
4.6500398e-09
2.4627078e-06
5.9972358e-09
2.4608189e-06
9.8058224e-09
2.4584308e-06
1.2399724e-08
2.4525635e-06
3.0492836e-08
2.4507838e-06
9.1260453e-09
1.2723885e-06
6.3612448e-06
6.3524919e-08
6.4587629e-06
3.0919899e-08
9.6123955e-08
2.3388099e-08
2.2066456e-08
1.9752976e-08
1.0648326e-08
1.7509274e-08
6.5717068e-09
1.5918429e-08
4.6594857e-09
1.4704158e-08
3.5565549e-09
1.3731211e-08
2.8497688e-09
1.2928583e-08
2.3509046e-09
1.2250998e-08
1.9846645e-09
1.1668308e-08
1.7067225e-09
1.116016e-08
1.4883938e-09
1.0712076e-08
1.3124679e-09
1.0313272e-08
1.168127e-09
9.9555235e-09
1.0478748e-09
9.6325124e-09
9.4613079e-10
9.3391973e-09
8.5914923e-10
9.0715003e-09
7.8411353e-10
8.8260975e-09
7.1881326e-10
8.6002426e-09
6.6155629e-10
8.3916486e-09
6.1099875e-10
8.198382e-09
5.6610371e-10
8.0187937e-09
5.2603924e-10
7.8514692e-09
4.9011793e-10
7.6951928e-09
4.5775732e-10
7.5489131e-09
4.2847626e-10
7.4117082e-09
4.0189533e-10
7.2827678e-09
3.7768813e-10
7.1613691e-09
3.5559817e-10
7.0469038e-09
3.3528932e-10
6.9388062e-09
3.1663747e-10
6.8365618e-09
2.9949365e-10
6.7397435e-09
2.8360002e-10
6.6479461e-09
2.6889352e-10
6.5608099e-09
2.552401e-10
6.4780114e-09
2.4253505e-10
6.3992569e-09
2.3068947e-10
6.3242807e-09
2.19623e-10
6.2528443e-09
2.0925422e-10
6.1847319e-09
1.9951825e-10
6.1197427e-09
1.9036997e-10
6.057693e-09
1.8176009e-10
5.9984157e-09
1.736396e-10
5.9417579e-09
1.6596687e-10
5.8875785e-09
1.5870715e-10
5.835746e-09
1.518332e-10
5.7861407e-09
1.4530934e-10
5.7386559e-09
1.3909833e-10
5.6931904e-09
1.3318361e-10
5.6496471e-09
1.2755347e-10
5.6079361e-09
1.221862e-10
5.5679741e-09
1.1706312e-10
5.5296832e-09
1.1216848e-10
5.4929894e-09
1.0749018e-10
5.4578217e-09
1.0302011e-10
5.4241172e-09
9.873407e-11
5.3918188e-09
9.4615398e-11
5.3608661e-09
9.0673679e-11
5.3311993e-09
8.6906778e-11
5.3027631e-09
8.3302142e-11
5.2755054e-09
7.984986e-11
5.2493825e-09
7.6525675e-11
5.2243066e-09
7.3458564e-11
5.20026e-09
7.0443407e-11
5.1772257e-09
6.7477909e-11
5.1551125e-09
6.4779897e-11
5.1338786e-09
6.2203558e-11
5.1134766e-09
5.9766743e-11
5.0938574e-09
5.7473277e-11
5.0749736e-09
5.5318738e-11
5.0567841e-09
5.3284589e-11
5.0392411e-09
5.1390772e-11
5.0222874e-09
4.9663682e-11
5.0058676e-09
4.8099572e-11
4.989926e-09
4.6698244e-11
4.9744159e-09
4.5434064e-11
4.9592967e-09
4.4288373e-11
4.9445162e-09
4.3295818e-11
4.9300123e-09
4.2485004e-11
4.9157225e-09
4.1857816e-11
4.901597e-09
4.137574e-11
4.8875956e-09
4.1012128e-11
4.873664e-09
4.0807164e-11
4.859737e-09
4.0793206e-11
4.8457566e-09
4.0949586e-11
4.8316779e-09
4.1237069e-11
4.8174397e-09
4.1704032e-11
4.8029679e-09
4.2387947e-11
4.7882134e-09
4.3215741e-11
4.7737523e-09
4.2356064e-11
4.7598478e-09
4.0725767e-11
4.74641e-09
3.9358635e-11
4.7334115e-09
3.8072355e-11
4.7208292e-09
3.685302e-11
4.7086137e-09
3.577904e-11
4.6967142e-09
3.4853387e-11
4.6851045e-09
3.4004581e-11
4.6737676e-09
3.3205718e-11
4.6626742e-09
3.2492699e-11
4.6517871e-09
3.1888328e-11
4.6410723e-09
3.1383864e-11
4.6305133e-09
3.0927695e-11
4.6200899e-09
3.0530648e-11
4.6097656e-09
3.0240269e-11
4.5994586e-09
3.0190227e-11
4.5891499e-09
3.0195032e-11
4.5784957e-09
3.1208279e-11
4.5678462e-09
3.1194571e-11
4.5553433e-09
3.6627537e-11
4.5424211e-09
3.7858222e-11
4.5286839e-09
4.0222627e-11
2.4079722e-11
2.6637053e-06
1.497187e-10
2.6636441e-06
3.4974448e-10
2.6635682e-06
4.339025e-10
2.6634824e-06
4.904807e-10
2.6633835e-06
5.6466849e-10
2.6632697e-06
6.5069174e-10
2.6631389e-06
7.4799229e-10
2.6629883e-06
8.6069583e-10
2.6628146e-06
9.9361969e-10
2.6626133e-06
1.1519855e-09
2.6623788e-06
1.3424264e-09
2.6621038e-06
1.5746662e-09
2.6617788e-06
1.8618401e-09
2.6613903e-06
2.2272064e-09
2.6609201e-06
2.6958384e-09
2.6603372e-06
3.344612e-09
2.6596073e-06
4.1899123e-09
2.6586272e-06
5.6301205e-09
2.6573643e-06
7.2601565e-09
2.6553019e-06
1.1868279e-08
2.6526949e-06
1.5006722e-08
2.6462927e-06
3.6895027e-08
2.6443369e-06
1.1081831e-08
1.3832587e-06
7.6223229e-06
8.3155917e-08
7.7588657e-06
4.0579705e-08
1.3870017e-07
3.069615e-08
3.1950011e-08
2.5925393e-08
1.5419084e-08
2.2980462e-08
9.5166375e-09
2.0892419e-08
6.7475294e-09
1.9298652e-08
5.1503216e-09
1.8021644e-08
4.1267769e-09
1.6968183e-08
3.4043651e-09
1.6078845e-08
2.874003e-09
1.5314062e-08
2.4715051e-09
1.4647118e-08
2.1553377e-09
1.4059011e-08
1.9005754e-09
1.3535583e-08
1.6915548e-09
1.3066042e-08
1.5174156e-09
1.2642095e-08
1.3700779e-09
1.2257124e-08
1.2441205e-09
1.1905777e-08
1.1354606e-09
1.1583691e-08
1.0408991e-09
1.1287262e-08
9.5798506e-10
1.1013488e-08
8.8477276e-10
1.0759832e-08
8.1976033e-10
1.0524128e-08
7.6174308e-10
1.030452e-08
7.0972554e-10
1.0099413e-08
6.6286429e-10
9.9074268e-09
6.2046258e-10
9.7273513e-09
5.8197091e-10
9.5581228e-09
5.4691663e-10
9.3987929e-09
5.1492804e-10
9.2485628e-09
4.8551944e-10
9.1066903e-09
4.5850991e-10
8.9725004e-09
4.3368358e-10
8.845432e-09
4.1066838e-10
8.7249536e-09
3.89372e-10
8.6105931e-09
3.6960059e-10
8.5019256e-09
3.512025e-10
8.3985661e-09
3.3404899e-10
8.3001654e-09
3.180237e-10
8.2064109e-09
3.0300875e-10
8.117019e-09
2.8891016e-10
8.0317263e-09
2.756626e-10
7.9502917e-09
2.6319469e-10
7.8724959e-09
2.5143546e-10
7.7981381e-09
2.4032463e-10
7.7270334e-09
2.2981187e-10
7.6590088e-09
2.1985775e-10
7.5939076e-09
2.104106e-10
7.5315894e-09
2.0141652e-10
7.4719215e-09
1.9285149e-10
7.4147764e-09
1.8469856e-10
7.3600363e-09
1.769263e-10
7.3075918e-09
1.6950767e-10
7.2573404e-09
1.6241985e-10
7.2091852e-09
1.5564533e-10
7.163033e-09
1.4917235e-10
7.1188012e-09
1.4296589e-10
7.0764147e-09
1.3700184e-10
7.0357944e-09
1.3129403e-10
6.9968618e-09
1.2583939e-10
6.9595442e-09
1.2061974e-10
6.9237733e-09
1.1562078e-10
6.8894917e-09
1.1080721e-10
6.8565842e-09
1.063661e-10
6.8250273e-09
1.0200024e-10
6.7947991e-09
9.7706108e-11
6.7657796e-09
9.3799489e-11
6.737914e-09
9.0069073e-11
6.7111401e-09
8.6540731e-11
6.6853934e-09
8.3219978e-11
6.6606117e-09
8.0100415e-11
6.636741e-09
7.7155227e-11
6.6137185e-09
7.4413279e-11
6.5914695e-09
7.1912755e-11
6.5699208e-09
6.9648244e-11
6.5489996e-09
6.761946e-11
6.5286444e-09
6.5789281e-11
6.508802e-09
6.4130708e-11
6.489404e-09
6.2693881e-11
6.4703688e-09
6.1520193e-11
6.4516142e-09
6.0612377e-11
6.4330753e-09
5.9914673e-11
6.4146989e-09
5.9388512e-11
6.396414e-09
5.9092072e-11
6.378135e-09
5.9072176e-11
6.3597857e-09
5.9298892e-11
6.3413073e-09
5.9715462e-11
6.3226194e-09
6.0391931e-11
6.3036248e-09
6.1382545e-11
6.284259e-09
6.2581566e-11
6.2652782e-09
6.13369e-11
6.2470278e-09
5.8976105e-11
6.2293902e-09
5.6996295e-11
6.2123289e-09
5.5133568e-11
6.1958142e-09
5.336779e-11
6.1797807e-09
5.1812478e-11
6.1641622e-09
5.047194e-11
6.1489241e-09
4.9242681e-11
6.134044e-09
4.8085771e-11
6.1194835e-09
4.70532e-11
6.1051939e-09
4.6177947e-11
6.0911304e-09
4.5447326e-11
6.0772715e-09
4.4786643e-11
6.0635906e-09
4.4211581e-11
6.0500399e-09
4.3790962e-11
6.0365118e-09
4.3718267e-11
6.0229818e-09
4.3725061e-11
6.0089986e-09
4.5191467e-11
5.9950214e-09
4.517176e-11
5.9786134e-09
5.3035552e-11
5.9616553e-09
5.4816378e-11
5.9436239e-09
5.8254031e-11
3.4859699e-11
2.8985984e-06
1.7858239e-10
2.8985308e-06
4.1732812e-10
2.8984468e-06
5.1789421e-10
2.8983519e-06
5.8544548e-10
2.8982425e-06
6.7398474e-10
2.8981166e-06
7.7663283e-10
2.8979719e-06
8.927162e-10
2.8978054e-06
1.0271553e-09
2.8976134e-06
1.1856951e-09
2.8973908e-06
1.3745591e-09
2.8971316e-06
1.601651e-09
2.8968277e-06
1.8785571e-09
2.8964686e-06
2.2209262e-09
2.8960393e-06
2.656472e-09
2.8955201e-06
3.2150528e-09
2.8948764e-06
3.9882759e-09
2.8940708e-06
4.9955553e-09
2.8929893e-06
6.711621e-09
2.8915962e-06
8.6532821e-09
2.8893222e-06
1.4142259e-08
2.8864482e-06
1.7880655e-08
2.8793946e-06
4.394872e-08
2.8772226e-06
1.3253784e-08
1.5172358e-06
8.9823097e-06
1.0762361e-07
9.1684779e-06
5.2666365e-08
1.9365741e-07
3.9840792e-08
4.4775584e-08
3.3649108e-08
2.1610767e-08
2.9826657e-08
1.3339089e-08
2.7116413e-08
9.4577738e-09
2.5047743e-08
7.2189911e-09
2.3390238e-08
5.7842816e-09
2.202289e-08
4.7717133e-09
2.0868569e-08
4.0283238e-09
1.9875922e-08
3.4641529e-09
1.9010267e-08
3.0209927e-09
1.8246939e-08
2.6639026e-09
1.7567563e-08
2.3709307e-09
1.6958131e-08
2.1268477e-09
1.6407879e-08
1.9203303e-09
1.5908215e-08
1.7437848e-09
1.5452193e-08
1.591482e-09
1.5034152e-08
1.4589406e-09
1.4649412e-08
1.342725e-09
1.4294077e-08
1.2401079e-09
1.3964853e-08
1.1489841e-09
1.3658931e-08
1.0676651e-09
1.3373901e-08
9.9475551e-10
1.3107692e-08
9.2907322e-10
1.2858513e-08
8.6964163e-10
1.2624793e-08
8.156905e-10
1.2405152e-08
7.6655733e-10
1.219836e-08
7.2172069e-10
1.2003378e-08
6.8050144e-10
1.1819244e-08
6.4264418e-10
1.1645081e-08
6.0784607e-10
1.1480162e-08
5.7558761e-10
1.1323796e-08
5.4573795e-10
1.1175371e-08
5.1802573e-10
1.1034335e-08
4.9223838e-10
1.0900188e-08
4.6819548e-10
1.0772478e-08
4.4573391e-10
1.0650798e-08
4.2468848e-10
1.0534781e-08
4.0492746e-10
1.0424084e-08
3.8635926e-10
1.0318395e-08
3.6888382e-10
1.0217429e-08
3.524017e-10
1.0120925e-08
3.3682841e-10
1.0028644e-08
3.2209339e-10
9.9403602e-09
3.0814138e-10
9.8558708e-09
2.9489997e-10
9.7749937e-09
2.8229363e-10
9.6975565e-09
2.7028867e-10
9.6233938e-09
2.5886133e-10
9.5523525e-09
2.4796758e-10
9.4842907e-09
2.3756948e-10
9.4190754e-09
2.2763509e-10
9.3565809e-09
2.1813986e-10
9.2966859e-09
2.090673e-10
9.2392835e-09
2.0036834e-10
9.1842761e-09
1.920092e-10
9.1315609e-09
1.8400924e-10
9.0810362e-09
1.7636414e-10
9.0326075e-09
1.6904846e-10
8.986186e-09
1.620422e-10
8.9416977e-09
1.552956e-10
8.8989924e-09
1.490714e-10
8.8580399e-09
1.4295269e-10
8.8188118e-09
1.3693418e-10
8.7811522e-09
1.3145913e-10
8.7449902e-09
1.2623107e-10
8.7102446e-09
1.2128629e-10
8.6768321e-09
1.1663249e-10
8.6446718e-09
1.1226069e-10
8.6136937e-09
1.0813337e-10
8.583816e-09
1.0429096e-10
8.5549419e-09
1.0078692e-10
8.5269764e-09