/*--------------------------------*- C++ -*----------------------------------*\
| =========                 |                                                 |
| \\      /  F ield         | OpenFOAM: The Open Source CFD Toolbox           |
|  \\    /   O peration     | Version:  2206                                  |
|   \\  /    A nd           | Website:  www.openfoam.com                      |
|    \\/     M anipulation  |                                                 |
\*---------------------------------------------------------------------------*/
FoamFile
{
    version     2.0;
    format      ascii;
    arch        "LSB;label=32;scalar=64";
    class       volVectorField;
    location    "361";
    object      U;
}
// * * * * * * * * * * * * * * * * * * * * * * * * * * * * * * * * * * * * * //

dimensions      [0 1 -1 0 0 0 0];

internalField   nonuniform List<vector> 
13056
(
(1 2.2964628e-10 5.0282264e-25)
(0.99998269 6.0769809e-10 0)
(0.99995755 8.5455572e-10 0)
(0.99992964 1.0957709e-09 0)
(0.99989764 1.4308322e-09 0)
(0.99986068 1.8694372e-09 0)
(0.99981816 2.4353464e-09 0)
(0.99976929 3.1735584e-09 0)
(0.99971296 4.1452973e-09 0)
(0.99964781 5.431359e-09 0)
(0.99957207 7.1419904e-09 0)
(0.99948356 9.4350224e-09 0)
(0.99937934 1.2532965e-08 0)
(0.99925558 1.6791121e-08 0)
(0.99910652 2.2674152e-08 0)
(0.99892514 3.1231998e-08 0)
(0.99869647 4.3181109e-08 0)
(0.9984107 6.3577932e-08 0)
(0.99800603 8.9056273e-08 0)
(0.99751604 1.5656182e-07 0)
(0.99655177 2.1023192e-07 0)
(0.99565444 5.4204468e-07 0)
(0.99202617 1.661373e-07 -5.3626164e-21)
(0.99423347 0.00012380675 8.9303057e-18)
(0.0031563209 0.00012426587 0)
(0.0012363927 7.4987062e-08 -1.2502359e-20)
(0.00087885414 4.8448003e-08 4.1421541e-18)
(0.00072128512 6.1393041e-09 0)
(0.00063025936 3.7565541e-09 0)
(0.00056786462 2.6393716e-09 0)
(0.0005214638 1.996358e-09 0)
(0.00048481038 1.5845868e-09 0)
(0.00045490772 1.2945131e-09 0)
(0.00042990223 1.0819059e-09 0)
(0.00040855108 9.2081858e-10 0)
(0.00039003569 7.9458254e-10 0)
(0.00037378308 6.9307971e-10 0)
(0.00035937629 6.1003084e-10 0)
(0.0003464949 5.4101097e-10 0)
(0.0003348967 4.827694e-10 -1.6130826e-25)
(0.00032439168 4.3315084e-10 0)
(0.00031482527 3.9046779e-10 0)
(0.00030607295 3.5345402e-10 0)
(0.00029803189 3.2111503e-10 0)
(0.00029061706 2.9266893e-10 0)
(0.00028375702 2.6750948e-10 0)
(0.00027739095 2.4514942e-10 0)
(0.00027146684 2.251873e-10 0)
(0.00026593993 2.0728511e-10 0)
(0.0002607718 1.9116394e-10 0)
(0.00025592894 1.7660148e-10 0)
(0.00025138179 1.6340689e-10 0)
(0.00024710446 1.5142672e-10 0)
(0.00024307335 5.3114762e-10 -4.5368604e-20)
(0.00023927054 1.2928926e-10 2.246058e-25)
(0.00023567516 1.213498e-10 0)
(0.00023227285 1.1293834e-10 0)
(0.00022904881 1.0520635e-10 0)
(0.00022599008 9.8078308e-11 0)
(0.00022308502 9.1494314e-11 0)
(0.00022032312 8.5402959e-11 0)
(0.00021769482 7.9758244e-11 0)
(0.00021519147 7.4515713e-11 0)
(0.00021280541 6.963889e-11 0)
(0.00021052952 6.5099889e-11 0)
(0.0002083572 6.0870347e-11 0)
(0.00020628248 5.6923351e-11 0)
(0.00020429988 5.3235667e-11 0)
(0.00020240442 4.9787252e-11 0)
(0.00020059144 4.6561376e-11 0)
(0.00019885658 4.3539378e-11 0)
(0.00019719602 4.070303e-11 0)
(0.00019560628 3.8041222e-11 0)
(0.00019408392 3.5544596e-11 0)
(0.00019262573 3.3201202e-11 0)
(0.00019122878 3.1000514e-11 0)
(0.00018989028 2.8933331e-11 0)
(0.00018860769 2.6991768e-11 0)
(0.00018737851 2.5169283e-11 0)
(0.00018620036 2.3455486e-11 0)
(0.00018507133 2.1842516e-11 0)
(0.00018398942 2.0329097e-11 0)
(0.00018295249 1.8910828e-11 0)
(0.0001819586 1.7581192e-11 0)
(0.0001810059 1.6335184e-11 0)
(0.00018009269 1.516101e-11 0)
(0.00017921767 1.4089948e-11 0)
(0.00017837607 1.3069756e-11 0)
(0.0001775716 1.2095601e-11 0)
(0.00017679924 1.1215091e-11 0)
(0.00017605782 1.0391765e-11 0)
(0.00017534566 9.6270494e-12 0)
(0.00017466118 8.9183518e-12 0)
(0.00017400261 8.2619839e-12 0)
(0.00017336848 7.6524379e-12 0)
(0.00017275745 7.090264e-12 0)
(0.00017216756 6.5761083e-12 0)
(0.00017159687 6.1062532e-12 0)
(0.00017104352 5.677755e-12 0)
(0.00017050556 5.2843437e-12 0)
(0.00016998174 4.9215032e-12 0)
(0.00016947054 4.5910754e-12 0)
(0.00016896988 4.2932211e-12 0)
(0.00016847759 4.0252145e-12 0)
(0.00016799154 3.7804994e-12 0)
(0.00016751048 3.5546513e-12 0)
(0.0001670329 3.3495859e-12 0)
(0.00016655656 3.1654685e-12 0)
(0.00016607923 2.9980892e-12 0)
(0.00016559917 2.8427076e-12 0)
(0.00016511505 2.7011951e-12 0)
(0.00016462395 2.5738737e-12 0)
(0.00016412373 2.4539736e-12 0)
(0.00016362465 2.3449564e-12 0)
(0.00016314048 2.2553512e-12 0)
(0.00016267309 2.1800425e-12 0)
(0.00016222086 2.1088237e-12 0)
(0.00016178353 2.0411595e-12 0)
(0.00016135978 1.9816185e-12 0)
(0.00016094754 1.9303344e-12 0)
(0.00016054541 1.8831655e-12 0)
(0.000160153 1.8387367e-12 0)
(0.00015976953 1.7992471e-12 0)
(0.00015939378 1.7658162e-12 0)
(0.00015902443 1.737874e-12 0)
(0.00015866046 1.7125275e-12 0)
(0.00015830177 1.6904808e-12 0)
(0.00015794706 1.6744599e-12 0)
(0.00015759515 1.6717902e-12 0)
(0.00015724159 1.6723583e-12 0)
(0.00015688955 1.728441e-12 0)
(0.00015651224 1.7286697e-12 0)
(0.00015616058 2.0280511e-12 0)
(0.00015565592 7.9057283e-12 0)
(0.00015527578 2.1810926e-12 4.0225411e-24)
(0.00015471494 5.0972996e-12 0)
(1 6.9529996e-10 0)
(0.99998255 1.8411888e-09 0)
(0.99995719 2.5894945e-09 0)
(0.99992903 3.3204901e-09 0)
(0.99989676 4.3357787e-09 0)
(0.99985948 5.6647419e-09 0)
(0.99981658 7.3793111e-09 0)
(0.99976729 9.6157696e-09 0)
(0.99971048 1.2559538e-08 0)
(0.99964477 1.6455281e-08 0)
(0.99956841 2.1636818e-08 0)
(0.99947916 2.8582024e-08 0)
(0.99937409 3.7964554e-08 0)
(0.99924933 5.0860081e-08 0)
(0.99909907 6.8675085e-08 0)
(0.99891627 9.4588071e-08 0)
(0.99868584 1.3076616e-07 0)
(0.99839791 1.9251667e-07 0)
(0.99799024 2.6963905e-07 0)
(0.99749673 4.7396348e-07 0)
(0.99652572 6.3641242e-07 0)
(0.99562216 1.6406613e-06 0)
(0.99196974 5.0015333e-07 1.9909075e-20)
(0.994186 0.0003720978 -7.8032941e-21)
(0.0094798929 0.00037397158 0)
(0.003727381 1.2254163e-06 0)
(0.0026496547 2.729848e-07 3.6903541e-22)
(0.0021746469 1.2866986e-07 0)
(0.0019001985 7.8694009e-08 0)
(0.0017120742 5.529114e-08 0)
(0.001572172 4.1813352e-08 0)
(0.0014616615 3.3185713e-08 0)
(0.0013715048 2.7108451e-08 0)
(0.0012961133 2.2655584e-08 0)
(0.0012317399 1.9282145e-08 0)
(0.0011759167 1.6637771e-08 0)
(0.0011269158 1.4512163e-08 0)
(0.0010834801 1.2772527e-08 0)
(0.0010446434 1.1327144e-08 -6.0698611e-25)
(0.0010096758 1.0107994e-08 -1.9642632e-25)
(0.00097800393 9.0689558e-09 0)
(0.00094916199 8.175594e-09 0)
(0.0009227745 7.4008311e-09 0)
(0.00089853142 6.7239811e-09 0)
(0.00087617643 6.1286495e-09 0)
(0.00085549407 5.6021288e-09 0)
(0.00083630103 5.134214e-09 0)
(0.00081844044 4.7164954e-09 0)
(0.0008017774 4.3418957e-09 0)
(0.00078619605 4.0045741e-09 0)
(0.00077159537 3.6998685e-09 0)
(0.00075788621 3.4237856e-09 0)
(0.00074499055 3.173127e-09 0)
(0.00073283723 2.9870807e-09 0)
(0.00072137217 2.7352028e-09 0)
(0.00071053254 2.5437607e-09 0)
(0.00070027498 2.3677683e-09 0)
(0.00069055488 2.2059711e-09 0)
(0.00068133319 2.0568069e-09 0)
(0.00067257479 1.9190216e-09 0)
(0.00066424801 1.79154e-09 0)
(0.00065632399 1.6733988e-09 0)
(0.00064877671 1.5636691e-09 0)
(0.00064158305 1.4615879e-09 0)
(0.00063472156 1.3665696e-09 0)
(0.0006281723 1.278022e-09 0)
(0.00062191728 1.1953819e-09 0)
(0.00061594001 1.1181626e-09 0)
(0.00061022546 1.0459456e-09 0)
(0.00060475957 9.7837976e-10 0)
(0.00059952922 9.1507505e-10 0)
(0.00059452288 8.5565164e-10 0)
(0.00058973004 7.9987535e-10 0)
(0.00058514035 7.4754902e-10 0)
(0.00058074411 6.9842414e-10 0)
(0.0005765325 6.5228136e-10 0)
(0.00057249715 6.0892743e-10 0)
(0.00056863033 5.6819713e-10 0)
(0.00056492453 5.2995251e-10 0)
(0.00056137261 4.9397914e-10 0)
(0.00055796875 4.6011307e-10 0)
(0.00055470698 4.2832403e-10 0)
(0.0005515808 3.9852206e-10 0)
(0.00054858439 3.705722e-10 0)
(0.00054571214 3.4435736e-10 0)
(0.00054295894 3.1971021e-10 0)
(0.0005403209 2.9708541e-10 -8.1640425e-26)
(0.00053778361 2.7557632e-10 -7.4612939e-26)
(0.00053535826 2.5514865e-10 0)
(0.00053302972 2.3656125e-10 0)
(0.00053079446 2.1919333e-10 0)
(0.00052864741 2.0304976e-10 0)
(0.00052658381 1.8808247e-10 0)
(0.00052459832 1.7421593e-10 0)
(0.00052268651 1.6133452e-10 0)
(0.00052084433 1.4944484e-10 0)
(0.00051906589 1.3856318e-10 0)
(0.00051734534 1.2861345e-10 0)
(0.00051567704 1.195321e-10 0)
(0.00051405515 1.1119496e-10 0)
(0.00051247589 1.0350683e-10 0)
(0.00051093466 9.6501194e-11 0)
(0.00050942523 9.0185108e-11 0)
(0.000507941 8.4501411e-11 0)
(0.00050647561 7.9316729e-11 0)
(0.00050502525 7.4536819e-11 0)
(0.00050358536 7.0194812e-11 0)
(0.00050214924 6.6297488e-11 0)
(0.00050071009 6.2760377e-11 0)
(0.00049926274 5.9481976e-11 0)
(0.00049780314 5.649602e-11 0)
(0.0004963225 5.3807995e-11 0)
(0.00049481436 5.1281927e-11 0)
(0.00049330966 4.8988513e-11 0)
(0.00049184989 4.7102505e-11 0)
(0.00049044075 4.5521342e-11 0)
(0.00048907727 4.4033719e-11 0)
(0.00048775874 4.2623599e-11 0)
(0.00048648116 4.1381681e-11 0)
(0.00048523828 4.0311383e-11 0)
(0.00048402589 3.9330016e-11 0)
(0.00048284279 3.8406296e-11 0)
(0.00048168667 3.7581748e-11 0)
(0.0004805538 3.6882903e-11 0)
(0.00047944025 3.6299809e-11 0)
(0.0004783429 3.5772579e-11 0)
(0.00047726147 3.5313671e-11 0)
(0.00047619208 3.4978265e-11 0)
(0.00047513109 3.492111e-11 0)
(0.00047406518 3.4927458e-11 0)
(0.00047300383 3.6101848e-11 0)
(0.00047186637 3.6087714e-11 0)
(0.00047080612 4.2378757e-11 0)
(0.00046928503 4.4468446e-11 0)
(0.00046813892 4.640336e-11 -6.2225684e-24)
(0.00046644803 2.8442463e-11 1.3500746e-24)
(1 1.1754148e-09 0)
(0.99998239 3.1128735e-09 0)
(0.99995679 4.378646e-09 0)
(0.99992836 5.6148049e-09 0)
(0.99989578 7.3315474e-09 0)
(0.99985813 9.5785574e-09 0)
(0.99981483 1.2477359e-08 0)
(0.99976506 1.6258283e-08 0)
(0.99970772 2.12347e-08 0)
(0.9996414 2.7820062e-08 0)
(0.99956432 3.6578435e-08 0)
(0.99947426 4.8317266e-08 0)
(0.99936824 6.417471e-08 0)
(0.99924237 8.5968117e-08 0)
(0.99909079 1.1607332e-07 0)
(0.9989064 1.5986014e-07 0)
(0.99867401 2.2098695e-07 0)
(0.99838368 3.2531392e-07 0)
(0.99797269 4.5559254e-07 0)
(0.99747526 8.0072467e-07 0)
(0.99649678 1.0751272e-06 0)
(0.99558631 2.7713079e-06 0)
(0.99190718 8.4730022e-07 -1.0547898e-20)
(0.9941333 0.00062416119 6.8080306e-55)
(0.015907242 0.00062849087 -6.8052161e-55)
(0.0062736763 3.436598e-06 0)
(0.0044599311 7.7979508e-07 -1.9762616e-22)
(0.0036604566 3.735502e-07 0)
(0.0031984803 2.2847548e-07 0)
(0.0028818125 1.6053119e-07 0)
(0.0026463154 1.2139894e-07 0)
(0.0024602966 9.6349352e-08 0)
(0.002308539 7.8705235e-08 0)
(0.0021816352 6.5776857e-08 0)
(0.0020732785 5.5982413e-08 0)
(0.0019793141 4.8304836e-08 0)
(0.0018968337 4.2133389e-08 0)
(0.0018237212 3.708268e-08 0)
(0.0017583498 3.2886215e-08 0)
(0.0016994912 2.9346533e-08 0)
(0.0016461803 2.6329882e-08 0)
(0.0015976328 2.3736113e-08 0)
(0.0015532167 2.1486696e-08 0)
(0.0015124103 1.9521554e-08 0)
(0.0014747819 1.7793091e-08 0)
(0.001439969 1.6264411e-08 0)
(0.001407663 1.4905886e-08 0)
(0.0013775998 1.3693097e-08 0)
(0.0013495523 1.2605499e-08 0)
(0.0013233256 1.1626135e-08 0)
(0.0012987496 1.0741466e-08 0)
(0.0012756742 9.9398993e-09 0)
(0.0012539681 9.2121438e-09 0)
(0.0012335116 8.5338691e-09 -3.6206235e-25)
(0.0012142135 7.9399974e-09 0)
(0.0011959682 7.3848793e-09 0)
(0.0011787027 6.8739156e-09 0)
(0.0011623418 6.4041641e-09 0)
(0.0011468198 5.971091e-09 0)
(0.0011320777 5.5710555e-09 0)
(0.0011180621 5.2009357e-09 0)
(0.0011047244 4.8579345e-09 0)
(0.0010920208 4.5393558e-09 0)
(0.0010799125 4.2429838e-09 0)
(0.0010683633 3.9671179e-09 0)
(0.0010573396 3.7100395e-09 0)
(0.0010468112 3.4701129e-09 0)
(0.0010367504 3.2459256e-09 0)
(0.0010271317 3.0362619e-09 0)
(0.0010179316 2.8401026e-09 0)
(0.001009128 2.6563154e-09 0)
(0.0010007014 2.4837978e-09 0)
(0.00099263422 2.3218696e-09 0)
(0.00098490895 2.1699582e-09 0)
(0.00097750931 2.0273424e-09 0)
(0.00097042044 1.8933851e-09 0)
(0.00096362825 1.7675253e-09 0)
(0.00095711975 1.6492834e-09 0)
(0.00095088226 1.5382587e-09 0)
(0.00094490379 1.4338289e-09 0)
(0.00093917454 1.335518e-09 0)
(0.00093368444 1.2432376e-09 0)
(0.00092842257 1.1567268e-09 0)
(0.00092337913 1.0755937e-09 0)
(0.00091854468 9.9949953e-10 0)
(0.00091391061 9.2795025e-10 0)
(0.00090947036 8.6228617e-10 0)
(0.00090519972 7.9985635e-10 0)
(0.00090111746 7.405545e-10 0)
(0.00089719816 6.8660744e-10 0)
(0.00089343585 6.3619844e-10 0)
(0.00088982203 5.8934448e-10 0)
(0.00088634866 5.459051e-10 0)
(0.00088300675 5.0566088e-10 0)
(0.00087978884 4.6827661e-10 0)
(0.00087668814 4.3377152e-10 0)
(0.00087369472 4.0219232e-10 0)
(0.00087079872 3.7331828e-10 0)
(0.00086799067 3.4696485e-10 0)
(0.00086526071 3.2277113e-10 0)
(0.00086260251 3.0046097e-10 0)
(0.00086000831 2.8013155e-10 0)
(0.00085746763 2.6180311e-10 0)
(0.00085496935 2.4530959e-10 0)
(0.00085250279 2.3026371e-10 0)
(0.0008500615 2.1639214e-10 0)
(0.00084763783 2.0379137e-10 0)
(0.0008452205 1.9248079e-10 0)
(0.00084279808 1.8221492e-10 0)
(0.00084036183 1.7269954e-10 0)
(0.00083790497 1.6403297e-10 0)
(0.00083541268 1.5623095e-10 0)
(0.00083287412 1.4889892e-10 0)
(0.00083034132 1.4224188e-10 0)
(0.00082788414 1.3676692e-10 0)
(0.0008255122 1.3217633e-10 0)
(0.00082321712 1.2785679e-10 0)
(0.0008209977 1.2376211e-10 0)
(0.0008188472 1.2015577e-10 0)
(0.00081675512 1.1704774e-10 0)
(0.00081471437 1.1419771e-10 0)
(0.00081272293 1.1151515e-10 0)
(0.0008107769 1.0912087e-10 0)
(0.00080887 1.0709162e-10 0)
(0.00080699563 1.0539819e-10 0)
(0.00080514853 1.0386688e-10 0)
(0.00080332823 1.0253407e-10 0)
(0.00080152821 1.0155981e-10 0)
(0.00079974232 1.0139344e-10 0)
(0.00079794818 1.0141125e-10 0)
(0.00079616172 1.0481989e-10 0)
(0.00079424723 1.0477569e-10 0)
(0.00079246258 1.2304193e-10 0)
(0.00078990276 1.2701767e-10 0)
(0.00078797357 1.3490396e-10 0)
(0.0007851274 8.1015098e-11 0)
(1 1.67796e-09 1.0776164e-24)
(0.99998222 4.4446753e-09 0)
(0.99995634 6.2529968e-09 0)
(0.99992761 8.0184736e-09 0)
(0.99989467 1.0470037e-08 0)
(0.99985663 1.3678644e-08 0)
(0.99981286 1.7817669e-08 0)
(0.99976257 2.3215858e-08 0)
(0.99970463 3.0320465e-08 0)
(0.99963761 3.9721513e-08 0)
(0.99955975 5.2223889e-08 0)
(0.99946878 6.8979709e-08 0)
(0.99936169 9.1612829e-08 0)
(0.99923457 1.2271608e-07 0)
(0.99908152 1.6567846e-07 0)
(0.99889537 2.2816073e-07 0)
(0.99866079 3.1537756e-07 0)
(0.99836778 4.6422171e-07 0)
(0.99795307 6.5006068e-07 0)
(0.99745127 1.142349e-06 0)
(0.99646448 1.5337527e-06 0)
(0.99554631 3.9528587e-06 0)
(0.99183746 1.2118681e-06 0)
(0.99407446 0.00088369966 -3.5518361e-55)
(0.022531039 0.00089170551 3.5503721e-55)
(0.0089131935 7.0894584e-06 0)
(0.0063366538 1.6076658e-06 0)
(0.0052008544 7.6942989e-07 0)
(0.0045444496 4.7063083e-07 0)
(0.0040945076 3.3067591e-07 0)
(0.0037598967 2.5006609e-07 0)
(0.0034955927 1.9846568e-07 0)
(0.0032799687 1.6212123e-07 0)
(0.0030996585 1.3549027e-07 0)
(0.0029457015 1.1531479e-07 0)
(0.0028121941 9.9499948e-08 0)
(0.0026950039 8.6787596e-08 0)
(0.002591124 7.6383901e-08 0)
(0.002498243 6.7739778e-08 0)
(0.0024146159 6.0448541e-08 -1.9656727e-25)
(0.0023388709 5.4234752e-08 0)
(0.002269894 4.8892003e-08 0)
(0.0022067873 4.4258575e-08 0)
(0.0021488092 4.0210715e-08 0)
(0.0020953466 3.6650381e-08 0)
(0.0020458843 3.3501569e-08 0)
(0.0019999838 3.0703248e-08 0)
(0.00195727 2.8205122e-08 0)
(0.0019174203 2.5964869e-08 0)
(0.0018801574 2.394756e-08 0)
(0.0018452399 2.2125307e-08 0)
(0.0018124546 2.047423e-08 0)
(0.0017816147 1.8975183e-08 0)
(0.0017525503 1.7596131e-08 -3.9880465e-25)
(0.0017251317 1.6354583e-08 0)
(0.001699209 1.5211368e-08 0)
(0.0016746783 1.4158888e-08 0)
(0.001651433 1.319129e-08 0)
(0.0016293797 1.2299243e-08 0)
(0.0016084343 1.1475247e-08 0)
(0.0015885212 1.0712872e-08 0)
(0.0015695713 1.0006355e-08 0)
(0.0015515224 9.350145e-09 0)
(0.0015343192 8.7396767e-09 0)
(0.0015179104 8.1714466e-09 0)
(0.0015022483 7.641915e-09 0)
(0.0014872899 7.1477132e-09 0)
(0.0014729957 6.685931e-09 0)
(0.0014593299 6.2540649e-09 0)
(0.0014462587 5.850015e-09 0)
(0.0014337509 5.4714496e-09 0)
(0.0014217788 5.1160979e-09 0)
(0.0014103173 4.7825581e-09 0)
(0.0013993416 4.4696511e-09 0)
(0.0013888285 4.1758911e-09 0)
(0.001378757 3.899966e-09 0)
(0.0013691071 3.6407203e-09 0)
(0.0013598602 3.3971662e-09 0)
(0.0013509983 3.1684781e-09 0)
(0.0013425045 2.9533744e-09 0)
(0.0013343647 2.750875e-09 0)
(0.0013265648 2.5607971e-09 0)
(0.0013190891 2.3826032e-09 0)
(0.0013119237 2.2154864e-09 0)
(0.0013050553 2.058749e-09 0)
(0.0012984715 1.9113739e-09 0)
(0.0012921631 1.7761189e-09 4.7070183e-26)
(0.0012860957 1.6475273e-09 4.3018807e-26)
(0.001280296 1.5253805e-09 0)
(0.0012747277 1.4142614e-09 0)
(0.0012693825 1.3104304e-09 0)
(0.0012642483 1.2139221e-09 0)
(0.0012593135 1.124447e-09 0)
(0.0012545656 1.0415533e-09 0)
(0.0012499938 9.6455098e-10 0)
(0.0012455885 8.9347907e-10 0)
(0.0012413356 8.2843349e-10 0)
(0.0012372212 7.6895991e-10 0)
(0.0012332316 7.1467803e-10 0)
(0.001229353 6.6484479e-10 0)
(0.0012255763 6.1889156e-10 0)
(0.0012218905 5.7701794e-10 0)
(0.0012182808 5.3926566e-10 0)
(0.0012147313 5.0529264e-10 0)
(0.0012112268 4.7430151e-10 0)
(0.0012077582 4.4572938e-10 0)
(0.0012043146 4.1977456e-10 0)
(0.00120088 3.9647704e-10 0)
(0.0011974382 3.7533129e-10 0)
(0.0011939767 3.5573162e-10 0)
(0.0011904859 3.3788025e-10 0)
(0.0011869448 3.218094e-10 0)
(0.0011833379 3.0670711e-10 0)
(0.0011797392 2.9299519e-10 0)
(0.0011762479 2.8171739e-10 0)
(0.0011728777 2.7226104e-10 0)
(0.0011696168 2.633637e-10 0)
(0.0011664633 2.5492908e-10 0)
(0.0011634078 2.4750045e-10 0)
(0.0011604353 2.4109812e-10 0)
(0.0011575357 2.3522733e-10 0)
(0.0011547062 2.2970168e-10 0)
(0.0011519412 2.2476973e-10 0)
(0.0011492318 2.205896e-10 0)
(0.0011465686 2.1710103e-10 0)
(0.0011439442 2.1394647e-10 0)
(0.0011413579 2.1120081e-10 0)
(0.0011388004 2.0919346e-10 0)
(0.001136263 2.0884984e-10 0)
(0.0011337139 2.0888532e-10 0)
(0.0011311756 2.1590376e-10 0)
(0.0011284557 2.1580992e-10 0)
(0.00112592 2.5342822e-10 0)
(0.0011222837 2.618411e-10 0)
(0.0011195426 2.780532e-10 0)
(0.0011154986 1.6677291e-10 0)
(1 2.2112754e-09 0)
(0.99998202 5.8587765e-09 0)
(0.99995584 8.2439048e-09 0)
(0.99992676 1.0571733e-08 0)
(0.99989343 1.3803768e-08 0)
(0.99985493 1.8033578e-08 0)
(0.99981065 2.3489489e-08 0)
(0.99975977 3.0604652e-08 0)
(0.99970115 3.9968345e-08 0)
(0.99963336 5.2357851e-08 0)
(0.99955461 6.8833407e-08 0)
(0.99946261 9.0912542e-08 0)
(0.99935433 1.2073395e-07 0)
(0.99922582 1.6171244e-07 0)
(0.99907111 2.1831041e-07 0)
(0.99888297 3.0061662e-07 0)
(0.99864594 4.1549195e-07 0)
(0.99834992 6.1152142e-07 0)
(0.99793105 8.5622916e-07 0)
(0.99742436 1.5044126e-06 0)
(0.99642827 2.0197638e-06 0)
(0.99550147 5.2045129e-06 0)
(0.99175942 1.6000777e-06 0)
(0.99400849 0.0011543861 0)
(0.029445037 0.0011673694 0)
(0.011685226 1.2336125e-05 0)
(0.0083077821 2.7893968e-06 0)
(0.0068187961 1.3344376e-06 0)
(0.0059581629 8.1626649e-07 0)
(0.0053682285 5.735297e-07 0)
(0.0049295065 4.337162e-07 0)
(0.0045829731 3.4421763e-07 0)
(0.0043002651 2.8118183e-07 0)
(0.0040638578 2.3499272e-07 0)
(0.0038620037 1.9999994e-07 0)
(0.0036869617 1.7257052e-07 0)
(0.0035333138 1.5052218e-07 0)
(0.0033971175 1.3247813e-07 -7.323255e-26)
(0.0032753415 1.1748579e-07 0)
(0.0031656991 1.0483988e-07 0)
(0.0030663907 9.4062844e-08 0)
(0.0029759562 8.4796461e-08 0)
(0.002893218 7.6760335e-08 0)
(0.002817204 6.9739817e-08 0)
(0.0027471103 6.3564866e-08 0)
(0.0026822614 5.8103653e-08 0)
(0.0026220824 5.3250327e-08 0)
(0.0025660815 4.8917654e-08 0)
(0.0025138356 4.5032233e-08 0)
(0.0024649814 4.1533482e-08 0)
(0.0024192022 3.8373032e-08 0)
(0.0023762184 3.5509465e-08 0)
(0.0023357853 3.290956e-08 0)
(0.0022976801 3.0532782e-08 0)
(0.0022617325 2.8365377e-08 4.494218e-25)
(0.0022277464 2.6381749e-08 0)
(0.0021955853 2.4556382e-08 0)
(0.0021651094 2.287822e-08 0)
(0.0021361963 2.133109e-08 0)
(0.0021087358 1.9901986e-08 0)
(0.0020826288 1.8579755e-08 0)
(0.0020577845 1.7354402e-08 0)
(0.0020341216 1.62163e-08 0)
(0.0020115675 1.5157531e-08 0)
(0.0019900549 1.4172018e-08 0)
(0.0019695213 1.3253622e-08 0)
(0.0019499103 1.2396501e-08 0)
(0.0019311703 1.1595607e-08 0)
(0.001913254 1.0846599e-08 0)
(0.0018961174 1.0145835e-08 0)
(0.0018797193 9.4892692e-09 0)
(0.0018640236 8.8729659e-09 0)
(0.0018489974 8.2944925e-09 0)
(0.0018346081 7.7518034e-09 0)
(0.0018208254 7.2423225e-09 0)
(0.0018076216 6.763774e-09 0)
(0.0017949705 6.3141538e-09 0)
(0.0017828478 5.8917487e-09 0)
(0.0017712299 5.4951265e-09 0)
(0.0017600945 5.1220653e-09 0)
(0.0017494234 4.7708652e-09 0)
(0.0017391977 4.4412083e-09 0)
(0.0017293972 4.1321624e-09 0)
(0.0017200035 3.8423283e-09 0)
(0.0017109991 3.5704966e-09 0)
(0.0017023679 3.3149021e-09 0)
(0.0016940978 3.0803271e-09 0)
(0.0016861436 2.8573107e-09 0)
(0.0016785402 2.6454719e-09 0)
(0.0016712404 2.4527579e-09 0)
(0.0016642329 2.2726844e-09 0)
(0.001657502 2.1053113e-09 0)
(0.0016510327 1.950136e-09 0)
(0.0016448082 1.806375e-09 0)
(0.0016388147 1.672832e-09 0)
(0.0016330394 1.5495744e-09 0)
(0.0016274639 1.4367678e-09 0)
(0.0016220698 1.3336246e-09 0)
(0.0016168394 1.2394853e-09 0)
(0.0016117545 1.1530613e-09 0)
(0.0016068032 1.0733668e-09 0)
(0.001601971 1.0007471e-09 0)
(0.0015972385 9.3527452e-10 0)
(0.0015925848 8.7635582e-10 0)
(0.0015879902 8.2260856e-10 0)
(0.0015834427 7.7305666e-10 0)
(0.0015789279 7.2804358e-10 0)
(0.0015744248 6.8763856e-10 0)
(0.0015699123 6.5096509e-10 0)
(0.0015653739 6.1697318e-10 0)
(0.0015607971 5.8601325e-10 0)
(0.0015561543 5.5814093e-10 0)
(0.0015514252 5.3194899e-10 0)
(0.0015467068 5.0816836e-10 0)
(0.0015421293 4.8860816e-10 0)
(0.0015377106 4.7220654e-10 0)
(0.001533435 4.5677482e-10 0)
(0.0015293005 4.4214591e-10 0)
(0.0015252943 4.2926144e-10 0)
(0.001521397 4.1815678e-10 0)
(0.0015175953 4.0797412e-10 0)
(0.0015138854 3.983903e-10 0)
(0.0015102602 3.8983616e-10 0)
(0.0015067079 3.8258581e-10 0)
(0.0015032161 3.7653461e-10 0)
(0.0014997753 3.710628e-10 0)
(0.0014963843 3.6630023e-10 0)
(0.0014930311 3.6281781e-10 0)
(0.0014897043 3.6222021e-10 0)
(0.0014863622 3.622801e-10 0)
(0.0014830344 3.7444714e-10 0)
(0.0014794684 3.742825e-10 0)
(0.0014761439 4.3950734e-10 0)
(0.0014713774 4.542925e-10 0)
(0.0014677835 4.8242531e-10 -8.0160545e-24)
(0.0014624814 2.891248e-10 1.7392123e-24)
(1 2.7846247e-09 0)
(0.9999818 7.3798874e-09 0)
(0.99995527 1.0386364e-08 0)
(0.99992581 1.3319495e-08 0)
(0.99989204 1.7391359e-08 0)
(0.99985302 2.2719876e-08 0)
(0.99980816 2.9592364e-08 0)
(0.9997566 3.8554167e-08 0)
(0.99969723 5.0347179e-08 0)
(0.99962857 6.5949848e-08 0)
(0.99954881 8.6696655e-08 0)
(0.99945566 1.1449754e-07 0)
(0.99934603 1.5204394e-07 0)
(0.99921594 2.0363311e-07 0)
(0.99905936 2.7487932e-07 0)
(0.99886899 3.7847759e-07 0)
(0.99862919 5.2305213e-07 0)
(0.99832979 7.6973847e-07 0)
(0.99790624 1.0776205e-06 0)
(0.99739405 1.8930709e-06 0)
(0.9963875 2.541411e-06 0)
(0.99545101 6.5474017e-06 0)
(0.99167173 2.0190944e-06 0)
(0.99393424 0.0014399434 0)
(0.036745175 0.001459487 0)
(0.014631026 1.9337127e-05 0)
(0.010402682 4.3917781e-06 0)
(0.0085383951 2.1010969e-06 0)
(0.0074606872 1.2852996e-06 0)
(0.0067219541 9.0308756e-07 0)
(0.0061725707 6.8293198e-07 0)
(0.0057386372 5.4200299e-07 0)
(0.005384627 4.4274695e-07 0)
(0.0050885953 3.7001704e-07 0)
(0.0048358328 3.1491674e-07 0)
(0.0046166455 2.7172614e-07 0)
(0.0044242483 2.3700872e-07 0)
(0.0042537045 2.0859678e-07 1.0503857e-25)
(0.0041012176 1.8498985e-07 0)
(0.0039639252 1.650776e-07 0)
(0.0038395727 1.4810834e-07 0)
(0.0037263323 1.335176e-07 0)
(0.0036227293 1.2086405e-07 0)
(0.0035275463 1.0980967e-07 -7.4482675e-35)
(0.0034397768 1.0008672e-07 0)
(0.0033585747 9.1487625e-08 0)
(0.0032832204 8.3845696e-08 0)
(0.0032130978 7.7023579e-08 0)
(0.0031476772 7.0905701e-08 0)
(0.0030865037 6.5396669e-08 0)
(0.0030291807 6.042032e-08 0)
(0.0029753581 5.5911436e-08 0)
(0.0029247295 5.1817684e-08 0)
(0.0028770159 4.8078218e-08 0)
(0.0028320038 4.4661651e-08 5.0765601e-25)
(0.0027894481 4.1539215e-08 0)
(0.0027491776 3.8665076e-08 0)
(0.0027110172 3.6022701e-08 0)
(0.0026748138 3.3586646e-08 0)
(0.0026404295 3.1336431e-08 0)
(0.0026077398 2.9254493e-08 0)
(0.0025766314 2.7325099e-08 0)
(0.0025470023 2.5533087e-08 0)
(0.0025187616 2.3865992e-08 0)
(0.002491825 2.2314243e-08 0)
(0.0024661144 2.0868174e-08 0)
(0.0024415591 1.9518587e-08 0)
(0.0024180943 1.8257535e-08 0)
(0.0023956611 1.707818e-08 0)
(0.0023742041 1.5974788e-08 0)
(0.002353672 1.4940991e-08 0)
(0.0023340194 1.3970591e-08 0)
(0.002315205 1.3059758e-08 0)
(0.0022971883 1.2205269e-08 0)
(0.0022799311 1.1403069e-08 0)
(0.0022633987 1.0649575e-08 0)
(0.0022475584 9.9416306e-09 0)
(0.0022323799 9.2765392e-09 0)
(0.0022178334 8.6520448e-09 0)
(0.0022038911 8.0646501e-09 0)
(0.0021905301 7.5116784e-09 0)
(0.0021777269 6.9926277e-09 0)
(0.002165456 6.5060304e-09 0)
(0.0021536946 6.0496837e-09 0)
(0.0021424206 5.6216849e-09 0)
(0.0021316139 5.2192493e-09 0)
(0.0021212593 4.8499138e-09 0)
(0.0021113001 4.498779e-09 0)
(0.0021017803 4.16524e-09 0)
(0.0020926406 3.8618164e-09 0)
(0.0020838669 3.5782963e-09 0)
(0.0020754395 3.3147735e-09 0)
(0.0020673395 3.0704566e-09 0)
(0.0020595461 2.8441116e-09 0)
(0.0020520418 2.6338559e-09 0)
(0.0020448108 2.439795e-09 0)
(0.0020378298 2.2621884e-09 0)
(0.002031076 2.0997967e-09 0)
(0.0020245271 1.9515811e-09 0)
(0.0020181603 1.8155132e-09 0)
(0.0020119607 1.6900409e-09 0)
(0.0020059102 1.5757073e-09 0)
(0.0019999845 1.4726258e-09 0)
(0.0019941575 1.3798622e-09 0)
(0.0019884043 1.2952404e-09 0)
(0.00198271 1.217224e-09 0)
(0.0019770567 1.1463533e-09 0)
(0.0019714181 1.082737e-09 0)
(0.0019657675 1.0249951e-09 0)
(0.0019600846 9.7147538e-10 0)
(0.0019543534 9.2272925e-10 0)
(0.0019485396 8.7884406e-10 0)
(0.0019426178 8.376053e-10 0)
(0.0019367093 8.001629e-10 0)
(0.0019309772 7.6936388e-10 0)
(0.0019254439 7.4353722e-10 0)
(0.0019200899 7.1923775e-10 0)
(0.0019149125 6.9620316e-10 0)
(0.0019098958 6.7591467e-10 0)
(0.0019050155 6.5842837e-10 0)
(0.0019002549 6.4239388e-10 0)
(0.0018956093 6.2730267e-10 0)
(0.0018910697 6.1383298e-10 0)
(0.0018866214 6.0241597e-10 0)
(0.001882249 5.9288666e-10 0)
(0.0018779403 5.8426969e-10 0)
(0.0018736941 5.7676957e-10 0)
(0.0018694953 5.7128476e-10 0)
(0.0018653295 5.7034108e-10 0)
(0.0018611445 5.704331e-10 0)
(0.0018569774 5.8958125e-10 0)
(0.0018525124 5.8932159e-10 0)
(0.0018483494 6.9198487e-10 0)
(0.0018423821 7.1526038e-10 0)
(0.0018378817 7.5979638e-10 0)
(0.0018312422 4.5500812e-10 -9.92619e-25)
(1 3.4083297e-09 0)
(0.99998155 9.035645e-09 0)
(0.99995463 1.2719576e-08 0)
(0.99992473 1.6312086e-08 0)
(0.99989045 2.1298488e-08 0)
(0.99985086 2.7823252e-08 0)
(0.99980533 3.623777e-08 0)
(0.99975302 4.7209372e-08 0)
(0.99969278 6.1645885e-08 0)
(0.99962314 8.0744405e-08 0)
(0.99954225 1.0613742e-07 0)
(0.99944778 1.4016121e-07 0)
(0.99933664 1.861076e-07 0)
(0.99920477 2.4923234e-07 0)
(0.99904608 3.3640009e-07 0)
(0.99885318 4.6313621e-07 0)
(0.99861026 6.3997525e-07 0)
(0.99830703 9.416818e-07 0)
(0.9978782 1.3181488e-06 0)
(0.99735981 2.3151536e-06 0)
(0.99634148 3.1078458e-06 0)
(0.99539405 8.0049094e-06 0)
(0.99157288 2.4769666e-06 0)
(0.99385047 0.0017441978 0)
(0.044530628 0.0017722199 0)
(0.01779442 2.8559637e-05 0)
(0.012652561 6.5112268e-06 0)
(0.010385282 3.1153903e-06 0)
(0.0090744149 1.9058896e-06 0)
(0.0081758564 1.339136e-06 0)
(0.0075076096 1.0126754e-06 0)
(0.0069798018 8.0369474e-07 0)
(0.0065492075 6.5651516e-07 0)
(0.0061891348 5.4866834e-07 0)
(0.0058816934 4.6696297e-07 0)
(0.0056150916 4.029183e-07 0)
(0.0053810757 3.5143815e-07 0)
(0.0051736413 3.0930843e-07 0)
(0.0049881693 2.7430341e-07 0)
(0.00482118 2.447769e-07 0)
(0.0046699294 2.1961478e-07 0)
(0.0045321948 1.9797935e-07 0)
(0.0044061825 1.7921648e-07 0)
(0.0042904117 1.6282491e-07 8.0344708e-35)
(0.0041836581 1.4840763e-07 0)
(0.0040848927 1.3565681e-07 0)
(0.00399324 1.243253e-07 0)
(0.0039079507 1.1420943e-07 0)
(0.0038283806 1.0513781e-07 0)
(0.0037539763 9.696901e-08 0)
(0.0036842554 8.9590071e-08 0)
(0.0036187921 8.2904295e-08 0)
(0.0035572138 7.6834039e-08 0)
(0.0034991811 7.1288499e-08 0)
(0.003444434 6.6222821e-08 -2.9168242e-25)
(0.0033926749 6.1593153e-08 0)
(0.0033436952 5.7331422e-08 0)
(0.0032972822 5.3413318e-08 0)
(0.0032532494 4.9801146e-08 0)
(0.0032114292 4.6464539e-08 0)
(0.0031716702 4.3377453e-08 0)
(0.0031338347 4.051656e-08 0)
(0.0030977983 3.7859378e-08 0)
(0.0030634507 3.5387426e-08 0)
(0.0030306894 3.3086507e-08 0)
(0.0029994192 3.0942291e-08 0)
(0.0029695543 2.894114e-08 0)
(0.0029410158 2.7071268e-08 0)
(0.0029137319 2.5322539e-08 0)
(0.0028876355 2.3686445e-08 0)
(0.002862664 2.2153551e-08 0)
(0.0028387623 2.0714663e-08 0)
(0.0028158801 1.9364101e-08 0)
(0.0027939681 1.8097088e-08 0)
(0.0027729799 1.6907609e-08 0)
(0.0027528734 1.5790352e-08 0)
(0.0027336086 1.4740638e-08 0)
(0.0027151487 1.3754466e-08 0)
(0.0026974576 1.2828493e-08 0)
(0.0026805013 1.1957533e-08 0)
(0.002664252 1.1137617e-08 0)
(0.0026486812 1.0367999e-08 0)
(0.0026337578 9.6465035e-09 0)
(0.002619454 8.9698639e-09 0)
(0.002605743 8.3352619e-09 0)
(0.0025926004 7.7385577e-09 0)
(0.0025800077 7.190944e-09 0)
(0.0025678958 6.6703186e-09 -1.2744436e-25)
(0.0025563184 6.1757733e-09 0)
(0.0025452031 5.7258905e-09 0)
(0.002534533 5.3055199e-09 0)
(0.002524284 4.9148015e-09 0)
(0.0025144332 4.5525602e-09 0)
(0.0025049552 4.2169666e-09 0)
(0.0024958288 3.9052306e-09 0)
(0.0024870346 3.6175077e-09 0)
(0.0024785445 3.3541807e-09 0)
(0.0024703306 3.1134128e-09 0)
(0.002462366 2.8936638e-09 0)
(0.0024546226 2.6919257e-09 0)
(0.0024470826 2.5058981e-09 0)
(0.0024397239 2.336385e-09 0)
(0.0024325167 2.1835534e-09 0)
(0.0024254296 2.0460186e-09 0)
(0.0024184322 1.9205548e-09 0)
(0.0024115064 1.8048841e-09 0)
(0.0024046303 1.6998074e-09 0)
(0.002397772 1.6054851e-09 0)
(0.0023908991 1.5198715e-09 0)
(0.0023839868 1.4405179e-09 0)
(0.0023770159 1.3682417e-09 0)
(0.0023699443 1.3031723e-09 0)
(0.0023627413 1.2420275e-09 0)
(0.0023555545 1.1865112e-09 0)
(0.0023485821 1.1408426e-09 0)
(0.0023418516 1.1025451e-09 0)
(0.0023353393 1.0665125e-09 0)