/*--------------------------------*- C++ -*----------------------------------*\
| =========                 |                                                 |
| \\      /  F ield         | OpenFOAM: The Open Source CFD Toolbox           |
|  \\    /   O peration     | Version:  2206                                  |
|   \\  /    A nd           | Website:  www.openfoam.com                      |
|    \\/     M anipulation  |                                                 |
\*---------------------------------------------------------------------------*/
FoamFile
{
    version     2.0;
    format      ascii;
    arch        "LSB;label=32;scalar=64";
    class       volVectorField;
    location    "361";
    object      wallShearStress;
}
// * * * * * * * * * * * * * * * * * * * * * * * * * * * * * * * * * * * * * //

dimensions      [0 2 -2 0 0 0 0];

internalField   uniform (0 0 0);

boundaryField
{
    bottom
    {
        type            calculated;
        value           nonuniform List<vector> 
112
(
(-0.047234664 -0.0024952822 0)
(-0.018502832 -4.3196179e-06 -2.0535189e-16)
(-0.013152206 -1.5992691e-06 -9.7815631e-18)
(-0.010794158 -4.2503621e-07 -2.2656579e-17)
(-0.0094319416 -2.5996953e-07 0)
(-0.0084981934 -1.8266011e-07 0)
(-0.007803797 -1.3814049e-07 0)
(-0.0072552721 -1.0964088e-07 0)
(-0.0068077736 -8.9565088e-08 0)
(-0.0064335621 -7.4853624e-08 -7.9773791e-18)
(-0.0061140384 -6.3708099e-08 0)
(-0.0058369523 -5.4972125e-08 -5.8583474e-18)
(-0.0055937292 -4.7949249e-08 5.1098826e-18)
(-0.005378129 -4.2202077e-08 -4.4972971e-18)
(-0.0051853568 -3.7426655e-08 0)
(-0.0050117877 -3.3398148e-08 3.5590989e-18)
(-0.0048545782 -2.9965163e-08 0)
(-0.0047114152 -2.7013058e-08 -1.4393473e-18)
(-0.0045804352 -2.4452913e-08 0)
(-0.0044600994 -2.221626e-08 -2.3675987e-18)
(-0.0043491351 -2.0248941e-08 2.1579936e-18)
(-0.0042464734 -1.8508986e-08 0)
(-0.0041512041 -1.6962678e-08 0)
(-0.0040625487 -1.558223e-08 0)
(-0.0039798376 -1.4344274e-08 -1.5289225e-18)
(-0.0039024956 -1.3229499e-08 0)
(-0.0038300214 -1.2222507e-08 0)
(-0.0037619725 -1.1310105e-08 0)
(-0.0036979615 -1.0481719e-08 0)
(-0.0036376352 -1.7519995e-08 1.0894909e-19)
(-0.0035807255 -9.009743e-09 9.6475165e-19)
(-0.00352692 -8.4018304e-09 0)
(-0.0034760038 -7.8201941e-09 0)
(-0.0034277555 -7.2855052e-09 0)
(-0.0033819811 -6.7925684e-09 7.2441121e-19)
(-0.0033385063 -6.3372375e-09 0)
(-0.003297174 -5.9159553e-09 0)
(-0.0032578411 -5.5255531e-09 -5.8942048e-19)
(-0.003220378 -5.1629636e-09 0)
(-0.0031846702 -4.8256511e-09 0)
(-0.0031506111 -4.5116769e-09 0)
(-0.0031181019 -4.2190867e-09 4.5021077e-19)
(-0.0030870534 -3.9460362e-09 -2.1055631e-19)
(-0.0030573834 -3.6909056e-09 3.9392265e-19)
(-0.0030290176 -3.4523045e-09 0)
(-0.003001886 -3.229084e-09 0)
(-0.0029759235 -3.0199531e-09 -4.8361479e-19)
(-0.0029510729 -2.8236484e-09 0)
(-0.0029272822 -2.6393992e-09 2.8184238e-19)
(-0.0029044998 -2.4665586e-09 0)
(-0.0028826777 -2.3043031e-09 2.4611398e-19)
(-0.0028617721 -2.1519152e-09 0)
(-0.0028417413 -2.0087454e-09 -1.0729669e-19)
(-0.0028225471 -1.8742428e-09 0)
(-0.0028041522 -1.7479687e-09 -1.8677597e-19)
(-0.002786521 -1.6292022e-09 0)
(-0.0027696248 -1.5174019e-09 0)
(-0.0027534339 -1.4124726e-09 0)
(-0.002737916 -1.3141127e-09 0)
(-0.0027230423 -1.221876e-09 0)
(-0.002708785 -1.1353858e-09 0)
(-0.0026951186 -1.0540144e-09 0)
(-0.0026820238 -9.7946832e-10 0)
(-0.0026694291 -9.0855197e-10 0)
(-0.0026573901 -8.410883e-10 -8.9951998e-20)
(-0.0026458316 -7.7983064e-10 0)
(-0.0026347361 -7.2257856e-10 -3.8637609e-20)
(-0.0026240785 -6.6937532e-10 0)
(-0.0026138351 -6.2005357e-10 -3.3152695e-20)
(-0.0026039795 -5.7436303e-10 6.1415548e-20)
(-0.0025944896 -5.31923e-10 5.6872862e-20)
(-0.0025853455 -4.9276217e-10 -2.6339682e-20)
(-0.0025765177 -4.5692915e-10 0)
(-0.0025679772 -4.2416824e-10 0)
(-0.0025596962 -3.9427428e-10 4.2126838e-20)
(-0.0025516455 -3.6683169e-10 -3.9185343e-20)
(-0.0025438065 -3.4152307e-10 0)
(-0.0025361563 -3.1846628e-10 0)
(-0.0025286638 -2.9767881e-10 -3.1772332e-20)
(-0.0025212966 -2.7897365e-10 0)
(-0.0025140228 -2.6190694e-10 0)
(-0.0025068236 -2.4616419e-10 0)
(-0.0024996766 -2.3186827e-10 0)
(-0.0024925481 -2.1903463e-10 0)
(-0.0024854047 -2.0738015e-10 0)
(-0.0024782205 -1.9657475e-10 0)
(-0.0024709756 -1.8673285e-10 0)
(-0.0024636262 -1.7787422e-10 1.8941288e-20)
(-0.0024561403 -1.6954417e-10 -1.8050915e-20)
(-0.0024486715 -1.6197672e-10 0)
(-0.0024414258 -1.5575578e-10 0)
(-0.0024344312 -1.5053556e-10 0)
(-0.0024276635 -1.4561576e-10 0)
(-0.0024211188 -1.4095079e-10 0)
(-0.0024147773 -1.3684248e-10 0)
(-0.0024086081 -1.3330279e-10 0)
(-0.0024025901 -1.3005356e-10 0)
(-0.0023967177 -1.2699518e-10 -1.3517663e-20)
(-0.002390979 -1.2426814e-10 0)
(-0.0023853558 -1.2195763e-10 0)
(-0.0023798284 -1.2002899e-10 0)
(-0.0023743815 -1.182825e-10 0)
(-0.0023690137 -1.1676481e-10 0)
(-0.0023637054 -1.15656e-10 0)
(-0.002358439 -1.1546888e-10 0)
(-0.0023531479 -1.1549534e-10 0)
(-0.0023478796 -1.1937869e-10 0)
(-0.0023422331 -1.1933903e-10 0)
(-0.0023369704 -1.4013521e-10 0)
(-0.0023294181 -2.6073066e-10 0)
(-0.0023237292 -1.5304264e-10 -1.6442785e-20)
(-0.0023153361 -1.6698631e-10 0)
)
;
    }
    back
    {
        type            empty;
    }
    front
    {
        type            empty;
    }
    inlet
    {
        type            calculated;
        value           uniform (0 0 0);
    }
    outlet
    {
        type            calculated;
        value           uniform (0 0 0);
    }
    top
    {
        type            calculated;
        value           uniform (0 0 0);
    }
    slipsurface
    {
        type            calculated;
        value           uniform (0 0 0);
    }
}


// ************************************************************************* //
