# Region        : all region0
# Cells         : 7480
# Volume        : 2.33333000e+00
# Time          	max(U)
1               	(1.00166467e+00 9.21021522e-03 5.24789513e-16)
2               	(1.00292598e+00 4.32520549e-02 3.79694129e-16)
3               	(1.00462774e+00 2.06581255e-02 1.60874349e-15)
4               	(1.00577414e+00 2.59863391e-02 2.72096504e-16)
5               	(1.00669439e+00 2.98247119e-02 3.91140532e-16)
6               	(1.00733397e+00 3.25983721e-02 3.81898850e-16)
7               	(1.00778034e+00 3.43909208e-02 4.56717366e-16)
8               	(1.00820751e+00 3.56407052e-02 5.05028020e-16)
9               	(1.00857941e+00 3.65509308e-02 5.31222225e-16)
10              	(1.00889951e+00 3.72227728e-02 5.47583108e-16)
11              	(1.00920346e+00 3.77134922e-02 5.59008080e-16)
12              	(1.00947466e+00 3.80324970e-02 5.67326197e-16)
13              	(1.00970202e+00 3.82154474e-02 5.73344242e-16)
14              	(1.00994034e+00 3.83374510e-02 5.77678659e-16)
15              	(1.01024292e+00 3.84216502e-02 5.80767128e-16)
16              	(1.01052701e+00 3.84798078e-02 5.82961353e-16)
17              	(1.01079713e+00 3.85200941e-02 5.84519448e-16)
18              	(1.01102285e+00 3.85486035e-02 5.85624965e-16)
19              	(1.01120514e+00 3.85696861e-02 5.86406046e-16)
20              	(1.01143486e+00 3.85862481e-02 5.86956216e-16)
21              	(1.01163436e+00 3.86000384e-02 5.87340985e-16)
22              	(1.01181793e+00 3.86117906e-02 5.87607944e-16)
23              	(1.01195467e+00 3.86220290e-02 5.87791142e-16)
24              	(1.01207895e+00 3.86309433e-02 5.87914170e-16)
25              	(1.01221916e+00 3.86386141e-02 5.87994445e-16)
26              	(1.01234622e+00 3.86450977e-02 5.88043052e-16)
27              	(1.01244987e+00 3.86504633e-02 5.88068393e-16)
28              	(1.01253243e+00 3.86548125e-02 5.88076985e-16)
29              	(1.01260806e+00 3.86582553e-02 5.88072640e-16)
30              	(1.01269801e+00 3.86609017e-02 5.88058237e-16)
31              	(1.01277488e+00 3.86628605e-02 5.88035723e-16)
32              	(1.01284043e+00 3.86642318e-02 5.88004989e-16)
33              	(1.01287964e+00 3.86651079e-02 5.87966975e-16)
34              	(1.01294949e+00 3.86655724e-02 5.87922658e-16)
35              	(1.01300723e+00 3.86657054e-02 5.87873164e-16)
36              	(1.01306070e+00 3.86655829e-02 5.87819280e-16)
37              	(1.01309721e+00 3.86652656e-02 5.87761646e-16)
38              	(1.01314026e+00 3.86648011e-02 5.87700963e-16)
39              	(1.01318548e+00 3.86642264e-02 5.87637759e-16)
40              	(1.01322906e+00 3.86635698e-02 5.87572435e-16)
41              	(1.01326279e+00 3.86628523e-02 5.87505575e-16)
42              	(1.01328917e+00 3.86620900e-02 5.87438078e-16)
43              	(1.01331761e+00 3.86612859e-02 5.87371131e-16)
44              	(1.01335443e+00 3.86604471e-02 5.87305612e-16)
45              	(1.01338556e+00 3.86595952e-02 5.87242088e-16)
46              	(1.01341482e+00 3.86587556e-02 5.87180692e-16)
47              	(1.01343421e+00 3.86579447e-02 5.87121429e-16)
48              	(1.01346272e+00 3.86571663e-02 5.87064229e-16)
49              	(1.01349113e+00 3.86564222e-02 5.87009131e-16)
50              	(1.01351936e+00 3.86557133e-02 5.86956226e-16)
51              	(1.01353919e+00 3.86550374e-02 5.86905630e-16)
52              	(1.01355445e+00 3.86543938e-02 5.86857526e-16)
53              	(1.01357533e+00 3.86537858e-02 5.86811854e-16)
54              	(1.01360166e+00 3.86532161e-02 5.86768407e-16)
55              	(1.01362337e+00 3.86526853e-02 5.86727087e-16)
56              	(1.01364719e+00 3.86522017e-02 5.86688507e-16)
57              	(1.01365904e+00 3.86517928e-02 5.86650843e-16)
58              	(1.01367949e+00 3.86514232e-02 5.86612088e-16)
59              	(1.01370624e+00 3.86510720e-02 5.86573351e-16)
60              	(1.01372644e+00 3.86507336e-02 5.86535190e-16)
61              	(1.01375207e+00 3.86504155e-02 5.86497967e-16)
62              	(1.01376540e+00 3.86501252e-02 5.86461395e-16)
63              	(1.01378818e+00 3.86498671e-02 5.86425201e-16)
64              	(1.01381468e+00 3.86496386e-02 5.86389330e-16)
65              	(1.01383709e+00 3.86494364e-02 5.86353867e-16)
66              	(1.01386429e+00 3.86492572e-02 5.86319055e-16)
67              	(1.01388198e+00 3.86490985e-02 5.86284978e-16)
68              	(1.01390229e+00 3.86489583e-02 5.86251780e-16)
69              	(1.01392893e+00 3.86488353e-02 5.86219483e-16)
70              	(1.01395606e+00 3.86487279e-02 5.86188125e-16)
71              	(1.01398176e+00 3.86486347e-02 5.86157713e-16)
72              	(1.01400661e+00 3.86485536e-02 5.86128214e-16)
73              	(1.01402647e+00 3.86484838e-02 5.86099645e-16)
74              	(1.01405366e+00 3.86484241e-02 5.86071960e-16)
75              	(1.01408518e+00 3.86483723e-02 5.86045169e-16)
76              	(1.01411349e+00 3.86483269e-02 5.86019167e-16)
77              	(1.01414063e+00 3.86482871e-02 5.85993857e-16)
78              	(1.01416438e+00 3.86482537e-02 5.85969164e-16)
79              	(1.01419194e+00 3.86482263e-02 5.85945171e-16)
80              	(1.01422238e+00 3.86482034e-02 5.85921883e-16)
81              	(1.01425483e+00 3.86481833e-02 5.85899351e-16)
82              	(1.01428412e+00 3.86481639e-02 5.85877462e-16)
83              	(1.01430833e+00 3.86481445e-02 5.85856225e-16)
84              	(1.01433563e+00 3.86481260e-02 5.85835533e-16)
85              	(1.01436590e+00 3.86481085e-02 5.85815371e-16)
86              	(1.01439878e+00 3.86480915e-02 5.85795711e-16)
87              	(1.01442821e+00 3.86480747e-02 5.85776499e-16)
88              	(1.01445874e+00 3.86480578e-02 5.85757698e-16)
89              	(1.01448420e+00 3.86480406e-02 5.85739302e-16)
90              	(1.01452569e+00 3.86480236e-02 5.85721516e-16)
91              	(1.01459069e+00 3.86480074e-02 5.85704290e-16)
92              	(1.01465553e+00 3.86479899e-02 5.85687680e-16)
93              	(1.01471923e+00 3.86479698e-02 5.85671569e-16)
94              	(1.01478180e+00 3.86479484e-02 5.85655748e-16)
95              	(1.01484332e+00 3.86479280e-02 5.85640089e-16)
96              	(1.01490384e+00 3.86479096e-02 5.85624583e-16)
97              	(1.01496320e+00 3.86478931e-02 5.85609275e-16)
98              	(1.01502153e+00 3.86478775e-02 5.85594198e-16)
99              	(1.01507885e+00 3.86478621e-02 5.85579379e-16)
100             	(1.01513616e+00 3.86478463e-02 5.85564806e-16)
101             	(1.01519355e+00 3.86478303e-02 5.85550439e-16)
102             	(1.01525059e+00 3.86478143e-02 5.85536097e-16)
103             	(1.01530702e+00 3.86477978e-02 5.85521822e-16)
104             	(1.01536267e+00 3.86477806e-02 5.85507745e-16)
105             	(1.01541737e+00 3.86477630e-02 5.85493985e-16)
106             	(1.01547108e+00 3.86477455e-02 5.85480570e-16)
107             	(1.01552379e+00 3.86477289e-02 5.85467405e-16)
108             	(1.01557545e+00 3.86477134e-02 5.85454393e-16)
109             	(1.01562606e+00 3.86476988e-02 5.85441510e-16)
110             	(1.01567555e+00 3.86476848e-02 5.85428761e-16)
111             	(1.01572507e+00 3.86476711e-02 5.85416153e-16)
112             	(1.01577541e+00 3.86476575e-02 5.85403704e-16)
113             	(1.01582470e+00 3.86476439e-02 5.85391410e-16)
114             	(1.01587287e+00 3.86476303e-02 5.85379283e-16)
115             	(1.01591997e+00 3.86476168e-02 5.85367315e-16)
116             	(1.01596603e+00 3.86476034e-02 5.85355497e-16)
117             	(1.01601097e+00 3.86475903e-02 5.85343828e-16)
118             	(1.01605477e+00 3.86475773e-02 5.85332305e-16)
119             	(1.01609740e+00 3.86475646e-02 5.85320922e-16)
120             	(1.01613886e+00 3.86475521e-02 5.85309677e-16)
121             	(1.01617913e+00 3.86475401e-02 5.85298558e-16)
122             	(1.01621813e+00 3.86475287e-02 5.85287563e-16)
123             	(1.01625969e+00 3.86475176e-02 5.85276690e-16)
124             	(1.01630105e+00 3.86475144e-02 5.85266001e-16)
125             	(1.01634084e+00 3.86475294e-02 5.85255534e-16)
126             	(1.01637947e+00 3.86475509e-02 5.85245031e-16)
127             	(1.01641710e+00 3.86475736e-02 5.85234325e-16)
128             	(1.01645372e+00 3.86475931e-02 5.85223474e-16)
129             	(1.01648924e+00 3.86476077e-02 5.85212566e-16)
130             	(1.01652596e+00 3.86476180e-02 5.85201671e-16)
131             	(1.01656194e+00 3.86476256e-02 5.85190834e-16)
132             	(1.01659681e+00 3.86476319e-02 5.85180079e-16)
133             	(1.01663034e+00 3.86476380e-02 5.85169412e-16)
134             	(1.01666370e+00 3.86476445e-02 5.85158844e-16)
135             	(1.01669912e+00 3.86476516e-02 5.85148385e-16)
136             	(1.01673405e+00 3.86476589e-02 5.85138050e-16)
137             	(1.01676829e+00 3.86476663e-02 5.85127837e-16)
138             	(1.01680178e+00 3.86476738e-02 5.85117760e-16)
139             	(1.01683439e+00 3.86476808e-02 5.85107811e-16)
140             	(1.01686593e+00 3.86476876e-02 5.85097988e-16)
141             	(1.01689647e+00 3.86476942e-02 5.85088299e-16)
142             	(1.01692588e+00 3.86477007e-02 5.85078730e-16)
143             	(1.01695386e+00 3.86477072e-02 5.85069279e-16)
144             	(1.01698549e+00 3.86477135e-02 5.85059952e-16)
145             	(1.01701672e+00 3.86477198e-02 5.85050737e-16)
146             	(1.01704746e+00 3.86477259e-02 5.85041631e-16)
147             	(1.01707757e+00 3.86477318e-02 5.85032630e-16)
148             	(1.01710697e+00 3.86477376e-02 5.85023736e-16)
149             	(1.01713547e+00 3.86477429e-02 5.85014945e-16)
150             	(1.01716294e+00 3.86477478e-02 5.85006221e-16)
151             	(1.01718907e+00 3.86477523e-02 5.84997604e-16)
152             	(1.01721397e+00 3.86477566e-02 5.84989111e-16)
153             	(1.01724264e+00 3.86477608e-02 5.84980720e-16)
154             	(1.01727106e+00 3.86477649e-02 5.84972413e-16)
155             	(1.01729908e+00 3.86477689e-02 5.84964189e-16)
156             	(1.01732658e+00 3.86477725e-02 5.84956035e-16)
157             	(1.01735347e+00 3.86477758e-02 5.84947958e-16)
158             	(1.01737968e+00 3.86477788e-02 5.84939972e-16)
159             	(1.01740353e+00 3.86477812e-02 5.84932121e-16)
160             	(1.01742617e+00 3.86477834e-02 5.84924394e-16)
161             	(1.01744870e+00 3.86477855e-02 5.84916759e-16)
162             	(1.01747488e+00 3.86477875e-02 5.84909193e-16)
163             	(1.01750078e+00 3.86477890e-02 5.84901686e-16)
164             	(1.01752633e+00 3.86477901e-02 5.84894212e-16)
165             	(1.01755146e+00 3.86477908e-02 5.84886782e-16)
166             	(1.01757559e+00 3.86477910e-02 5.84879397e-16)
167             	(1.01759763e+00 3.86477910e-02 5.84872051e-16)
168             	(1.01761966e+00 3.86477910e-02 5.84864623e-16)
169             	(1.01764132e+00 3.86477910e-02 5.84857001e-16)
170             	(1.01766229e+00 3.86477902e-02 5.84849276e-16)
171             	(1.01768248e+00 3.86477884e-02 5.84841703e-16)
172             	(1.01770499e+00 3.86477863e-02 5.84834214e-16)
173             	(1.01772806e+00 3.86477840e-02 5.84826825e-16)
174             	(1.01774988e+00 3.86477813e-02 5.84819604e-16)
175             	(1.01777022e+00 3.86477782e-02 5.84812585e-16)
176             	(1.01779060e+00 3.86477752e-02 5.84805723e-16)
177             	(1.01781078e+00 3.86477728e-02 5.84798967e-16)
178             	(1.01783064e+00 3.86477708e-02 5.84792314e-16)
179             	(1.01785005e+00 3.86477689e-02 5.84785756e-16)
180             	(1.01786896e+00 3.86477667e-02 5.84779272e-16)
181             	(1.01788731e+00 3.86477643e-02 5.84772839e-16)
182             	(1.01790504e+00 3.86477617e-02 5.84766447e-16)
183             	(1.01792209e+00 3.86477587e-02 5.84760089e-16)
184             	(1.01793843e+00 3.86477554e-02 5.84753772e-16)
185             	(1.01795654e+00 3.86477518e-02 5.84747466e-16)
186             	(1.01797456e+00 3.86477479e-02 5.84741164e-16)
187             	(1.01799231e+00 3.86477439e-02 5.84734902e-16)
188             	(1.01800968e+00 3.86477397e-02 5.84728687e-16)
189             	(1.01802663e+00 3.86477352e-02 5.84722525e-16)
190             	(1.01804312e+00 3.86477303e-02 5.84716410e-16)
191             	(1.01805917e+00 3.86477250e-02 5.84710340e-16)
192             	(1.01807484e+00 3.86477195e-02 5.84704306e-16)
193             	(1.01809015e+00 3.86477138e-02 5.84698311e-16)
194             	(1.01810498e+00 3.86477079e-02 5.84692355e-16)
195             	(1.01811936e+00 3.86477019e-02 5.84686438e-16)
196             	(1.01813329e+00 3.86476958e-02 5.84680563e-16)
197             	(1.01814674e+00 3.86476896e-02 5.84674732e-16)
198             	(1.01815964e+00 3.86476832e-02 5.84668940e-16)
199             	(1.01817200e+00 3.86476767e-02 5.84663185e-16)
200             	(1.01818432e+00 3.86476700e-02 5.84657470e-16)
201             	(1.01819800e+00 3.86476631e-02 5.84651796e-16)
202             	(1.01821148e+00 3.86476559e-02 5.84646162e-16)
203             	(1.01822466e+00 3.86476484e-02 5.84640577e-16)
204             	(1.01823753e+00 3.86476407e-02 5.84635030e-16)
205             	(1.01825005e+00 3.86476329e-02 5.84629519e-16)
206             	(1.01826215e+00 3.86476250e-02 5.84624050e-16)
207             	(1.01827385e+00 3.86476169e-02 5.84618612e-16)
208             	(1.01828517e+00 3.86476086e-02 5.84613213e-16)
209             	(1.01829610e+00 3.86476000e-02 5.84607849e-16)
210             	(1.01830666e+00 3.86475915e-02 5.84602516e-16)
211             	(1.01831688e+00 3.86475828e-02 5.84597219e-16)
212             	(1.01832676e+00 3.86475740e-02 5.84591960e-16)
213             	(1.01833637e+00 3.86475649e-02 5.84586737e-16)
214             	(1.01834569e+00 3.86475555e-02 5.84581553e-16)
215             	(1.01835469e+00 3.86475459e-02 5.84576400e-16)
216             	(1.01836330e+00 3.86475361e-02 5.84571276e-16)
217             	(1.01837153e+00 3.86475262e-02 5.84566183e-16)
218             	(1.01837935e+00 3.86475161e-02 5.84561117e-16)
219             	(1.01838674e+00 3.86475058e-02 5.84556077e-16)
220             	(1.01839382e+00 3.86474953e-02 5.84551070e-16)
221             	(1.01840222e+00 3.86474848e-02 5.84546098e-16)
222             	(1.01841045e+00 3.86474741e-02 5.84541166e-16)
223             	(1.01841843e+00 3.86474633e-02 5.84536267e-16)
224             	(1.01842604e+00 3.86474524e-02 5.84531392e-16)
225             	(1.01843332e+00 3.86474414e-02 5.84526545e-16)
226             	(1.01844033e+00 3.86474302e-02 5.84521725e-16)
227             	(1.01844706e+00 3.86474188e-02 5.84516932e-16)
228             	(1.01845351e+00 3.86474071e-02 5.84512167e-16)
229             	(1.01845968e+00 3.86473953e-02 5.84507433e-16)
230             	(1.01846558e+00 3.86473831e-02 5.84502726e-16)
231             	(1.01847116e+00 3.86473707e-02 5.84498049e-16)
232             	(1.01847644e+00 3.86473581e-02 5.84493400e-16)
233             	(1.01848139e+00 3.86473452e-02 5.84488775e-16)
234             	(1.01848605e+00 3.86473319e-02 5.84484175e-16)
235             	(1.01849041e+00 3.86473183e-02 5.84479601e-16)
236             	(1.01849448e+00 3.86473042e-02 5.84475048e-16)
237             	(1.01849827e+00 3.86472896e-02 5.84470521e-16)
238             	(1.01850178e+00 3.86472745e-02 5.84466020e-16)
239             	(1.01850500e+00 3.86472619e-02 5.84464141e-16)
240             	(1.01850792e+00 3.86472413e-02 5.84463514e-16)
241             	(1.01851055e+00 3.86472092e-02 5.84462840e-16)
242             	(1.01851289e+00 3.86471704e-02 5.84462054e-16)
243             	(1.01851493e+00 3.86471330e-02 5.84461427e-16)
244             	(1.01851668e+00 3.86471028e-02 5.84461055e-16)
245             	(1.01851817e+00 3.86470806e-02 5.84460843e-16)
246             	(1.01851940e+00 3.86470630e-02 5.84460636e-16)
247             	(1.01852036e+00 3.86470453e-02 5.84460323e-16)
248             	(1.01852101e+00 3.86470242e-02 5.84459842e-16)
249             	(1.01852170e+00 3.86469986e-02 5.84459179e-16)
250             	(1.01852286e+00 3.86469691e-02 5.84458340e-16)
251             	(1.01852380e+00 3.86469370e-02 5.84457353e-16)
252             	(1.01852445e+00 3.86469036e-02 5.84456235e-16)
253             	(1.01852470e+00 3.86468697e-02 5.84455006e-16)
254             	(1.01852463e+00 3.86468354e-02 5.84453681e-16)
255             	(1.01852437e+00 3.86468011e-02 5.84452275e-16)
256             	(1.01852385e+00 3.86467666e-02 5.84450799e-16)
257             	(1.01852301e+00 3.86467319e-02 5.84449267e-16)
258             	(1.01852179e+00 3.86466970e-02 5.84447694e-16)
259             	(1.01852024e+00 3.86466619e-02 5.84446087e-16)
260             	(1.01851850e+00 3.86466268e-02 5.84444456e-16)
261             	(1.01851630e+00 3.86465916e-02 5.84442804e-16)
262             	(1.01851372e+00 3.86465563e-02 5.84441145e-16)
263             	(1.01851083e+00 3.86465211e-02 5.84439476e-16)
264             	(1.01850764e+00 3.86464859e-02 5.84437803e-16)
265             	(1.01850414e+00 3.86464506e-02 5.84436126e-16)
266             	(1.01850042e+00 3.86464152e-02 5.84434453e-16)
267             	(1.01849652e+00 3.86463798e-02 5.84432779e-16)
268             	(1.01849239e+00 3.86463444e-02 5.84431110e-16)
269             	(1.01848796e+00 3.86463090e-02 5.84429442e-16)
270             	(1.01848320e+00 3.86462734e-02 5.84427783e-16)
271             	(1.01847811e+00 3.86462378e-02 5.84426128e-16)
272             	(1.01847269e+00 3.86462021e-02 5.84424476e-16)
273             	(1.01846693e+00 3.86461664e-02 5.84422828e-16)
274             	(1.01846084e+00 3.86461306e-02 5.84421184e-16)
275             	(1.01845443e+00 3.86460948e-02 5.84419549e-16)
276             	(1.01844757e+00 3.86460589e-02 5.84417926e-16)
277             	(1.01844046e+00 3.86460228e-02 5.84416319e-16)
278             	(1.01843371e+00 3.86459866e-02 5.84414723e-16)
279             	(1.01842661e+00 3.86459504e-02 5.84413139e-16)
280             	(1.01841890e+00 3.86459142e-02 5.84411563e-16)
281             	(1.01841077e+00 3.86458778e-02 5.84409996e-16)
282             	(1.01840229e+00 3.86458415e-02 5.84408433e-16)
283             	(1.01839350e+00 3.86458051e-02 5.84406876e-16)
284             	(1.01838445e+00 3.86457687e-02 5.84405333e-16)
285             	(1.01837531e+00 3.86457322e-02 5.84403794e-16)
286             	(1.01836632e+00 3.86456957e-02 5.84402263e-16)
287             	(1.01835669e+00 3.86456591e-02 5.84400739e-16)
288             	(1.01834509e+00 3.86456224e-02 5.84399222e-16)
289             	(1.01833328e+00 3.86455857e-02 5.84397714e-16)
290             	(1.01832122e+00 3.86455489e-02 5.84396210e-16)
291             	(1.01830888e+00 3.86455120e-02 5.84394712e-16)
292             	(1.01829632e+00 3.86454750e-02 5.84393219e-16)
293             	(1.01828339e+00 3.86454380e-02 5.84391730e-16)
294             	(1.01826993e+00 3.86454010e-02 5.84390251e-16)
295             	(1.01825592e+00 3.86453639e-02 5.84388781e-16)
296             	(1.01824142e+00 3.86453268e-02 5.84387321e-16)
297             	(1.01822655e+00 3.86452896e-02 5.84385871e-16)
298             	(1.01821331e+00 3.86452524e-02 5.84384433e-16)
299             	(1.01821240e+00 3.86452151e-02 5.84383007e-16)
300             	(1.01821135e+00 3.86451778e-02 5.84381585e-16)
301             	(1.01821014e+00 3.86451405e-02 5.84380170e-16)
302             	(1.01820881e+00 3.86451050e-02 5.84378781e-16)
303             	(1.01820728e+00 3.86450714e-02 5.84377404e-16)
304             	(1.01820534e+00 3.86450393e-02 5.84376026e-16)
305             	(1.01820311e+00 3.86450085e-02 5.84374651e-16)
306             	(1.01820068e+00 3.86449786e-02 5.84373280e-16)
307             	(1.01819812e+00 3.86449489e-02 5.84371912e-16)
308             	(1.01819543e+00 3.86449190e-02 5.84370548e-16)
309             	(1.01819261e+00 3.86448887e-02 5.84369190e-16)
310             	(1.01818964e+00 3.86448580e-02 5.84367836e-16)
311             	(1.01818649e+00 3.86448270e-02 5.84366487e-16)
312             	(1.01818305e+00 3.86447958e-02 5.84365144e-16)
313             	(1.01817921e+00 3.86447645e-02 5.84363805e-16)
314             	(1.01817505e+00 3.86447332e-02 5.84362473e-16)
315             	(1.01817060e+00 3.86447018e-02 5.84361144e-16)
316             	(1.01816595e+00 3.86446704e-02 5.84359820e-16)
317             	(1.01816112e+00 3.86446390e-02 5.84358502e-16)
318             	(1.01815607e+00 3.86446074e-02 5.84357194e-16)
319             	(1.01815074e+00 3.86445757e-02 5.84355891e-16)
320             	(1.01814518e+00 3.86445440e-02 5.84354595e-16)
321             	(1.01813927e+00 3.86445122e-02 5.84353298e-16)
322             	(1.01813288e+00 3.86444804e-02 5.84352003e-16)
323             	(1.01812592e+00 3.86444485e-02 5.84350712e-16)
324             	(1.01811854e+00 3.86444168e-02 5.84349422e-16)
325             	(1.01811080e+00 3.86443850e-02 5.84348136e-16)
326             	(1.01810265e+00 3.86443532e-02 5.84346853e-16)
327             	(1.01809412e+00 3.86443214e-02 5.84345577e-16)
328             	(1.01808530e+00 3.86442896e-02 5.84344308e-16)
329             	(1.01807615e+00 3.86442577e-02 5.84343043e-16)
330             	(1.01806677e+00 3.86442258e-02 5.84341782e-16)
331             	(1.01805707e+00 3.86441939e-02 5.84340528e-16)
332             	(1.01804698e+00 3.86441619e-02 5.84339280e-16)
333             	(1.01803672e+00 3.86441299e-02 5.84338036e-16)
334             	(1.01802618e+00 3.86440979e-02 5.84336799e-16)
335             	(1.01801544e+00 3.86440658e-02 5.84335566e-16)
336             	(1.01800455e+00 3.86440337e-02 5.84334338e-16)
337             	(1.01799347e+00 3.86440016e-02 5.84333115e-16)
338             	(1.01798218e+00 3.86439695e-02 5.84331895e-16)
339             	(1.01797068e+00 3.86439373e-02 5.84330683e-16)
340             	(1.01795895e+00 3.86439051e-02 5.84329472e-16)
341             	(1.01794698e+00 3.86438729e-02 5.84328265e-16)
342             	(1.01793480e+00 3.86438406e-02 5.84327061e-16)
343             	(1.01792242e+00 3.86438084e-02 5.84325864e-16)
344             	(1.01790980e+00 3.86437761e-02 5.84324671e-16)
345             	(1.01789695e+00 3.86437439e-02 5.84323482e-16)
346             	(1.01788387e+00 3.86437116e-02 5.84322298e-16)
347             	(1.01787052e+00 3.86436792e-02 5.84321118e-16)
348             	(1.01785693e+00 3.86436469e-02 5.84319944e-16)
349             	(1.01784314e+00 3.86436145e-02 5.84318775e-16)
350             	(1.01782914e+00 3.86435820e-02 5.84317610e-16)
351             	(1.01781496e+00 3.86435496e-02 5.84316450e-16)
352             	(1.01780058e+00 3.86435171e-02 5.84315293e-16)
353             	(1.01778599e+00 3.86434846e-02 5.84314139e-16)
354             	(1.01777118e+00 3.86434520e-02 5.84312992e-16)
355             	(1.01775621e+00 3.86434194e-02 5.84311847e-16)
356             	(1.01774108e+00 3.86433868e-02 5.84310709e-16)
357             	(1.01772581e+00 3.86433541e-02 5.84309575e-16)
358             	(1.01771040e+00 3.86433215e-02 5.84308444e-16)
359             	(1.01769486e+00 3.86432888e-02 5.84307319e-16)
360             	(1.01767920e+00 3.86432561e-02 5.84306198e-16)
361             	(1.01766354e+00 3.86432233e-02 5.84305081e-16)
362             	(1.01764806e+00 3.86431906e-02 5.84303967e-16)
363             	(1.01763265e+00 3.86431577e-02 5.84302858e-16)
364             	(1.01762083e+00 3.86431246e-02 5.84301753e-16)
365             	(1.01761512e+00 3.86430916e-02 5.84300651e-16)
366             	(1.01760941e+00 3.86430585e-02 5.84299550e-16)
367             	(1.01760370e+00 3.86430255e-02 5.84298454e-16)
368             	(1.01759796e+00 3.86429924e-02 5.84297360e-16)
369             	(1.01759219e+00 3.86429593e-02 5.84296268e-16)
370             	(1.01758640e+00 3.86429263e-02 5.84295176e-16)
371             	(1.01758061e+00 3.86428933e-02 5.84294085e-16)
372             	(1.01757483e+00 3.86428604e-02 5.84292996e-16)
373             	(1.01756906e+00 3.86428276e-02 5.84291909e-16)
374             	(1.01756331e+00 3.86427948e-02 5.84290825e-16)
375             	(1.01755755e+00 3.86427621e-02 5.84289745e-16)
376             	(1.01755180e+00 3.86427293e-02 5.84288668e-16)
377             	(1.01754604e+00 3.86426966e-02 5.84287595e-16)
378             	(1.01754029e+00 3.86426639e-02 5.84286526e-16)
379             	(1.01753453e+00 3.86426313e-02 5.84285465e-16)
380             	(1.01752878e+00 3.86425986e-02 5.84284412e-16)
381             	(1.01752301e+00 3.86425659e-02 5.84283366e-16)
382             	(1.01751727e+00 3.86425333e-02 5.84282323e-16)
383             	(1.01751146e+00 3.86425009e-02 5.84281281e-16)
384             	(1.01750558e+00 3.86424685e-02 5.84280240e-16)
385             	(1.01749964e+00 3.86424362e-02 5.84279200e-16)
386             	(1.01749357e+00 3.86424039e-02 5.84278161e-16)
387             	(1.01748749e+00 3.86423716e-02 5.84277124e-16)
388             	(1.01748143e+00 3.86423393e-02 5.84276088e-16)
389             	(1.01747537e+00 3.86423070e-02 5.84275052e-16)
390             	(1.01746930e+00 3.86422747e-02 5.84274016e-16)
391             	(1.01746318e+00 3.86422424e-02 5.84272980e-16)
392             	(1.01745703e+00 3.86422101e-02 5.84271943e-16)
393             	(1.01745082e+00 3.86421776e-02 5.84270920e-16)
394             	(1.01744455e+00 3.86421449e-02 5.84269943e-16)
395             	(1.01743826e+00 3.86421122e-02 5.84268971e-16)
396             	(1.01743198e+00 3.86420796e-02 5.84267913e-16)
397             	(1.01742573e+00 3.86420470e-02 5.84266730e-16)
398             	(1.01741952e+00 3.86420137e-02 5.84265474e-16)
399             	(1.01741334e+00 3.86419795e-02 5.84264230e-16)
400             	(1.01740721e+00 3.86419440e-02 5.84263051e-16)
401             	(1.01740110e+00 3.86419077e-02 5.84261954e-16)
402             	(1.01739500e+00 3.86418711e-02 5.84260929e-16)
403             	(1.01738887e+00 3.86418347e-02 5.84259954e-16)
404             	(1.01738269e+00 3.86417989e-02 5.84259009e-16)
405             	(1.01737642e+00 3.86417638e-02 5.84258079e-16)
406             	(1.01737017e+00 3.86417296e-02 5.84257152e-16)
407             	(1.01736400e+00 3.86416961e-02 5.84256224e-16)
408             	(1.01735790e+00 3.86416631e-02 5.84255293e-16)
409             	(1.01735185e+00 3.86416306e-02 5.84254359e-16)
410             	(1.01734585e+00 3.86415982e-02 5.84253424e-16)
411             	(1.01733989e+00 3.86415660e-02 5.84252487e-16)
412             	(1.01733397e+00 3.86415338e-02 5.84251551e-16)
413             	(1.01732808e+00 3.86415016e-02 5.84250614e-16)
414             	(1.01732222e+00 3.86414693e-02 5.84249677e-16)
415             	(1.01731638e+00 3.86414369e-02 5.84248739e-16)
416             	(1.01731054e+00 3.86414045e-02 5.84247802e-16)
417             	(1.01730469e+00 3.86413719e-02 5.84246864e-16)
418             	(1.01729887e+00 3.86413393e-02 5.84245927e-16)
419             	(1.01729310e+00 3.86413066e-02 5.84244990e-16)
420             	(1.01728738e+00 3.86412739e-02 5.84244054e-16)
421             	(1.01728172e+00 3.86412411e-02 5.84243117e-16)
422             	(1.01727611e+00 3.86412082e-02 5.84242180e-16)
423             	(1.01727054e+00 3.86411753e-02 5.84241242e-16)
424             	(1.01726503e+00 3.86411423e-02 5.84240304e-16)
425             	(1.01725955e+00 3.86411092e-02 5.84239368e-16)
426             	(1.01725412e+00 3.86410761e-02 5.84238435e-16)
427             	(1.01724874e+00 3.86410428e-02 5.84237503e-16)
428             	(1.01724341e+00 3.86410094e-02 5.84236574e-16)
429             	(1.01723812e+00 3.86409759e-02 5.84235642e-16)
430             	(1.01723289e+00 3.86409423e-02 5.84234709e-16)
431             	(1.01722771e+00 3.86409086e-02 5.84233781e-16)
432             	(1.01722259e+00 3.86408748e-02 5.84232859e-16)
433             	(1.01721750e+00 3.86408410e-02 5.84231941e-16)
434             	(1.01721242e+00 3.86408072e-02 5.84231028e-16)
435             	(1.01720735e+00 3.86407734e-02 5.84230118e-16)
436             	(1.01720231e+00 3.86407396e-02 5.84229211e-16)
437             	(1.01719732e+00 3.86407058e-02 5.84228306e-16)
438             	(1.01719238e+00 3.86406720e-02 5.84227404e-16)
439             	(1.01718749e+00 3.86406382e-02 5.84226504e-16)
440             	(1.01718260e+00 3.86406044e-02 5.84225608e-16)
441             	(1.01717776e+00 3.86405706e-02 5.84224715e-16)
442             	(1.01717299e+00 3.86405368e-02 5.84223824e-16)
443             	(1.01716827e+00 3.86405030e-02 5.84222936e-16)
444             	(1.01716361e+00 3.86404692e-02 5.84222050e-16)
445             	(1.01715900e+00 3.86404354e-02 5.84221166e-16)
446             	(1.01715444e+00 3.86404015e-02 5.84220283e-16)
447             	(1.01714993e+00 3.86403677e-02 5.84219402e-16)
448             	(1.01714547e+00 3.86403338e-02 5.84218523e-16)
449             	(1.01714106e+00 3.86402999e-02 5.84217646e-16)
450             	(1.01713670e+00 3.86402661e-02 5.84216770e-16)
451             	(1.01713239e+00 3.86402322e-02 5.84215896e-16)
452             	(1.01712813e+00 3.86401982e-02 5.84215024e-16)
453             	(1.01712391e+00 3.86401643e-02 5.84214153e-16)
454             	(1.01711974e+00 3.86401304e-02 5.84213284e-16)
455             	(1.01711561e+00 3.86400965e-02 5.84212417e-16)
456             	(1.01711154e+00 3.86400625e-02 5.84211551e-16)
457             	(1.01710750e+00 3.86400285e-02 5.84210687e-16)
458             	(1.01710352e+00 3.86399945e-02 5.84209826e-16)
459             	(1.01709958e+00 3.86399605e-02 5.84208966e-16)
460             	(1.01709569e+00 3.86399264e-02 5.84208107e-16)
461             	(1.01709184e+00 3.86398923e-02 5.84207250e-16)
462             	(1.01708804e+00 3.86398582e-02 5.84206395e-16)
463             	(1.01708429e+00 3.86398242e-02 5.84205542e-16)
464             	(1.01708058e+00 3.86397901e-02 5.84204690e-16)
465             	(1.01707691e+00 3.86397560e-02 5.84203840e-16)
466             	(1.01707330e+00 3.86397220e-02 5.84202991e-16)
467             	(1.01706972e+00 3.86396880e-02 5.84202144e-16)