# Region        : all region0
# Cells         : 13056
# Volume        : 2.33333000e+00
# Time          	max(U)
1               	(1.00018390e+00 5.65733831e-04 1.38022012e-15)
2               	(1.00034153e+00 9.55588700e-04 7.76026204e-16)
3               	(1.00047513e+00 1.32219298e-03 5.52876909e-16)
4               	(1.00065832e+00 1.69790186e-03 3.97855125e-16)
5               	(1.00078979e+00 2.09980767e-03 3.00246757e-16)
6               	(1.00090556e+00 2.53742650e-03 2.38461397e-16)
7               	(1.00111590e+00 3.01729353e-03 1.97595643e-16)
8               	(1.00130616e+00 3.54498775e-03 1.68942005e-16)
9               	(1.00140406e+00 4.12269947e-03 1.47606924e-16)
10              	(1.00165835e+00 4.75273836e-03 1.30877623e-16)
11              	(1.00188011e+00 5.43593885e-03 1.17236920e-16)
12              	(1.00211060e+00 6.16964384e-03 1.05808777e-16)
13              	(1.00235480e+00 6.95133598e-03 9.60598276e-17)
14              	(1.00260745e+00 7.78014025e-03 8.76431381e-17)
15              	(1.00281744e+00 8.64707637e-03 8.03164880e-17)
16              	(1.00304211e+00 9.54687546e-03 7.38998091e-17)
17              	(1.00329627e+00 1.04827003e-02 6.82526849e-17)
18              	(1.00354851e+00 1.14428111e-02 6.32619090e-17)
19              	(1.00379713e+00 1.24211434e-02 5.88342651e-17)
20              	(1.00403870e+00 1.34126302e-02 5.48919409e-17)
21              	(1.00427215e+00 1.44128994e-02 5.13694413e-17)
22              	(1.00449031e+00 1.54173053e-02 4.82113212e-17)
23              	(1.00469176e+00 1.64281376e-02 4.53704532e-17)
24              	(1.00488206e+00 1.74402792e-02 4.50260221e-17)
25              	(1.00505994e+00 1.84479557e-02 4.68410587e-17)
26              	(1.00522530e+00 1.94489236e-02 4.86749204e-17)
27              	(1.00537430e+00 2.04407260e-02 5.05027629e-17)
28              	(1.00551479e+00 2.14215407e-02 5.23325624e-17)
29              	(1.00564689e+00 2.23900465e-02 5.41725183e-17)
30              	(1.00576618e+00 2.33396233e-02 5.60185277e-17)
31              	(1.00587203e+00 2.42732744e-02 5.78230104e-17)
32              	(1.00596744e+00 2.51919753e-02 5.95911744e-17)
33              	(1.00605001e+00 2.60933538e-02 6.13302043e-17)
34              	(1.00612141e+00 2.69768341e-02 6.30798979e-17)
35              	(1.00618777e+00 2.78412958e-02 6.48151645e-17)
36              	(1.00625002e+00 2.86869345e-02 6.65403797e-17)
37              	(1.00630531e+00 2.95152001e-02 6.82476807e-17)
38              	(1.00635324e+00 3.03319722e-02 6.99275544e-17)
39              	(1.00639010e+00 3.11310908e-02 7.15262882e-17)
40              	(1.00642937e+00 3.19117292e-02 7.31253050e-17)
41              	(1.00644835e+00 3.26740880e-02 7.45830935e-17)
42              	(1.00645689e+00 3.34177220e-02 7.60382793e-17)
43              	(1.00649865e+00 3.41436798e-02 7.74547312e-17)
44              	(1.00656136e+00 3.48514098e-02 7.88324277e-17)
45              	(1.00662192e+00 3.55407458e-02 8.02001656e-17)
46              	(1.00667002e+00 3.62119320e-02 8.15562102e-17)
47              	(1.00671103e+00 3.68650063e-02 8.29010137e-17)
48              	(1.00674932e+00 3.75004809e-02 8.42060149e-17)
49              	(1.00678977e+00 3.81188865e-02 8.54502349e-17)
50              	(1.00682771e+00 3.87206583e-02 8.65740818e-17)
51              	(1.00686031e+00 3.93056545e-02 8.77668406e-17)
52              	(1.00689081e+00 3.98745153e-02 8.89191064e-17)
53              	(1.00691810e+00 4.04275956e-02 9.00723148e-17)
54              	(1.00694237e+00 4.09648953e-02 9.12332003e-17)
55              	(1.00696442e+00 4.14867473e-02 9.23689208e-17)
56              	(1.00698575e+00 4.19934650e-02 9.34866096e-17)
57              	(1.00700587e+00 4.24856319e-02 9.45349512e-17)
58              	(1.00702540e+00 4.29634637e-02 9.55849390e-17)
59              	(1.00704526e+00 4.34274461e-02 9.66071489e-17)
60              	(1.00706528e+00 4.38775654e-02 9.76001942e-17)
61              	(1.00708649e+00 4.43144446e-02 9.85035537e-17)
62              	(1.00710979e+00 4.47384991e-02 9.93311583e-17)
63              	(1.00716414e+00 4.51500529e-02 1.00053146e-16)
64              	(1.00721382e+00 4.55485621e-02 1.00706100e-16)
65              	(1.00725701e+00 4.59346708e-02 1.01315809e-16)
66              	(1.00729353e+00 4.63089435e-02 1.01917531e-16)
67              	(1.00732383e+00 4.66714997e-02 1.02508883e-16)
68              	(1.00735146e+00 4.70224903e-02 1.02992223e-16)
69              	(1.00737212e+00 4.73623126e-02 1.03452106e-16)
70              	(1.00736983e+00 4.76945555e-02 1.03873777e-16)
71              	(1.00733036e+00 4.80189018e-02 1.04273951e-16)
72              	(1.00729552e+00 4.83329515e-02 1.04661867e-16)
73              	(1.00726043e+00 4.86354448e-02 1.05023979e-16)
74              	(1.00722370e+00 4.89289418e-02 1.05400650e-16)
75              	(1.00718734e+00 4.92132830e-02 1.05762464e-16)
76              	(1.00714914e+00 4.94885973e-02 9.90286657e-17)
77              	(1.00710721e+00 4.97536926e-02 9.62041134e-17)
78              	(1.00706291e+00 5.00098262e-02 9.58153217e-17)
79              	(1.00702098e+00 5.02577759e-02 9.53849487e-17)
80              	(1.00697301e+00 5.04978327e-02 9.49544807e-17)
81              	(1.00700364e+00 5.07291873e-02 9.45608334e-17)
82              	(1.00702717e+00 5.09525526e-02 9.41153759e-17)
83              	(1.00700944e+00 5.11689091e-02 9.36568863e-17)
84              	(1.00695101e+00 5.13785914e-02 9.32523509e-17)
85              	(1.00689748e+00 5.15805947e-02 9.28931757e-17)
86              	(1.00684897e+00 5.17759334e-02 9.25148664e-17)
87              	(1.00680277e+00 5.19649589e-02 9.21212035e-17)
88              	(1.00675744e+00 5.21473983e-02 9.17398578e-17)
89              	(1.00671203e+00 5.23232464e-02 9.13625338e-17)
90              	(1.00666639e+00 5.24931761e-02 9.09671135e-17)
91              	(1.00672597e+00 5.26571642e-02 9.05826623e-17)
92              	(1.00681163e+00 5.28150416e-02 9.02275781e-17)
93              	(1.00689714e+00 5.29674450e-02 8.98575763e-17)
94              	(1.00698159e+00 5.31144593e-02 8.94645823e-17)
95              	(1.00706486e+00 5.32559928e-02 8.90844142e-17)
96              	(1.00714698e+00 5.33924280e-02 8.86907398e-17)
97              	(1.00722782e+00 5.35236099e-02 8.82999832e-17)
98              	(1.00730760e+00 5.36499282e-02 8.79238272e-17)
99              	(1.00738606e+00 5.37714800e-02 8.76013274e-17)
100             	(1.00746340e+00 5.38885427e-02 8.72849197e-17)
101             	(1.00753942e+00 5.40011541e-02 8.69622945e-17)
102             	(1.00761423e+00 5.41095484e-02 8.66491423e-17)
103             	(1.00768770e+00 5.42138539e-02 8.63367016e-17)
104             	(1.00775989e+00 5.43142210e-02 8.60297241e-17)
105             	(1.00783072e+00 5.44107930e-02 8.57166008e-17)
106             	(1.00790015e+00 5.45036743e-02 8.54203826e-17)
107             	(1.00796820e+00 5.45931282e-02 8.51197181e-17)
108             	(1.00803476e+00 5.46793414e-02 8.48171872e-17)
109             	(1.00810110e+00 5.47622675e-02 8.45704119e-17)
110             	(1.00816796e+00 5.48420712e-02 8.43229648e-17)
111             	(1.00823387e+00 5.49187537e-02 8.40563970e-17)
112             	(1.00829896e+00 5.49924278e-02 8.37662895e-17)
113             	(1.00836316e+00 5.50633036e-02 8.35156862e-17)
114             	(1.00842661e+00 5.51314863e-02 8.32795765e-17)
115             	(1.00848920e+00 5.51970835e-02 8.30557857e-17)
116             	(1.00855113e+00 5.52602068e-02 8.28248393e-17)
117             	(1.00861249e+00 5.53209343e-02 8.25973719e-17)
118             	(1.00867349e+00 5.53793509e-02 8.23680045e-17)
119             	(1.00873405e+00 5.54355429e-02 8.21466624e-17)
120             	(1.00879400e+00 5.54895995e-02 8.19344027e-17)
121             	(1.00885278e+00 5.55416037e-02 8.17308486e-17)
122             	(1.00890999e+00 5.55916412e-02 8.15304083e-17)
123             	(1.00896602e+00 5.56397861e-02 8.13354161e-17)
124             	(1.00902060e+00 5.56859863e-02 8.11277048e-17)
125             	(1.00907381e+00 5.57303431e-02 8.09159863e-17)
126             	(1.00912592e+00 5.57730700e-02 8.07364445e-17)
127             	(1.00917718e+00 5.58141905e-02 8.05709075e-17)
128             	(1.00922818e+00 5.58537715e-02 8.04067292e-17)
129             	(1.00927913e+00 5.58918708e-02 8.02458224e-17)
130             	(1.00933015e+00 5.59285428e-02 8.00878810e-17)
131             	(1.00938128e+00 5.59638446e-02 7.99358657e-17)
132             	(1.00943231e+00 5.59978273e-02 7.97862259e-17)
133             	(1.00948316e+00 5.60305373e-02 7.96388821e-17)
134             	(1.00953383e+00 5.60620193e-02 7.94960696e-17)
135             	(1.00958429e+00 5.60923179e-02 7.93571118e-17)
136             	(1.00963430e+00 5.61214432e-02 7.92516281e-17)
137             	(1.00968374e+00 5.61494620e-02 7.91608496e-17)
138             	(1.00973245e+00 5.61764531e-02 7.90519464e-17)
139             	(1.00978023e+00 5.62024314e-02 7.89378040e-17)
140             	(1.00982707e+00 5.62274216e-02 7.88205659e-17)
141             	(1.00987298e+00 5.62514513e-02 7.87046532e-17)
142             	(1.00991795e+00 5.62745539e-02 7.85918633e-17)
143             	(1.00996203e+00 5.62967652e-02 7.84824306e-17)
144             	(1.01000527e+00 5.63181195e-02 7.83762747e-17)
145             	(1.01004777e+00 5.63386514e-02 7.82730848e-17)
146             	(1.01008957e+00 5.63583931e-02 7.81731259e-17)
147             	(1.01013080e+00 5.63773773e-02 7.80765263e-17)
148             	(1.01017148e+00 5.63956341e-02 7.79829353e-17)
149             	(1.01021163e+00 5.64131673e-02 7.78895488e-17)
150             	(1.01025135e+00 5.64299726e-02 7.77941785e-17)
151             	(1.01029064e+00 5.64461618e-02 7.77104555e-17)
152             	(1.01032939e+00 5.64617255e-02 7.76304168e-17)
153             	(1.01036752e+00 5.64766942e-02 7.75516118e-17)
154             	(1.01040511e+00 5.64910916e-02 7.74752646e-17)
155             	(1.01044259e+00 5.65049391e-02 7.74009846e-17)
156             	(1.01047955e+00 5.65182567e-02 7.73286476e-17)
157             	(1.01051573e+00 5.65310615e-02 7.72578831e-17)
158             	(1.01055118e+00 5.65433700e-02 7.71883944e-17)
159             	(1.01058593e+00 5.65552030e-02 7.71215106e-17)
160             	(1.01061995e+00 5.65665779e-02 7.70568933e-17)
161             	(1.01065303e+00 5.65775116e-02 7.69942216e-17)
162             	(1.01068516e+00 5.65880208e-02 7.69333494e-17)
163             	(1.01071645e+00 5.65981211e-02 7.68743242e-17)
164             	(1.01074733e+00 5.66078280e-02 7.68170405e-17)
165             	(1.01077800e+00 5.66171557e-02 7.67615602e-17)
166             	(1.01080821e+00 5.66261003e-02 7.67061258e-17)
167             	(1.01083763e+00 5.66346520e-02 7.66488298e-17)
168             	(1.01086607e+00 5.66428580e-02 7.65942475e-17)
169             	(1.01089367e+00 5.66507340e-02 7.65442165e-17)
170             	(1.01092084e+00 5.66582960e-02 7.64973881e-17)
171             	(1.01094771e+00 5.66655585e-02 7.64530956e-17)
172             	(1.01097423e+00 5.66725339e-02 7.64103272e-17)
173             	(1.01100004e+00 5.66792317e-02 7.63683703e-17)
174             	(1.01102478e+00 5.66856644e-02 7.63277369e-17)
175             	(1.01104844e+00 5.66918414e-02 7.62882885e-17)
176             	(1.01107136e+00 5.66977719e-02 7.62499446e-17)
177             	(1.01109385e+00 5.67034647e-02 7.62126800e-17)
178             	(1.01111607e+00 5.67089288e-02 7.61764677e-17)
179             	(1.01113800e+00 5.67141724e-02 7.61412969e-17)
180             	(1.01115957e+00 5.67192036e-02 7.61071569e-17)
181             	(1.01118044e+00 5.67240299e-02 7.60740736e-17)
182             	(1.01120053e+00 5.67286591e-02 7.60420237e-17)
183             	(1.01121995e+00 5.67330985e-02 7.60109168e-17)
184             	(1.01123883e+00 5.67373546e-02 7.59807826e-17)
185             	(1.01125726e+00 5.67414346e-02 7.59515921e-17)
186             	(1.01127531e+00 5.67453447e-02 7.59232762e-17)
187             	(1.01129296e+00 5.67490912e-02 7.58958303e-17)
188             	(1.01131010e+00 5.67526800e-02 7.58692253e-17)
189             	(1.01132666e+00 5.67561191e-02 7.58434553e-17)
190             	(1.01134266e+00 5.67594139e-02 7.58184767e-17)
191             	(1.01135808e+00 5.67625690e-02 7.57950076e-17)
192             	(1.01137299e+00 5.67655893e-02 7.57733323e-17)
193             	(1.01138747e+00 5.67684812e-02 7.57519113e-17)
194             	(1.01140155e+00 5.67712488e-02 7.57309749e-17)
195             	(1.01141528e+00 5.67738963e-02 7.57105655e-17)
196             	(1.01142862e+00 5.67764274e-02 7.56906480e-17)
197             	(1.01144151e+00 5.67788455e-02 7.56712129e-17)
198             	(1.01145390e+00 5.67811543e-02 7.56522676e-17)
199             	(1.01146584e+00 5.67833574e-02 7.56338761e-17)
200             	(1.01147737e+00 5.67854553e-02 7.56197413e-17)
201             	(1.01148855e+00 5.67874586e-02 7.56044339e-17)
202             	(1.01149937e+00 5.67893708e-02 7.55873821e-17)
203             	(1.01150984e+00 5.67911913e-02 7.55711993e-17)
204             	(1.01151993e+00 5.67929234e-02 7.55555552e-17)
205             	(1.01152968e+00 5.67945706e-02 7.55405848e-17)
206             	(1.01153912e+00 5.67961362e-02 7.55261747e-17)
207             	(1.01154827e+00 5.67976233e-02 7.55122412e-17)
208             	(1.01155710e+00 5.67990351e-02 7.54987636e-17)
209             	(1.01156560e+00 5.68003743e-02 7.54857011e-17)
210             	(1.01157378e+00 5.68016437e-02 7.54730285e-17)
211             	(1.01158166e+00 5.68028457e-02 7.54607520e-17)
212             	(1.01158925e+00 5.68039831e-02 7.54488416e-17)
213             	(1.01159653e+00 5.68050578e-02 7.54373800e-17)
214             	(1.01160354e+00 5.68060722e-02 7.54262680e-17)
215             	(1.01161031e+00 5.68070290e-02 7.54153877e-17)
216             	(1.01161684e+00 5.68079300e-02 7.54048624e-17)
217             	(1.01162314e+00 5.68087773e-02 7.53946605e-17)
218             	(1.01162917e+00 5.68095728e-02 7.53847552e-17)
219             	(1.01163496e+00 5.68103183e-02 7.53751510e-17)
220             	(1.01164050e+00 5.68110158e-02 7.53658307e-17)
221             	(1.01164591e+00 5.68116669e-02 7.53567905e-17)
222             	(1.01165112e+00 5.68122734e-02 7.53480104e-17)
223             	(1.01165609e+00 5.68128367e-02 7.53394927e-17)
224             	(1.01166083e+00 5.68133585e-02 7.53312141e-17)
225             	(1.01166542e+00 5.68138403e-02 7.53231693e-17)
226             	(1.01166984e+00 5.68142835e-02 7.53153720e-17)
227             	(1.01167408e+00 5.68146894e-02 7.53077973e-17)
228             	(1.01167816e+00 5.68150595e-02 7.53004369e-17)
229             	(1.01168207e+00 5.68153950e-02 7.52932785e-17)
230             	(1.01168584e+00 5.68156971e-02 7.52863316e-17)
231             	(1.01168944e+00 5.68159671e-02 7.52795737e-17)
232             	(1.01169288e+00 5.68162060e-02 7.52730125e-17)
233             	(1.01169616e+00 5.68164150e-02 7.52666336e-17)
234             	(1.01169928e+00 5.68165952e-02 7.52604299e-17)
235             	(1.01170225e+00 5.68167475e-02 7.52544004e-17)
236             	(1.01170506e+00 5.68168730e-02 7.52485366e-17)
237             	(1.01170772e+00 5.68169726e-02 7.52428306e-17)
238             	(1.01171023e+00 5.68170472e-02 7.52372850e-17)
239             	(1.01171260e+00 5.68170978e-02 7.52318779e-17)
240             	(1.01171489e+00 5.68171251e-02 7.52266173e-17)
241             	(1.01171708e+00 5.68171300e-02 7.52214887e-17)
242             	(1.01171917e+00 5.68171145e-02 7.52165110e-17)
243             	(1.01172115e+00 5.68170800e-02 7.52116617e-17)
244             	(1.01172304e+00 5.68170267e-02 7.52069334e-17)
245             	(1.01172483e+00 5.68169549e-02 7.52023326e-17)
246             	(1.01172652e+00 5.68168647e-02 7.51978386e-17)
247             	(1.01172812e+00 5.68167565e-02 7.51934578e-17)
248             	(1.01172962e+00 5.68166307e-02 7.51891947e-17)
249             	(1.01173104e+00 5.68164879e-02 7.51850328e-17)
250             	(1.01173237e+00 5.68163285e-02 7.51809771e-17)
251             	(1.01173363e+00 5.68161533e-02 7.51770161e-17)
252             	(1.01173481e+00 5.68159626e-02 7.51731612e-17)
253             	(1.01173591e+00 5.68157572e-02 7.51693992e-17)
254             	(1.01173696e+00 5.68155374e-02 7.51657152e-17)
255             	(1.01173794e+00 5.68153037e-02 7.51621177e-17)
256             	(1.01173887e+00 5.68150567e-02 7.51586165e-17)
257             	(1.01173974e+00 5.68147970e-02 7.51551935e-17)
258             	(1.01174056e+00 5.68145248e-02 7.51518500e-17)
259             	(1.01174131e+00 5.68142406e-02 7.51485701e-17)
260             	(1.01174201e+00 5.68139449e-02 7.51453873e-17)
261             	(1.01174266e+00 5.68136381e-02 7.51422708e-17)
262             	(1.01174326e+00 5.68133206e-02 7.51392172e-17)
263             	(1.01174381e+00 5.68129896e-02 7.51362470e-17)
264             	(1.01174432e+00 5.68126444e-02 7.51333678e-17)
265             	(1.01174477e+00 5.68122905e-02 7.51306110e-17)
266             	(1.01174528e+00 5.68119289e-02 7.51274879e-17)
267             	(1.01174565e+00 5.68115607e-02 7.51250955e-17)
268             	(1.01174597e+00 5.68111855e-02 7.51224685e-17)
269             	(1.01174627e+00 5.68108027e-02 7.51198941e-17)
270             	(1.01174655e+00 5.68104117e-02 7.51173504e-17)
271             	(1.01174679e+00 5.68100125e-02 7.51148369e-17)
272             	(1.01174701e+00 5.68096052e-02 7.51123571e-17)
273             	(1.01174719e+00 5.68091902e-02 7.51099197e-17)
274             	(1.01174734e+00 5.68087677e-02 7.51075252e-17)
275             	(1.01174747e+00 5.68083382e-02 7.51051655e-17)
276             	(1.01174758e+00 5.68079020e-02 7.51028481e-17)
277             	(1.01174766e+00 5.68074595e-02 7.51005589e-17)
278             	(1.01174772e+00 5.68070109e-02 7.50983028e-17)
279             	(1.01174777e+00 5.68065565e-02 7.50960860e-17)
280             	(1.01174779e+00 5.68060965e-02 7.50938906e-17)
281             	(1.01174780e+00 5.68056310e-02 7.50917413e-17)
282             	(1.01174779e+00 5.68051621e-02 7.50896160e-17)
283             	(1.01174776e+00 5.68046897e-02 7.50875236e-17)
284             	(1.01174771e+00 5.68042135e-02 7.50854638e-17)
285             	(1.01174765e+00 5.68037333e-02 7.50834335e-17)
286             	(1.01174758e+00 5.68032491e-02 7.50814207e-17)
287             	(1.01174749e+00 5.68027606e-02 7.50794452e-17)
288             	(1.01174739e+00 5.68022679e-02 7.50774458e-17)
289             	(1.01174729e+00 5.68017710e-02 7.50755179e-17)
290             	(1.01174717e+00 5.68012700e-02 7.50736100e-17)
291             	(1.01174704e+00 5.68007650e-02 7.50717241e-17)
292             	(1.01174690e+00 5.68002563e-02 7.50698645e-17)
293             	(1.01174676e+00 5.67997439e-02 7.50680272e-17)
294             	(1.01174661e+00 5.67992278e-02 7.50662158e-17)
295             	(1.01174645e+00 5.67987082e-02 7.50644249e-17)
296             	(1.01174629e+00 5.67981854e-02 7.50626513e-17)
297             	(1.01174612e+00 5.67976594e-02 7.50609031e-17)
298             	(1.01174595e+00 5.67971302e-02 7.50591726e-17)
299             	(1.01174577e+00 5.67965981e-02 7.50574631e-17)
300             	(1.01174559e+00 5.67960630e-02 7.50557755e-17)
301             	(1.01174540e+00 5.67955252e-02 7.50540966e-17)
302             	(1.01174521e+00 5.67949847e-02 7.50524457e-17)
303             	(1.01174501e+00 5.67944416e-02 7.50507966e-17)
304             	(1.01174482e+00 5.67938959e-02 7.50491314e-17)
305             	(1.01174461e+00 5.67933483e-02 7.50476721e-17)
306             	(1.01174441e+00 5.67927985e-02 7.50460308e-17)
307             	(1.01174421e+00 5.67922463e-02 7.50444516e-17)
308             	(1.01174400e+00 5.67916920e-02 7.50428807e-17)
309             	(1.01174380e+00 5.67911355e-02 7.50413293e-17)
310             	(1.01174360e+00 5.67905771e-02 7.50397936e-17)
311             	(1.01174339e+00 5.67900174e-02 7.50382711e-17)
312             	(1.01174319e+00 5.67894570e-02 7.50367626e-17)
313             	(1.01174298e+00 5.67888960e-02 7.50352684e-17)
314             	(1.01174278e+00 5.67883341e-02 7.50337838e-17)
315             	(1.01174257e+00 5.67877711e-02 7.50323064e-17)
316             	(1.01174237e+00 5.67872070e-02 7.50308377e-17)
317             	(1.01174216e+00 5.67866415e-02 7.50293745e-17)
318             	(1.01174194e+00 5.67860747e-02 7.50279216e-17)
319             	(1.01174174e+00 5.67855064e-02 7.50264761e-17)
320             	(1.01174153e+00 5.67849367e-02 7.50250330e-17)
321             	(1.01174133e+00 5.67843656e-02 7.50236138e-17)
322             	(1.01174113e+00 5.67837931e-02 7.50221881e-17)
323             	(1.01174094e+00 5.67832193e-02 7.50207778e-17)
324             	(1.01174075e+00 5.67826442e-02 7.50193765e-17)
325             	(1.01174056e+00 5.67820679e-02 7.50179834e-17)
326             	(1.01174037e+00 5.67814905e-02 7.50165973e-17)
327             	(1.01174018e+00 5.67809118e-02 7.50152204e-17)
328             	(1.01173999e+00 5.67803322e-02 7.50138509e-17)
329             	(1.01173981e+00 5.67797515e-02 7.50124869e-17)
330             	(1.01173962e+00 5.67791698e-02 7.50111304e-17)
331             	(1.01173944e+00 5.67785871e-02 7.50097783e-17)
332             	(1.01173926e+00 5.67780038e-02 7.50084359e-17)
333             	(1.01173908e+00 5.67774205e-02 7.50071010e-17)
334             	(1.01173891e+00 5.67768373e-02 7.50057713e-17)
335             	(1.01173875e+00 5.67762539e-02 7.50044491e-17)
336             	(1.01173858e+00 5.67756705e-02 7.50031355e-17)
337             	(1.01173840e+00 5.67750867e-02 7.50018273e-17)
338             	(1.01173823e+00 5.67745026e-02 7.50005169e-17)
339             	(1.01173806e+00 5.67739179e-02 7.49992066e-17)
340             	(1.01173789e+00 5.67733328e-02 7.49979025e-17)
341             	(1.01173773e+00 5.67727470e-02 7.49966050e-17)
342             	(1.01173757e+00 5.67721607e-02 7.49953100e-17)
343             	(1.01173741e+00 5.67715738e-02 7.49940198e-17)
344             	(1.01173726e+00 5.67709863e-02 7.49927343e-17)
345             	(1.01173711e+00 5.67703982e-02 7.49914497e-17)
346             	(1.01173696e+00 5.67698097e-02 7.49901719e-17)
347             	(1.01173682e+00 5.67692213e-02 7.49888987e-17)
348             	(1.01173667e+00 5.67686331e-02 7.49876365e-17)
349             	(1.01173653e+00 5.67680451e-02 7.49863757e-17)
350             	(1.01173640e+00 5.67674571e-02 7.49851194e-17)
351             	(1.01173626e+00 5.67668692e-02 7.49838618e-17)
352             	(1.01173613e+00 5.67662813e-02 7.49826108e-17)
353             	(1.01173600e+00 5.67656934e-02 7.49813591e-17)
354             	(1.01173587e+00 5.67651053e-02 7.49801139e-17)
355             	(1.01173574e+00 5.67645170e-02 7.49788745e-17)
356             	(1.01173562e+00 5.67639290e-02 7.49776340e-17)
357             	(1.01173550e+00 5.67633413e-02 7.49763964e-17)
358             	(1.01173538e+00 5.67627539e-02 7.49751685e-17)
359             	(1.01173526e+00 5.67621669e-02 7.49739432e-17)
360             	(1.01173514e+00 5.67615801e-02 7.49727197e-17)
361             	(1.01173503e+00 5.67609940e-02 7.49715013e-17)
362             	(1.01173492e+00 5.67604087e-02 7.49702864e-17)
363             	(1.01173481e+00 5.67598243e-02 7.49690799e-17)
364             	(1.01173471e+00 5.67592404e-02 7.49678755e-17)
365             	(1.01173460e+00 5.67586572e-02 7.49666727e-17)
366             	(1.01173450e+00 5.67580743e-02 7.49654695e-17)
367             	(1.01173440e+00 5.67574918e-02 7.49642769e-17)
368             	(1.01173431e+00 5.67569094e-02 7.49630803e-17)
369             	(1.01173421e+00 5.67563271e-02 7.49618888e-17)
370             	(1.01173412e+00 5.67557448e-02 7.49606987e-17)
371             	(1.01173402e+00 5.67551624e-02 7.49595101e-17)
372             	(1.01173393e+00 5.67545799e-02 7.49583191e-17)
373             	(1.01173385e+00 5.67539973e-02 7.49571321e-17)
374             	(1.01173376e+00 5.67534144e-02 7.49559461e-17)
375             	(1.01173367e+00 5.67528313e-02 7.49547651e-17)
376             	(1.01173359e+00 5.67522480e-02 7.49535802e-17)
377             	(1.01173351e+00 5.67516644e-02 7.49523996e-17)
378             	(1.01173343e+00 5.67510807e-02 7.49512165e-17)
379             	(1.01173335e+00 5.67504968e-02 7.49500388e-17)
380             	(1.01173327e+00 5.67499126e-02 7.49488583e-17)
381             	(1.01173320e+00 5.67493282e-02 7.49476819e-17)
382             	(1.01173313e+00 5.67487437e-02 7.49465059e-17)
383             	(1.01173306e+00 5.67481590e-02 7.49453318e-17)
384             	(1.01173299e+00 5.67475741e-02 7.49441596e-17)
385             	(1.01173292e+00 5.67469891e-02 7.49429842e-17)
386             	(1.01173285e+00 5.67464039e-02 7.49418127e-17)
387             	(1.01173278e+00 5.67458187e-02 7.49406414e-17)
388             	(1.01173272e+00 5.67452333e-02 7.49394708e-17)
389             	(1.01173266e+00 5.67446478e-02 7.49383014e-17)
390             	(1.01173259e+00 5.67440622e-02 7.49371314e-17)
391             	(1.01173253e+00 5.67434766e-02 7.49359631e-17)
392             	(1.01173247e+00 5.67428908e-02 7.49347941e-17)
393             	(1.01173242e+00 5.67423051e-02 7.49336252e-17)
394             	(1.01173236e+00 5.67417192e-02 7.49324591e-17)
395             	(1.01173230e+00 5.67411334e-02 7.49312896e-17)
396             	(1.01173225e+00 5.67405475e-02 7.49301225e-17)
397             	(1.01173220e+00 5.67399616e-02 7.49289556e-17)
398             	(1.01173214e+00 5.67393757e-02 7.49277898e-17)
399             	(1.01173209e+00 5.67387899e-02 7.49266252e-17)
400             	(1.01173204e+00 5.67382040e-02 7.49254567e-17)
401             	(1.01173199e+00 5.67376181e-02 7.49242920e-17)
402             	(1.01173195e+00 5.67370324e-02 7.49231261e-17)
403             	(1.01173190e+00 5.67364466e-02 7.49219608e-17)
404             	(1.01173185e+00 5.67358608e-02 7.49207950e-17)
405             	(1.01173181e+00 5.67352752e-02 7.49196313e-17)
406             	(1.01173176e+00 5.67346896e-02 7.49184662e-17)
407             	(1.01173172e+00 5.67341040e-02 7.49173024e-17)
408             	(1.01173168e+00 5.67335185e-02 7.49161368e-17)
409             	(1.01173164e+00 5.67329331e-02 7.49149727e-17)
410             	(1.01173160e+00 5.67323478e-02 7.49138088e-17)
411             	(1.01173156e+00 5.67317626e-02 7.49126450e-17)
412             	(1.01173152e+00 5.67311775e-02 7.49114876e-17)
413             	(1.01173148e+00 5.67305925e-02 7.49103215e-17)
414             	(1.01173144e+00 5.67300076e-02 7.49091591e-17)
415             	(1.01173141e+00 5.67294227e-02 7.49079965e-17)
416             	(1.01173137e+00 5.67288380e-02 7.49068289e-17)
417             	(1.01173134e+00 5.67282534e-02 7.49056702e-17)
418             	(1.01173130e+00 5.67276689e-02 7.49045108e-17)
419             	(1.01173127e+00 5.67270846e-02 7.49033485e-17)
420             	(1.01173124e+00 5.67265004e-02 7.49021868e-17)
421             	(1.01173120e+00 5.67259163e-02 7.49010184e-17)
422             	(1.01173117e+00 5.67253324e-02 7.48998590e-17)
423             	(1.01173114e+00 5.67247487e-02 7.48986983e-17)
424             	(1.01173111e+00 5.67241651e-02 7.48975408e-17)
425             	(1.01173108e+00 5.67235817e-02 7.48963805e-17)
426             	(1.01173105e+00 5.67229984e-02 7.48952202e-17)
427             	(1.01173102e+00 5.67224153e-02 7.48940590e-17)
428             	(1.01173100e+00 5.67218323e-02 7.48929010e-17)
429             	(1.01173097e+00 5.67212495e-02 7.48917411e-17)
430             	(1.01173094e+00 5.67206668e-02 7.48905822e-17)
431             	(1.01173092e+00 5.67200844e-02 7.48894273e-17)
432             	(1.01173089e+00 5.67195022e-02 7.48882609e-17)
433             	(1.01173086e+00 5.67189201e-02 7.48871043e-17)
434             	(1.01173084e+00 5.67183381e-02 7.48859293e-17)
435             	(1.01173081e+00 5.67177559e-02 7.48846869e-17)
436             	(1.01173079e+00 5.67171739e-02 7.48834872e-17)
437             	(1.01173077e+00 5.67165919e-02 7.48823123e-17)
438             	(1.01173074e+00 5.67160101e-02 7.48811453e-17)
439             	(1.01173072e+00 5.67154284e-02 7.48799766e-17)
440             	(1.01173070e+00 5.67148469e-02 7.48788122e-17)
441             	(1.01173068e+00 5.67142655e-02 7.48776407e-17)
442             	(1.01173066e+00 5.67136843e-02 7.48764753e-17)
443             	(1.01173064e+00 5.67131032e-02 7.48753095e-17)
444             	(1.01173061e+00 5.67125224e-02 7.48741490e-17)
445             	(1.01173059e+00 5.67119418e-02 7.48729834e-17)
446             	(1.01173057e+00 5.67113614e-02 7.48718185e-17)
447             	(1.01173055e+00 5.67107811e-02 7.48706528e-17)
448             	(1.01173054e+00 5.67102011e-02 7.48694835e-17)
449             	(1.01173052e+00 5.67096213e-02 7.48683269e-17)
450             	(1.01173050e+00 5.67090417e-02 7.48671662e-17)
451             	(1.01173048e+00 5.67084624e-02 7.48659969e-17)
452             	(1.01173046e+00 5.67078832e-02 7.48648309e-17)
453             	(1.01173044e+00 5.67073042e-02 7.48636553e-17)
454             	(1.01173043e+00 5.67067254e-02 7.48624888e-17)
455             	(1.01173041e+00 5.67061469e-02 7.48613320e-17)
456             	(1.01173039e+00 5.67055686e-02 7.48601596e-17)
457             	(1.01173038e+00 5.67049906e-02 7.48590021e-17)
458             	(1.01173036e+00 5.67044128e-02 7.48578402e-17)
459             	(1.01173035e+00 5.67038352e-02 7.48566761e-17)
460             	(1.01173033e+00 5.67032577e-02 7.48555039e-17)
461             	(1.01173031e+00 5.67026805e-02 7.48543408e-17)
462             	(1.01173030e+00 5.67021036e-02 7.48531740e-17)
463             	(1.01173028e+00 5.67015269e-02 7.48520126e-17)
464             	(1.01173027e+00 5.67009504e-02 7.48508495e-17)
465             	(1.01173026e+00 5.67003742e-02 7.48496832e-17)
466             	(1.01173024e+00 5.66997982e-02 7.48485194e-17)
467             	(1.01173023e+00 5.66992224e-02 7.48473566e-17)