/*--------------------------------*- C++ -*----------------------------------*\
| =========                 |                                                 |
| \\      /  F ield         | OpenFOAM: The Open Source CFD Toolbox           |
|  \\    /   O peration     | Version:  2206                                  |
|   \\  /    A nd           | Website:  www.openfoam.com                      |
|    \\/     M anipulation  |                                                 |
\*---------------------------------------------------------------------------*/
FoamFile
{
    version     2.0;
    format      ascii;
    arch        "LSB;label=32;scalar=64";
    class       volScalarField;
    location    "1400";
    object      k;
}
// * * * * * * * * * * * * * * * * * * * * * * * * * * * * * * * * * * * * * //

dimensions      [0 2 -2 0 0 0 0];

internalField   nonuniform List<scalar> 
13056
(
9.3064489e-05
7.3799048e-05
7.2633125e-05
7.2570442e-05
7.2615005e-05
7.2632396e-05
7.2637219e-05
7.2639646e-05
7.2642209e-05
7.2645462e-05
7.2649632e-05
7.265493e-05
7.2661616e-05
7.267004e-05
7.268067e-05
7.2694211e-05
7.2711709e-05
7.2734417e-05
7.2767863e-05
7.2799914e-05
7.2933532e-05
7.2721046e-05
7.4389314e-05
1.9723667e-05
3.1227002e-07
4.8554692e-08
2.4626985e-08
1.6618986e-08
1.2703125e-08
1.0318003e-08
8.7061245e-09
7.5291338e-09
6.6296921e-09
5.9200802e-09
5.3448403e-09
4.8682415e-09
4.4665865e-09
4.1233553e-09
3.8265298e-09
3.5671688e-09
3.338542e-09
3.1353973e-09
2.9536331e-09
2.7900399e-09
2.6419582e-09
2.5072553e-09
2.3841659e-09
2.2712235e-09
2.167201e-09
2.0710644e-09
1.9819318e-09
1.8990475e-09
1.8217621e-09
1.7495133e-09
1.6818142e-09
1.6182402e-09
1.5584167e-09
1.5020131e-09
1.4487381e-09
1.3983329e-09
1.3505672e-09
1.3052367e-09
1.2621601e-09
1.2211734e-09
1.1821278e-09
1.1448899e-09
1.1093405e-09
1.0753727e-09
1.0428899e-09
1.0118057e-09
9.8204485e-10
9.5354086e-10
9.262346e-10
9.0007493e-10
8.7501743e-10
8.5102478e-10
8.2806705e-10
8.0612509e-10
7.8519703e-10
7.6528846e-10
7.4641328e-10
7.2859598e-10
7.1186977e-10
6.962816e-10
6.8190693e-10
6.6885217e-10
6.5725107e-10
6.4730988e-10
6.394007e-10
6.3338836e-10
6.3089469e-10
6.3094341e-10
6.3497213e-10
6.4332048e-10
6.568247e-10
6.76257e-10
7.0209238e-10
7.3432757e-10
7.7320348e-10
8.1816749e-10
8.6627693e-10
9.1274858e-10
9.5477432e-10
9.8715898e-10
1.0132474e-09
1.0322569e-09
1.0462538e-09
1.0563852e-09
1.06348e-09
1.068092e-09
1.0706077e-09
1.0713198e-09
1.0702489e-09
1.0674302e-09
1.0630957e-09
1.0574505e-09
1.050737e-09
1.0432515e-09
1.0351843e-09
1.0266981e-09
1.0180003e-09
1.0092233e-09
1.00042e-09
9.9164886e-10
9.8299755e-10
9.7450391e-10
9.6616405e-10
9.5795914e-10
9.4989523e-10
9.4196938e-10
9.3421167e-10
9.2626389e-10
9.1871224e-10
9.0937044e-10
9.018209e-10
8.9089853e-10
9.3060639e-05
7.3791764e-05
7.2625738e-05
7.2562986e-05
7.2607535e-05
7.2624924e-05
7.2629747e-05
7.2632174e-05
7.2634737e-05
7.263799e-05
7.2642159e-05
7.2647457e-05
7.2654143e-05
7.2662567e-05
7.2673197e-05
7.2686739e-05
7.2704237e-05
7.2726945e-05
7.2760391e-05
7.279244e-05
7.292606e-05
7.271355e-05
7.4381838e-05
1.9726046e-05
4.80444e-08
7.4564792e-09
3.78193e-09
2.5521527e-09
1.9508001e-09
1.5845209e-09
1.3369874e-09
1.1562389e-09
1.0181131e-09
9.0913906e-10
8.2080032e-10
7.4760976e-10
6.8592824e-10
6.3321883e-10
5.876359e-10
5.4780634e-10
5.1269659e-10
4.8150007e-10
4.5358694e-10
4.2846427e-10
4.057237e-10
3.8503771e-10
3.6613516e-10
3.4879089e-10
3.3281644e-10
3.1805302e-10
3.0436518e-10
2.9163687e-10
2.7976837e-10
2.6867332e-10
2.5827693e-10
2.4851401e-10
2.3932708e-10
2.3066544e-10
2.2248431e-10
2.1474392e-10
2.0740887e-10
2.0044783e-10
1.9383293e-10
1.8753902e-10
1.8154322e-10
1.7582504e-10
1.7036619e-10
1.6515023e-10
1.6016233e-10
1.5538918e-10
1.5081916e-10
1.4644214e-10
1.4224956e-10
1.3823324e-10
1.3438633e-10
1.307031e-10
1.2717898e-10
1.2381106e-10
1.2059906e-10
1.1754381e-10
1.1464713e-10
1.1191203e-10
1.0934665e-10
1.0695738e-10
1.0475536e-10
1.0275715e-10
1.0098353e-10
9.9466425e-11
9.826283e-11
9.7349161e-11
9.6972505e-11
9.7003095e-11
9.7650457e-11
9.8967933e-11
1.0108517e-10
1.0412173e-10
1.0815058e-10
1.1316984e-10
1.1921279e-10
1.2618624e-10
1.336281e-10
1.4080037e-10
1.4727821e-10
1.5226833e-10
1.5629065e-10
1.5922551e-10
1.6139149e-10
1.6296449e-10
1.6407069e-10
1.6479411e-10
1.6519351e-10
1.6531351e-10
1.6515696e-10
1.6472898e-10
1.6406528e-10
1.6319777e-10
1.621642e-10
1.6101057e-10
1.597665e-10
1.5845732e-10
1.5711512e-10
1.5576042e-10
1.544015e-10
1.5304743e-10
1.5171175e-10
1.5040032e-10
1.4911258e-10
1.4784568e-10
1.4660054e-10
1.4537673e-10
1.4417883e-10
1.4295195e-10
1.4178575e-10
1.4034506e-10
1.3917954e-10
1.374932e-10
9.3048364e-05
7.3768924e-05
7.2602599e-05
7.2539638e-05
7.2584144e-05
7.2601527e-05
7.260635e-05
7.2608775e-05
7.2611338e-05
7.261459e-05
7.261876e-05
7.2624058e-05
7.2630744e-05
7.2639168e-05
7.2649798e-05
7.266334e-05
7.2680838e-05
7.2703546e-05
7.2736991e-05
7.2769032e-05
7.2902653e-05
7.2690092e-05
7.4358269e-05
1.972807e-05
1.5042072e-08
2.3260494e-09
1.1797729e-09
7.9614537e-10
6.0855914e-10
4.9430286e-10
4.170874e-10
3.6070435e-10
3.1761691e-10
2.8362291e-10
2.5606551e-10
2.3323359e-10
2.1399218e-10
1.9754993e-10
1.8333093e-10
1.7090676e-10
1.5995491e-10
1.5022375e-10
1.4151683e-10
1.3368039e-10
1.2658707e-10
1.201347e-10
1.1423871e-10
1.0882886e-10
1.0384636e-10
9.9241703e-11
9.4972531e-11
9.1002612e-11
8.7300854e-11
8.3840289e-11
8.0597548e-11
7.7552325e-11
7.4686973e-11
7.1986109e-11
6.9435534e-11
6.7022584e-11
6.4736224e-11
6.2566689e-11
6.0505307e-11
5.8544252e-11
5.6676377e-11
5.4895316e-11
5.3195278e-11
5.1571204e-11
5.0018383e-11
4.8532432e-11
4.710925e-11
4.5746368e-11
4.4444115e-11
4.3198152e-11
4.2006013e-11
4.0866092e-11
3.9777092e-11
3.8738374e-11
3.7749999e-11
3.6812056e-11
3.5923458e-11
3.5080888e-11
3.4304368e-11
3.3591587e-11
3.2943632e-11
3.2367265e-11
3.1870929e-11
3.1466703e-11
3.1172664e-11
3.0967769e-11
3.0920159e-11
3.1095501e-11
3.1504101e-11
3.2171504e-11
3.3147996e-11
3.4479379e-11
3.6191756e-11
3.8280007e-11
4.0737954e-11
4.3491306e-11
4.6331122e-11
4.898835e-11
5.1340269e-11
5.3154644e-11
5.4627215e-11
5.5730337e-11
5.6575704e-11
5.7221922e-11
5.7706049e-11
5.805173e-11
5.8276636e-11
5.8393768e-11
5.8402489e-11
5.8302673e-11
5.8106029e-11
5.7825994e-11
5.7478487e-11
5.7081631e-11
5.6647885e-11
5.6187763e-11
5.5713277e-11
5.5232325e-11
5.4748648e-11
5.4265904e-11
5.3788898e-11
5.3319868e-11
5.285895e-11
5.240542e-11
5.1959649e-11
5.1521639e-11
5.1092452e-11
5.0655609e-11
5.0236946e-11
4.9734128e-11
4.9318283e-11
4.8715788e-11
9.3027281e-05
7.3729792e-05
7.2562959e-05
7.2499644e-05
7.2544075e-05
7.256145e-05
7.2566271e-05
7.2568695e-05
7.2571256e-05
7.2574508e-05
7.2578677e-05
7.2583975e-05
7.2590661e-05
7.2599086e-05
7.2609717e-05
7.2623259e-05
7.2640757e-05
7.2663463e-05
7.2696905e-05
7.2728935e-05
7.2862551e-05
7.2649915e-05
7.4317847e-05
1.9729892e-05
6.7257537e-09
1.0258339e-09
5.2030568e-10
3.5112352e-10
2.684134e-10
2.1803916e-10
1.8399425e-10
1.5913303e-10
1.401336e-10
1.2514304e-10
1.1298939e-10
1.0291978e-10
9.4434398e-11
8.7184427e-11
8.0915428e-11
7.5438185e-11
7.06102e-11
6.632044e-11
6.2482336e-11
5.9028156e-11
5.5901773e-11
5.3058159e-11
5.0460038e-11
4.807645e-11
4.5881479e-11
4.3853323e-11
4.1973033e-11
4.0224523e-11
3.8594135e-11
3.7069896e-11
3.5641396e-11
3.4299766e-11
3.3038051e-11
3.1850729e-11
3.0730893e-11
2.9672213e-11
2.8669834e-11
2.7719504e-11
2.6817458e-11
2.5960321e-11
2.5144907e-11
2.4368479e-11
2.3628303e-11
2.2922344e-11
2.2248343e-11
2.1603734e-11
2.098543e-11
2.0394257e-11
1.9838805e-11
1.931227e-11
1.8812768e-11
1.8340182e-11
1.7894471e-11
1.7476257e-11
1.7086246e-11
1.672438e-11
1.6386294e-11
1.6059621e-11
1.5798818e-11
1.5592871e-11
1.5437128e-11
1.5340065e-11
1.531231e-11
1.536736e-11
1.5518261e-11
1.5731123e-11
1.6019455e-11
1.6652987e-11
1.7527894e-11
1.868669e-11
2.018681e-11
2.2081348e-11
2.4401522e-11
2.7146903e-11
3.0292492e-11
3.3702919e-11
3.7098792e-11
4.0188638e-11
4.2832305e-11
4.4927307e-11
4.662881e-11
4.7979405e-11
4.9079373e-11
4.9984426e-11
5.0721051e-11
5.1307265e-11
5.1759251e-11
5.2085276e-11
5.2281956e-11
5.234424e-11
5.228014e-11
5.2108076e-11
5.1849877e-11
5.152722e-11
5.1157107e-11
5.0753532e-11
5.032919e-11
4.9893041e-11
4.945083e-11
4.9007151e-11
4.8566358e-11
4.8130944e-11
4.7702008e-11
4.7279751e-11
4.686462e-11
4.6457077e-11
4.6056441e-11
4.5656568e-11
4.5263332e-11
4.4832709e-11
4.4449578e-11
4.3892069e-11
9.2996791e-05
7.3673214e-05
7.250565e-05
7.2441821e-05
7.2486145e-05
7.2503507e-05
7.2508326e-05
7.2510748e-05
7.2513307e-05
7.2516557e-05
7.2520726e-05
7.2526024e-05
7.2532711e-05
7.2541135e-05
7.2551767e-05
7.256531e-05
7.2582807e-05
7.2605511e-05
7.263895e-05
7.2670963e-05
7.280457e-05
7.2591829e-05
7.4259386e-05
1.9731809e-05
3.7484917e-09
5.4779926e-10
2.7785281e-10
1.8752122e-10
1.4339952e-10
1.1653558e-10
9.8376256e-11
8.5111926e-11
7.4973407e-11
6.6972164e-11
6.048194e-11
5.5104494e-11
5.0574571e-11
4.6706302e-11
4.3362893e-11
4.044275e-11
3.7869181e-11
3.5582749e-11
3.35374e-11
3.1697136e-11
3.0032099e-11
2.8518309e-11
2.7135908e-11
2.5868407e-11
2.4701992e-11
2.3625105e-11
2.2627053e-11
2.1699014e-11
2.0833816e-11
2.0024925e-11
1.9266585e-11
1.8554239e-11
1.7885852e-11
1.7261041e-11
1.6674847e-11
1.6122413e-11
1.5601187e-11
1.5109025e-11
1.4644066e-11
1.4204687e-11
1.378911e-11
1.3396045e-11
1.302379e-11
1.2671709e-11
1.2338348e-11
1.2021232e-11
1.1716369e-11
1.1427865e-11
1.1176514e-11
1.0949747e-11
1.074531e-11
1.0564592e-11
1.0409051e-11
1.0281224e-11
1.0183561e-11
1.0116971e-11
1.0074015e-11
1.0030575e-11
1.0092305e-11
1.0240486e-11
1.0467561e-11
1.079157e-11
1.1235654e-11
1.1829482e-11
1.2603494e-11
1.3541046e-11
1.46518e-11
1.633314e-11
1.8479105e-11
2.11892e-11
2.4580217e-11
2.8761534e-11
3.3800077e-11
3.9705128e-11
4.6419922e-11
5.3639977e-11
6.0773526e-11
6.7233936e-11
7.2700548e-11
7.7099576e-11
8.0666626e-11
8.3563045e-11
8.5968986e-11
8.7991867e-11
8.9675891e-11
9.1054128e-11
9.2158948e-11
9.3002704e-11
9.3576682e-11
9.3866285e-11
9.3883026e-11
9.3667402e-11
9.3267385e-11
9.2728181e-11
9.2087088e-11
9.1374532e-11
9.061552e-11
8.9828309e-11
8.9025992e-11
8.8218341e-11
8.7413211e-11
8.6615643e-11
8.5828748e-11
8.5053881e-11
8.4291983e-11
8.3544417e-11
8.2808048e-11
8.208199e-11
8.1356493e-11
8.0608641e-11
7.9910133e-11
7.8890956e-11
9.2956086e-05
7.3597625e-05
7.2429081e-05
7.2364567e-05
7.2408746e-05
7.2426092e-05
7.2430907e-05
7.2433326e-05
7.2435882e-05
7.2439131e-05
7.2443299e-05
7.2448597e-05
7.2455284e-05
7.246371e-05
7.2474342e-05
7.2487885e-05
7.2505382e-05
7.2528084e-05
7.2561516e-05
7.2593507e-05
7.2727101e-05
7.2514224e-05
7.4181278e-05
1.973428e-05
2.5135163e-09
3.3105913e-10
1.6793482e-10
1.1336816e-10
8.6795418e-11
7.0632956e-11
5.9700409e-11
5.1707829e-11
4.559549e-11
4.0768117e-11
3.6846786e-11
3.3597505e-11
3.0862941e-11
2.8531564e-11
2.6519172e-11
2.4763475e-11
2.3216996e-11
2.1843539e-11
2.0615604e-11
1.9511785e-11
1.8514256e-11
1.7608655e-11
1.6783076e-11
1.6027639e-11
1.5334047e-11
1.4695493e-11
1.4104505e-11
1.3555346e-11
1.3043913e-11
1.2566072e-11
1.2118057e-11
1.1697424e-11
1.1305663e-11
1.0946736e-11
1.0615677e-11
1.0307219e-11
1.001993e-11
9.7527697e-12
9.5049113e-12
9.2757397e-12
9.0640286e-12
8.8693547e-12
8.6906031e-12
8.5282539e-12
8.3813298e-12
8.247014e-12
8.119756e-12
8.0074428e-12
7.9464622e-12
7.917236e-12
7.9173337e-12
7.9505769e-12
8.0212805e-12
8.1354979e-12
8.2998162e-12
8.5194899e-12
8.7899479e-12
9.0827931e-12
9.5380512e-12
1.0143737e-11
1.0902032e-11
1.1851149e-11
1.3040552e-11
1.4534508e-11
1.6403317e-11
1.8665675e-11
2.135641e-11
2.5088307e-11
2.9780697e-11
3.5649704e-11
4.2940714e-11
5.1884809e-11
6.2626107e-11
7.5193504e-11
8.9473306e-11
1.0482509e-10
1.200055e-10
1.3377911e-10
1.4542415e-10
1.5484239e-10
1.6247229e-10
1.6869691e-10
1.7388323e-10
1.7825744e-10
1.8191129e-10
1.8491629e-10
1.8734282e-10
1.8921583e-10
1.9051654e-10
1.9121213e-10
1.9132443e-10
1.9094036e-10
1.9016291e-10
1.8908791e-10
1.8779539e-10
1.863505e-10
1.848055e-10
1.8319888e-10
1.8155898e-10
1.7990661e-10
1.7825779e-10
1.7662315e-10
1.7500968e-10
1.7342075e-10
1.7185834e-10
1.7032556e-10
1.6881489e-10
1.6733053e-10
1.6584057e-10
1.643316e-10
1.6290189e-10
1.6081423e-10
9.2904156e-05
7.3501057e-05
7.2331255e-05
7.2265862e-05
7.2309856e-05
7.232718e-05
7.2331992e-05
7.2334407e-05
7.233696e-05
7.2340207e-05
7.2344373e-05
7.2349671e-05
7.2356358e-05
7.2364785e-05
7.2375418e-05
7.2388962e-05
7.2406457e-05
7.2429156e-05
7.2462581e-05
7.2494543e-05
7.2628119e-05
7.2415071e-05
7.4081499e-05
1.973797e-05
2.0508748e-09
2.2145861e-10
1.12368e-10
7.5910336e-11
5.8299604e-11
4.7618319e-11
4.0380716e-11
3.507703e-11
3.1015337e-11
2.7801788e-11
2.5182846e-11
2.3012212e-11
2.1189352e-11
1.9641055e-11
1.8308866e-11
1.7149926e-11
1.6130591e-11
1.5226167e-11
1.4418848e-11
1.3694925e-11
1.3042863e-11
1.245328e-11
1.191838e-11
1.1431709e-11
1.098781e-11
1.058245e-11
1.020912e-11
9.8633697e-12
9.5428287e-12
9.2446069e-12
8.9658888e-12
8.7054917e-12
8.4680354e-12
8.2618091e-12
8.0810798e-12
7.9193842e-12
7.7760223e-12
7.650753e-12
7.5435627e-12
7.4546996e-12
7.3830863e-12
7.3290941e-12
7.2926558e-12
7.2755889e-12
7.277925e-12
7.2973658e-12
7.3280459e-12
7.380976e-12
7.5043738e-12
7.6762477e-12
7.8961489e-12
8.1720087e-12
8.5130742e-12
8.9315603e-12
9.4414913e-12
1.0056242e-11
1.077785e-11
1.1574147e-11
1.2637052e-11
1.3968794e-11
1.5591525e-11
1.7580031e-11
2.0031505e-11
2.3073181e-11
2.6849151e-11
3.1444534e-11
3.6958523e-11
4.4361485e-11
5.363534e-11
6.5207082e-11
7.9557273e-11
9.7139716e-11
1.1824034e-10
1.4292509e-10
1.7098395e-10
2.0117898e-10
2.3108948e-10
2.5828809e-10
2.8130349e-10
2.9995661e-10
3.1506017e-10
3.2739233e-10
3.3766682e-10
3.4633085e-10
3.5356797e-10
3.5952364e-10
3.6433993e-10
3.680667e-10
3.7066749e-10
3.7207702e-10
3.7233695e-10
3.7161884e-10
3.7012583e-10
3.6804642e-10
3.6553846e-10
3.6273039e-10
3.5972462e-10
3.5659675e-10
3.5340277e-10
3.5018368e-10
3.4697068e-10
3.4378458e-10
3.4063941e-10
3.3754199e-10
3.3449625e-10
3.3150838e-10
3.2856315e-10
3.2567193e-10
3.2276627e-10
3.1983762e-10
3.1705197e-10
3.1298351e-10
9.2839796e-05
7.3381143e-05
7.2209767e-05
7.214328e-05
7.2187042e-05
7.2204338e-05
7.2209145e-05
7.2211555e-05
7.2214104e-05
7.2217348e-05
7.2221513e-05
7.2226811e-05
7.2233499e-05
7.2241926e-05
7.225256e-05
7.2266104e-05
7.2283599e-05
7.2306293e-05
7.2339708e-05
7.2371636e-05
7.2505187e-05
7.2291926e-05
7.3957619e-05
1.974379e-05
2.0524924e-09
1.6571036e-10
8.4130655e-11
5.6922606e-11
4.4014634e-11
3.6236028e-11
3.0944869e-11
2.7047358e-11
2.4053473e-11
2.1676611e-11
1.9728344e-11
1.811266e-11
1.6760885e-11
1.5620447e-11
1.4645274e-11
1.3802104e-11
1.3062944e-11
1.2408557e-11
1.1826563e-11
1.1307692e-11
1.084393e-11
1.0428623e-11
1.0056208e-11
9.7221111e-12
9.4224065e-12
9.154464e-12
8.9115146e-12
8.6894713e-12
8.4871181e-12
8.3025108e-12
8.1335167e-12
7.9798239e-12
7.8483041e-12
7.7505156e-12
7.6804284e-12
7.6309265e-12
7.6020197e-12
7.5942696e-12
7.6085438e-12
7.6461061e-12
7.7057368e-12
7.788791e-12
7.8967667e-12
8.0334607e-12
8.2005153e-12
8.3966816e-12
8.6161493e-12
8.8744804e-12
9.2358764e-12
9.6763703e-12
1.0199327e-11
1.0819497e-11
1.1554349e-11
1.2426449e-11
1.3462396e-11
1.4689467e-11
1.6121772e-11
1.7723645e-11
1.9769469e-11
2.2285893e-11
2.5330275e-11
2.9039495e-11
3.3591799e-11
3.9221642e-11
4.6200128e-11
5.4732844e-11
6.504642e-11
7.8667965e-11
9.571301e-11
1.1696693e-10
1.433112e-10
1.7557961e-10
2.14301e-10
2.5960701e-10
3.111314e-10
3.666329e-10
4.2169682e-10
4.7185879e-10
5.1434749e-10
5.488225e-10
5.7672811e-10
5.9951376e-10
6.1848694e-10
6.3447515e-10
6.4782257e-10
6.5880435e-10
6.6768717e-10
6.7456483e-10
6.7937133e-10
6.8198648e-10
6.8248629e-10
6.8118656e-10
6.784612e-10
6.7465685e-10
6.7006402e-10
6.6491908e-10
6.5941014e-10
6.5367615e-10
6.4782023e-10
6.419178e-10
6.3602606e-10
6.3018327e-10
6.244153e-10
6.1873488e-10
6.1314922e-10
6.0766976e-10
6.0226824e-10
5.9696728e-10
5.9163787e-10
5.8627415e-10
5.8116626e-10
5.7370569e-10
9.2761612e-05
7.3235118e-05
7.2061808e-05
7.1993983e-05
7.2037459e-05
7.2054721e-05
7.2059522e-05
7.2061926e-05
7.206447e-05
7.2067711e-05
7.2071874e-05
7.2077171e-05
7.208386e-05
7.2092289e-05
7.2102924e-05
7.2116469e-05
7.2133962e-05
7.2156651e-05
7.2190054e-05
7.222194e-05
7.2355459e-05
7.2141938e-05
7.3806804e-05
1.9752959e-05
2.4310393e-09
1.4339506e-10
7.2874702e-11
4.9436672e-11
3.8664666e-11
3.2250137e-11
2.7856856e-11
2.459094e-11
2.20692e-11
2.0057521e-11
1.8397449e-11
1.7019391e-11
1.5871274e-11
1.4910667e-11
1.40965e-11
1.3399727e-11
1.2792488e-11
1.2257078e-11
1.1784143e-11
1.1367075e-11
1.0999828e-11
1.0677159e-11
1.0394644e-11
1.0148687e-11
9.93612e-12
9.7554574e-12
9.5983957e-12
9.4604302e-12
9.3413101e-12
9.2399455e-12
9.1547577e-12
9.0862437e-12
9.0438147e-12
9.0428893e-12
9.0770269e-12
9.1382928e-12
9.2275526e-12
9.3463811e-12
9.4968207e-12
9.6815525e-12
9.8989178e-12
1.0151683e-11
1.0443751e-11
1.0782012e-11
1.117068e-11
1.1610322e-11
1.2095614e-11
1.2649341e-11
1.3359525e-11
1.4199918e-11
1.5180335e-11
1.6326568e-11
1.7669431e-11
1.9248341e-11
2.1110451e-11
2.3306027e-11
2.587034e-11
2.8766258e-11
3.2393085e-11
3.6818796e-11
4.2160491e-11
4.8656467e-11
5.6617444e-11
6.645347e-11
7.8645438e-11
9.3608469e-11
1.1179841e-10
1.3557911e-10
1.6532522e-10
2.0240848e-10
2.4836693e-10
3.0465718e-10
3.7220753e-10
4.5126088e-10
5.4120452e-10
6.3817088e-10
7.3449415e-10
8.2236807e-10
8.9686313e-10
9.5735395e-10
1.0063067e-09
1.0462718e-09
1.079531e-09
1.1075385e-09
1.130906e-09
1.1501254e-09
1.16567e-09
1.1777074e-09
1.1861237e-09
1.1907091e-09
1.1915961e-09
1.189337e-09
1.1845857e-09
1.1779479e-09
1.1699316e-09
1.1609501e-09
1.1513321e-09
1.1413204e-09
1.1310954e-09
1.1207888e-09
1.1105006e-09
1.1002977e-09
1.0902253e-09
1.0803057e-09
1.0705516e-09
1.060983e-09
1.0515503e-09
1.0422942e-09
1.0329872e-09
1.023625e-09
1.0147057e-09
1.0016779e-09
9.2668031e-05
7.3059821e-05
7.1884162e-05
7.1814725e-05
7.1857856e-05
7.1875075e-05
7.1879868e-05
7.1882265e-05
7.1884802e-05
7.1888039e-05
7.18922e-05
7.1897497e-05
7.1904186e-05
7.1912616e-05
7.1923253e-05
7.1936799e-05
7.195429e-05
7.1976973e-05
7.2010362e-05
7.2042198e-05
7.2175677e-05
7.1961844e-05
7.3625814e-05
1.9767066e-05
3.2041422e-09
1.4764886e-10
7.5131418e-11
5.1133302e-11
4.0549685e-11
3.434993e-11
3.0064214e-11
2.6839087e-11
2.4332122e-11
2.2321271e-11
2.065116e-11
1.9263081e-11
1.811121e-11
1.7155585e-11
1.635387e-11
1.5676842e-11
1.5091521e-11
1.457837e-11
1.4129471e-11
1.373981e-11
1.340428e-11
1.3118129e-11
1.2877292e-11
1.2678526e-11
1.2518862e-11
1.2397783e-11
1.2303889e-11
1.2231426e-11
1.2181165e-11
1.2152975e-11
1.2145846e-11
1.2161238e-11
1.2211998e-11
1.2318847e-11
1.2474665e-11
1.2670315e-11
1.2907846e-11
1.3190274e-11
1.3521356e-11
1.3905888e-11
1.4341396e-11
1.4832782e-11
1.538772e-11
1.6017954e-11
1.6731827e-11
1.7533034e-11
1.8417628e-11
1.9419637e-11
2.0661998e-11
2.2116254e-11
2.3802858e-11
2.5765121e-11
2.8055073e-11
3.0738937e-11
3.3896695e-11
3.7615733e-11
4.1967287e-11
4.6918094e-11
5.3050596e-11
6.0501713e-11
6.9487249e-11
8.0407041e-11
9.3782926e-11
1.1030526e-10
1.3079215e-10
1.5601043e-10
1.8680682e-10
2.267798e-10
2.7677273e-10
3.3909278e-10
4.1632577e-10
5.1092292e-10
6.2445215e-10
7.5733885e-10
9.0858852e-10
1.0717587e-09
1.2340126e-09
1.3822038e-09
1.507921e-09
1.6100624e-09
1.692707e-09
1.7601662e-09
1.8162783e-09
1.8635023e-09
1.9028821e-09
1.9352604e-09
1.9614442e-09
1.9817204e-09
1.9958993e-09
2.0036285e-09
2.0051309e-09
2.0013366e-09
1.9933461e-09
1.9821796e-09
1.9686923e-09
1.95358e-09
1.9373959e-09
1.9205488e-09
1.9033424e-09
1.8859985e-09
1.8686855e-09
1.8515156e-09
1.8345654e-09
1.8178723e-09
1.8014577e-09
1.7853552e-09
1.7694815e-09
1.7539053e-09
1.7382428e-09
1.7224905e-09
1.707481e-09
1.6855575e-09
9.255731e-05
7.2851694e-05
7.1673208e-05
7.1601848e-05
7.1644561e-05
7.1661729e-05
7.1666513e-05
7.16689e-05
7.167143e-05
7.1674662e-05
7.1678821e-05
7.1684117e-05
7.1690807e-05
7.1699238e-05
7.1709877e-05
7.1723423e-05
7.1740913e-05
7.1763588e-05
7.1796959e-05
7.1828738e-05
7.1962167e-05
7.1747963e-05
7.3411008e-05
1.9788143e-05
4.4617478e-09
1.787485e-10
9.1060415e-11
6.215287e-11
4.9887335e-11
4.2818865e-11
3.788784e-11
3.4132969e-11
3.1195842e-11
2.8829179e-11
2.685496e-11
2.5212436e-11
2.3853136e-11
2.2732486e-11
2.1800438e-11
2.1023229e-11
2.0356611e-11
1.9775558e-11
1.9272324e-11
1.8842755e-11
1.8481861e-11
1.8184586e-11
1.7946528e-11
1.7764258e-11
1.7634502e-11
1.7557729e-11
1.7517334e-11
1.7505272e-11
1.7523604e-11
1.7573494e-11
1.7654677e-11
1.7769936e-11
1.7936951e-11
1.8183901e-11
1.8502699e-11
1.8882574e-11
1.9327321e-11
1.9842102e-11
2.043326e-11
2.1108809e-11
2.1864936e-11
2.270981e-11
2.3657042e-11
2.4725937e-11
2.5931431e-11
2.728254e-11
2.8778414e-11
3.047019e-11
3.2530881e-11
3.4930968e-11
3.7708181e-11
4.0933188e-11
4.4691233e-11
4.9090472e-11
5.4262441e-11
6.0353377e-11
6.7494058e-11
7.5665807e-11
8.5714829e-11
9.7890984e-11
1.1256967e-10
1.3040358e-10
1.5224519e-10
1.7922444e-10
2.1269126e-10
2.5398702e-10
3.0460259e-10
3.6994025e-10
4.5165106e-10
5.535085e-10
6.7974094e-10
8.3435969e-10
1.0199383e-09
1.2371947e-09
1.4845503e-09
1.7515517e-09
2.0172773e-09
2.2601997e-09
2.4664018e-09
2.6340085e-09
2.769604e-09
2.8802668e-09
2.9722767e-09
3.0496739e-09
3.1141864e-09
3.1672134e-09
3.2100893e-09
3.2432901e-09
3.2665086e-09
3.2791684e-09
3.281635e-09
3.2754305e-09
3.262357e-09
3.2440843e-09
3.2220124e-09
3.1972802e-09
3.1707935e-09
3.1432212e-09
3.1150605e-09
3.0866749e-09
3.0583393e-09
3.0302382e-09
3.0024963e-09
2.9751753e-09
2.94831e-09
2.9219557e-09
2.8959755e-09
2.8704829e-09
2.8448484e-09
2.8190691e-09
2.7945037e-09
2.7586223e-09
9.2427541e-05
7.2606773e-05
7.1424906e-05
7.1351273e-05
7.1393486e-05
7.1410592e-05
7.1415363e-05
7.1417739e-05
7.142026e-05
7.1423486e-05
7.1427642e-05
7.1432937e-05
7.1439627e-05
7.1448061e-05
7.1458701e-05
7.1472249e-05
7.1489735e-05
7.1512402e-05
7.1545753e-05
7.1577464e-05
7.1710834e-05
7.1496195e-05
7.3158334e-05
1.9818749e-05
6.3642644e-09
2.4245314e-10
1.2361178e-10
8.4535152e-11
6.8402214e-11
5.9217812e-11
5.2767525e-11
4.7813458e-11
4.3921136e-11
4.0776027e-11
3.8147739e-11
3.5959692e-11
3.4151131e-11
3.2664846e-11
3.1435333e-11
3.041919e-11
2.9552728e-11
2.8800782e-11
2.815453e-11
2.7610093e-11
2.7161802e-11
2.6803426e-11
2.6529481e-11
2.6335768e-11
2.6218147e-11
2.6178278e-11
2.619135e-11
2.6245599e-11
2.634489e-11
2.6492319e-11
2.6688762e-11
2.6938937e-11
2.7267327e-11
2.7712533e-11
2.8265294e-11
2.8912791e-11
2.9661466e-11
3.0519721e-11
3.1497832e-11
3.2608724e-11
3.3846476e-11
3.5224264e-11
3.6764996e-11
3.8499648e-11
4.0453583e-11
4.2644694e-11
4.5078278e-11
4.783112e-11
5.114707e-11
5.4998602e-11
5.9451084e-11
6.461742e-11
7.0634232e-11
7.7674483e-11
8.5949657e-11
9.5698014e-11
1.0714678e-10
1.203112e-10
1.3641396e-10
1.5588671e-10
1.7935848e-10
2.078729e-10
2.4279379e-10
2.8593177e-10
3.394641e-10
4.0565173e-10
4.8702224e-10
5.9159964e-10
7.2238002e-10
8.8540639e-10
1.0874497e-09
1.3349372e-09
1.632003e-09
1.9798256e-09
2.3759419e-09
2.8037218e-09
3.2297571e-09
3.619536e-09
3.9505565e-09
4.2197157e-09
4.437444e-09
4.6151121e-09
4.7627812e-09
4.8869462e-09
4.9904023e-09
5.0754184e-09
5.1441506e-09
5.1973706e-09
5.2345903e-09
5.2548869e-09
5.2588466e-09
5.248909e-09
5.2279623e-09
5.1986826e-09
5.1633138e-09
5.1236814e-09
5.0812368e-09
5.0370521e-09
4.9919244e-09
4.946436e-09
4.9010277e-09
4.8559948e-09
4.8115376e-09
4.7677549e-09
4.7247025e-09
4.6824688e-09
4.6408348e-09
4.5999823e-09
4.5589021e-09
4.5175912e-09
4.4782245e-09
4.4207236e-09
9.2276667e-05
7.2320686e-05
7.1134794e-05
7.1058494e-05
7.1100111e-05
7.111714e-05
7.1121897e-05
7.112426e-05
7.112677e-05
7.1129988e-05
7.113414e-05
7.1139434e-05
7.1146125e-05
7.1154561e-05
7.1165203e-05
7.1178752e-05
7.1196235e-05
7.1218892e-05
7.1252218e-05
7.1283853e-05
7.141715e-05
7.1202014e-05
7.2863324e-05
1.9862042e-05
9.156897e-09
3.5027126e-10
1.7866623e-10
1.223218e-10
9.943082e-11
8.6496016e-11
7.7375288e-11
7.0334494e-11
6.4788604e-11
6.0301632e-11
5.6551976e-11
5.3429593e-11
5.0849147e-11
4.8730343e-11
4.6981964e-11
4.5544329e-11
4.4322753e-11
4.3265467e-11
4.2361119e-11
4.1605549e-11
4.0991463e-11
4.0510385e-11
4.0154783e-11
3.9918976e-11
3.9797235e-11
3.979282e-11
3.9868353e-11
4.0006307e-11
4.0213199e-11
4.049512e-11
4.0854798e-11
4.1299847e-11
4.1864281e-11
4.2601145e-11
4.3499952e-11
4.4545529e-11
4.574835e-11
4.7121732e-11
4.8681924e-11
5.0449328e-11
5.2414778e-11
5.4599089e-11
5.7039615e-11
5.9785213e-11
6.2877569e-11
6.6349093e-11
7.0216369e-11
7.4594294e-11
7.9826184e-11
8.5892696e-11
9.2902842e-11
1.0103417e-10
1.1050206e-10
1.2157876e-10
1.3459854e-10
1.4994205e-10
1.6799009e-10
1.8882484e-10
2.1420403e-10
2.4484766e-10
2.8178247e-10
3.26651e-10
3.8160068e-10
4.4948632e-10
5.3375925e-10
6.3812987e-10
7.6676612e-10
9.3149271e-10
1.137491e-09
1.3942844e-09
1.7125429e-09
2.1024006e-09
2.5703897e-09
3.1184059e-09
3.7426534e-09
4.4170724e-09
5.0891408e-09
5.7044193e-09
6.2271608e-09
6.6523386e-09
6.9962424e-09
7.2768358e-09
7.5099821e-09
7.7059505e-09
7.8691827e-09
8.0032919e-09
8.1117016e-09
8.1956408e-09
8.2543447e-09
8.2863602e-09
8.2926117e-09
8.2769469e-09
8.2439205e-09
8.1977527e-09
8.1419822e-09
8.0794878e-09
8.0125581e-09
7.9428843e-09
7.8717232e-09
7.7999929e-09
7.7283889e-09
7.6573766e-09
7.5872723e-09
7.5182314e-09
7.4503419e-09
7.3837437e-09
7.3180909e-09
7.2536708e-09
7.1888913e-09
7.1237491e-09
7.0616719e-09
6.9709986e-09
9.2102495e-05
7.1988647e-05
7.0797984e-05
7.071857e-05
7.075948e-05
7.0776416e-05
7.0781155e-05
7.0783502e-05
7.0785999e-05
7.0789209e-05
7.0793356e-05
7.0798648e-05
7.080534e-05
7.0813778e-05
7.0824422e-05
7.0837972e-05
7.0855451e-05
7.0878096e-05
7.0911395e-05
7.0942942e-05
7.1076151e-05
7.0860462e-05
7.2521095e-05
1.9921868e-05
1.3196864e-08
5.2104383e-10
2.6584512e-10
1.8211471e-10
1.4838812e-10
1.2940853e-10
1.1599711e-10
1.0561625e-10
9.742892e-11
9.0802362e-11
8.5269544e-11
8.0662117e-11
7.6852966e-11
7.3724075e-11
7.1144177e-11
6.9028124e-11
6.7233415e-11
6.5682351e-11
6.4359124e-11
6.3258672e-11
6.2370838e-11
6.1683415e-11
6.1185514e-11
6.0868986e-11
6.0725512e-11
6.0760638e-11
6.0918016e-11
6.1171366e-11
6.1531179e-11
6.2008247e-11
6.2608323e-11
6.3343395e-11
6.4260757e-11
6.5433379e-11
6.6849786e-11
6.8492359e-11
7.0377717e-11
7.2526618e-11
7.4964355e-11
7.7722669e-11
8.0787455e-11
8.4191131e-11
8.7993343e-11
9.2270155e-11
9.7088583e-11
1.0250437e-10
1.0855378e-10
1.1540804e-10
1.235497e-10
1.3297882e-10
1.4387259e-10
1.5650686e-10
1.712169e-10
1.88426e-10
2.0865578e-10
2.325053e-10
2.6059673e-10
2.9313354e-10
3.3263288e-10
3.8026653e-10
4.3767838e-10
5.0742223e-10
5.9283823e-10
6.9837171e-10
8.2942119e-10
9.9195533e-10
1.1927049e-09
1.4489986e-09
1.7695046e-09
2.1690463e-09
2.6642319e-09
3.2708428e-09
3.99907e-09
4.8519151e-09
5.8235846e-09
6.8737134e-09
7.920715e-09
8.8797833e-09
9.6948948e-09
1.0358042e-08
1.0894386e-08
1.1331946e-08
1.1695424e-08
1.200085e-08
1.2255187e-08
1.2464109e-08
1.2632979e-08
1.2763726e-08
1.2855166e-08
1.2905039e-08
1.2914784e-08
1.2890396e-08
1.2838966e-08
1.2767069e-08
1.2680216e-08
1.258289e-08
1.2478656e-08
1.2370148e-08
1.2259324e-08
1.2147612e-08
1.2036097e-08
1.1925503e-08
1.1816323e-08
1.17088e-08
1.1603069e-08
1.149935e-08
1.1397102e-08
1.1296775e-08
1.1195888e-08
1.1094437e-08
1.0997758e-08
1.0856544e-08
9.190272e-05
7.1605457e-05
7.0409154e-05
7.0326123e-05
7.0366195e-05
7.038302e-05
7.0387736e-05
7.0390065e-05
7.0392546e-05
7.0395745e-05
7.0399886e-05
7.0405176e-05
7.0411869e-05
7.0420309e-05
7.0430956e-05
7.0444507e-05
7.0461981e-05
7.0484613e-05
7.0517879e-05
7.0549327e-05
7.0682432e-05
7.0466136e-05
7.2126351e-05
2.0002826e-05
1.8994492e-08
7.8385536e-10
3.999971e-10
2.7409684e-10
2.2360689e-10
1.9525521e-10
1.7520041e-10
1.5965662e-10
1.4739e-10
1.374624e-10
1.2918321e-10
1.2228919e-10
1.1658638e-10
1.118978e-10
1.0803153e-10
1.0486386e-10
1.0217969e-10
9.9861678e-11
9.7886863e-11
9.6248481e-11
9.4931782e-11
9.3918708e-11
9.3193113e-11
9.2742978e-11
9.2555958e-11
9.2640956e-11
9.2913201e-11
9.3333262e-11
9.3917625e-11
9.4684442e-11
9.5644378e-11
9.6816018e-11
9.8265132e-11
1.0009209e-10
1.0228518e-10
1.0482465e-10
1.0773646e-10
1.1105259e-10
1.14812e-10
1.1906354e-10
1.2378567e-10
1.2902833e-10
1.3488534e-10
1.4147398e-10
1.4890026e-10
1.5725689e-10
1.6661324e-10
1.772236e-10
1.8976517e-10
2.0427673e-10
2.21041e-10
2.4048251e-10
2.6311817e-10
2.8959988e-10
3.207334e-10
3.5745086e-10
4.0074974e-10
4.5104253e-10
5.1192419e-10
5.8526779e-10
6.7366697e-10
7.8105492e-10
9.1257761e-10
1.0750904e-09
1.2769502e-09
1.5276127e-09
1.8377744e-09
2.2327339e-09
2.7266468e-09
3.3423656e-09
4.1054941e-09
5.0403715e-09
6.1627404e-09
7.4772956e-09
8.9752594e-09
1.0594668e-08
1.2209965e-08
1.3690316e-08
1.4948845e-08
1.5972963e-08
1.6801201e-08
1.747683e-08
1.803795e-08
1.8509332e-08
1.8901774e-08
1.9224091e-08
1.9484595e-08
1.9686284e-08
1.982734e-08
1.9904279e-08
1.9919323e-08
1.9881717e-08
1.9802402e-08
1.9691516e-08
1.9557561e-08
1.9407452e-08
1.9246688e-08
1.907933e-08
1.8908398e-08
1.8736099e-08
1.8564101e-08
1.8393525e-08
1.822513e-08
1.8059288e-08
1.7896213e-08
1.7736238e-08
1.7578535e-08
1.7423793e-08
1.7268187e-08
1.7111713e-08
1.6962598e-08
1.6744794e-08
9.1674953e-05
7.1165509e-05
6.9962553e-05
6.9875335e-05
6.9914419e-05
6.9931109e-05
6.9935799e-05
6.9938104e-05
6.9940567e-05
6.9943754e-05
6.9947887e-05
6.9953175e-05
6.9959868e-05
6.996831e-05
6.9978959e-05
6.9992511e-05
7.0009981e-05
7.0032596e-05
7.0065824e-05
7.0097162e-05
7.0230143e-05
7.0013184e-05
7.1673401e-05
2.0110325e-05
2.7271511e-08
1.1826395e-09
6.0354863e-10
4.1364427e-10
3.376578e-10
2.9503787e-10
2.6487569e-10
2.4148305e-10
2.2301776e-10
2.0807714e-10
1.9563254e-10
1.8527112e-10
1.7669484e-10
1.6963641e-10
1.6381334e-10
1.5904431e-10
1.5500497e-10
1.5151799e-10
1.4854938e-10
1.4608958e-10
1.4411673e-10
1.4260381e-10
1.4152666e-10
1.4086733e-10
1.4060734e-10
1.4076058e-10
1.4119989e-10
1.4186619e-10
1.4278501e-10
1.4398597e-10
1.4548761e-10
1.4731844e-10
1.4956994e-10