/*--------------------------------*- C++ -*----------------------------------*\
| =========                 |                                                 |
| \\      /  F ield         | OpenFOAM: The Open Source CFD Toolbox           |
|  \\    /   O peration     | Version:  2206                                  |
|   \\  /    A nd           | Website:  www.openfoam.com                      |
|    \\/     M anipulation  |                                                 |
\*---------------------------------------------------------------------------*/
FoamFile
{
    version     2.0;
    format      ascii;
    arch        "LSB;label=32;scalar=64";
    class       volScalarField;
    location    "1400";
    object      nut;
}
// * * * * * * * * * * * * * * * * * * * * * * * * * * * * * * * * * * * * * //

dimensions      [0 2 -1 0 0 0 0];

internalField   nonuniform List<scalar> 
13056
(
1.9340092e-07
1.9093593e-07
1.9106941e-07
1.9133476e-07
1.9148851e-07
1.9156014e-07
1.915969e-07
1.9161975e-07
1.9163643e-07
1.9165007e-07
1.9166219e-07
1.9167378e-07
1.9168563e-07
1.9169844e-07
1.9171307e-07
1.9173032e-07
1.9175227e-07
1.9177745e-07
1.9182563e-07
1.9182284e-07
1.9214353e-07
1.9144762e-07
1.9011578e-07
1.0087289e-09
2.6143756e-16
4.065078e-17
2.0618113e-17
1.3913686e-17
1.0635263e-17
8.6384e-18
7.2889094e-18
6.3035136e-18
5.5504863e-18
4.9563876e-18
4.4747874e-18
4.0757712e-18
3.7394991e-18
3.4521403e-18
3.2036331e-18
2.9864919e-18
2.7950818e-18
2.6250057e-18
2.4728298e-18
2.3358669e-18
2.2118905e-18
2.099115e-18
1.9960626e-18
1.9015054e-18
1.814416e-18
1.7339289e-18
1.6593056e-18
1.5899135e-18
1.5252089e-18
1.4647211e-18
1.4080422e-18
1.354817e-18
1.3047318e-18
1.2575099e-18
1.2129071e-18
1.1707071e-18
1.1307168e-18
1.0927654e-18
1.056701e-18
1.0223863e-18
9.896967e-19
9.5852052e-19
9.2875799e-19
9.003196e-19
8.731244e-19
8.471002e-19
8.2218396e-19
7.9831995e-19
7.7545871e-19
7.5355741e-19
7.3257885e-19
7.1249182e-19
6.9327123e-19
6.7490106e-19
6.5737975e-19
6.4071198e-19
6.2490937e-19
6.0999244e-19
5.9598898e-19
5.829383e-19
5.709036e-19
5.5997394e-19
5.5026131e-19
5.4193838e-19
5.3531669e-19
5.3028306e-19
5.2819532e-19
5.2823611e-19
5.3160902e-19
5.385984e-19
5.4990435e-19
5.6617339e-19
5.8780318e-19
6.1479101e-19
6.4733856e-19
6.8498316e-19
7.2526117e-19
7.6416799e-19
7.9935262e-19
8.2646559e-19
8.4830728e-19
8.6422229e-19
8.7594073e-19
8.8442292e-19
8.9036276e-19
8.9422406e-19
8.9633023e-19
8.9692639e-19
8.9602985e-19
8.9366992e-19
8.9004106e-19
8.8531484e-19
8.7969413e-19
8.7342718e-19
8.6667319e-19
8.5956837e-19
8.5228643e-19
8.4493818e-19
8.3756794e-19
8.302246e-19
8.2298157e-19
8.1587056e-19
8.0888829e-19
8.0201901e-19
7.9526778e-19
7.8863212e-19
7.8213724e-19
7.7548323e-19
7.6916086e-19
7.6133976e-19
7.5501916e-19
7.4587477e-19
1.9340037e-07
1.9093456e-07
1.9106813e-07
1.9133354e-07
1.9148734e-07
1.9155898e-07
1.9159575e-07
1.9161861e-07
1.916353e-07
1.9164893e-07
1.9166106e-07
1.9167265e-07
1.916845e-07
1.9169732e-07
1.9171195e-07
1.917292e-07
1.9175115e-07
1.9177634e-07
1.9182452e-07
1.9182172e-07
1.9214244e-07
1.9144652e-07
1.9011549e-07
1.0240488e-09
2.4528789e-16
3.7990991e-17
1.9269051e-17
1.3003297e-17
9.9393863e-18
8.0731821e-18
6.8119913e-18
5.8910716e-18
5.1873162e-18
4.6320903e-18
4.1820016e-18
3.8090934e-18
3.4948241e-18
3.226268e-18
2.9940215e-18
2.7910886e-18
2.6122033e-18
2.4532561e-18
2.3110378e-18
2.183037e-18
2.067173e-18
1.9617772e-18
1.8654681e-18
1.7770985e-18
1.6957081e-18
1.620488e-18
1.5507479e-18
1.4858967e-18
1.4254263e-18
1.3688965e-18
1.3159265e-18
1.266184e-18
1.2193762e-18
1.1752448e-18
1.1335615e-18
1.0941239e-18
1.0567515e-18
1.0212847e-18
9.8758142e-19
9.5551358e-19
9.249646e-19
8.9583014e-19
8.6801687e-19
8.4144117e-19
8.1602732e-19
7.9170758e-19
7.6842259e-19
7.4612091e-19
7.2475913e-19
7.0429545e-19
6.8469477e-19
6.65928e-19
6.4797175e-19
6.308112e-19
6.1444488e-19
5.9887682e-19
5.841159e-19
5.7017673e-19
5.5710357e-19
5.4492795e-19
5.3370584e-19
5.235214e-19
5.1448034e-19
5.0674478e-19
5.0060377e-19
4.9593154e-19
4.9398353e-19
4.9412646e-19
4.9740807e-19
5.0409889e-19
5.1485787e-19
5.3029193e-19
5.5076991e-19
5.7627738e-19
6.0697546e-19
6.4237909e-19
6.8013123e-19
7.1648777e-19
7.4931817e-19
7.7459413e-19
7.9497473e-19
8.0984286e-19
8.2081772e-19
8.287901e-19
8.3439781e-19
8.3806433e-19
8.4008602e-19
8.4068853e-19
8.3988607e-19
8.3770457e-19
8.3432566e-19
8.2991142e-19
8.2465354e-19
8.1878582e-19
8.1245865e-19
8.0580067e-19
7.9897506e-19
7.9208608e-19
7.8517577e-19
7.782902e-19
7.7149821e-19
7.6482961e-19
7.5828153e-19
7.5183938e-19
7.4550791e-19
7.392849e-19
7.3319366e-19
7.269548e-19
7.2102484e-19
7.1369776e-19
7.0777101e-19
6.9919592e-19
1.933986e-07
1.9093026e-07
1.9106408e-07
1.9132969e-07
1.9148361e-07
1.9155532e-07
1.9159212e-07
1.9161499e-07
1.916317e-07
1.9164535e-07
1.9165748e-07
1.9166909e-07
1.9168094e-07
1.9169377e-07
1.917084e-07
1.9172566e-07
1.9174762e-07
1.9177281e-07
1.9182101e-07
1.9181819e-07
1.9213897e-07
1.9144308e-07
1.9011256e-07
1.0424059e-09
2.3456354e-16
3.621923e-17
1.8370406e-17
1.2396889e-17
9.4759555e-18
7.6968532e-18
6.4945192e-18
5.6165698e-18
4.9456484e-18
4.4163219e-18
3.9872195e-18
3.6316988e-18
3.3320872e-18
3.0760627e-18
2.8546571e-18
2.6611991e-18
2.4906668e-18
2.3391419e-18
2.2035655e-18
2.0815435e-18
1.9710926e-18
1.870622e-18
1.7788148e-18
1.6945773e-18
1.6169941e-18
1.5452942e-18
1.4788179e-18
1.417001e-18
1.3593592e-18
1.3054726e-18
1.2549769e-18
1.2075563e-18
1.1629368e-18
1.1208806e-18
1.0811655e-18
1.0435935e-18
1.0079925e-18
9.7421052e-19
9.4211253e-19
9.1157663e-19
8.8249156e-19
8.5475815e-19
8.2828556e-19
8.0299508e-19
7.7881269e-19
7.556687e-19
7.3349676e-19
7.1226157e-19
6.919822e-19
6.7258142e-19
6.5401848e-19
6.3626818e-19
6.1930955e-19
6.0313243e-19
5.8773612e-19
5.7311786e-19
5.5924628e-19
5.4604032e-19
5.3392412e-19
5.2282294e-19
5.1272845e-19
5.0374432e-19
4.9599834e-19
4.8966851e-19
4.8499968e-19
4.8147627e-19
4.8004281e-19
4.8272542e-19
4.890159e-19
4.9929675e-19
5.1432832e-19
5.3478267e-19
5.6098958e-19
5.927192e-19
6.2958626e-19
6.700193e-19
7.1053625e-19
7.4735563e-19
7.796059e-19
8.0409554e-19
8.2422229e-19
8.3935006e-19
8.5112523e-19
8.6030898e-19
8.6732655e-19
8.7241005e-19
8.757452e-19
8.7748756e-19
8.7761045e-19
8.7610597e-19
8.7314815e-19
8.6893818e-19
8.6371497e-19
8.5775068e-19
8.512324e-19
8.4431799e-19
8.3718792e-19
8.2996083e-19
8.2269288e-19
8.1543899e-19
8.0827137e-19
8.0122367e-19
7.9429788e-19
7.874831e-19
7.8078492e-19
7.7420335e-19
7.6775438e-19
7.6119019e-19
7.5489941e-19
7.4734314e-19
7.4109454e-19
7.3204133e-19
1.9339554e-07
1.9092289e-07
1.9105713e-07
1.9132308e-07
1.9147722e-07
1.9154903e-07
1.9158588e-07
1.916088e-07
1.9162552e-07
1.9163919e-07
1.9165134e-07
1.9166296e-07
1.9167483e-07
1.9168766e-07
1.9170231e-07
1.9171958e-07
1.9174155e-07
1.9176675e-07
1.9181497e-07
1.9181212e-07
1.9213301e-07
1.9143719e-07
1.9010696e-07
1.0625263e-09
2.2939463e-16
3.4960344e-17
1.7731985e-17
1.1966263e-17
9.1474895e-18
7.4307216e-18
6.2704606e-18
5.4231821e-18
4.7756743e-18
4.2647843e-18
3.8505641e-18
3.5073724e-18
3.2181816e-18
2.9711038e-18
2.7574619e-18
2.5708037e-18
2.4062716e-18
2.2600813e-18
2.1292829e-18
2.0115679e-18
1.9050236e-18
1.8081155e-18
1.7195733e-18
1.6383417e-18
1.5635376e-18
1.4944179e-18
1.4303342e-18
1.3707371e-18
1.3151615e-18
1.2631977e-18
1.2144887e-18
1.1687333e-18
1.125706e-18
1.0852359e-18
1.0470772e-18
1.0110026e-18
9.7684614e-19
9.4446277e-19
9.1372421e-19
8.8451528e-19
8.5672735e-19
8.3026694e-19
8.0503354e-19
7.8095843e-19
7.579575e-19
7.3592743e-19
7.1473546e-19
6.9444443e-19
6.7550105e-19
6.575672e-19
6.4055275e-19
6.2445211e-19
6.0925534e-19
5.9498184e-19
5.8163738e-19
5.6917431e-19
5.5728138e-19
5.4520729e-19
5.3606246e-19
5.2904342e-19
5.2371149e-19
5.2033879e-19
5.1924736e-19
5.2078045e-19
5.2494136e-19
5.2827548e-19
5.2980342e-19
5.5068932e-19
5.7957636e-19
6.1782294e-19
6.6730536e-19
7.2973215e-19
8.0604391e-19
8.9603616e-19
9.9850474e-19
1.108402e-18
1.2161113e-18
1.3124432e-18
1.3941218e-18
1.4583291e-18
1.5107349e-18
1.5524825e-18
1.5867958e-18
1.6153332e-18
1.6387849e-18
1.6575726e-18
1.6721135e-18
1.6826215e-18
1.688964e-18
1.6909698e-18
1.688895e-18
1.6833339e-18
1.674991e-18
1.6645666e-18
1.6526095e-18
1.6395718e-18
1.6258635e-18
1.6117739e-18
1.5974887e-18
1.583156e-18
1.5689167e-18
1.5548512e-18
1.540995e-18
1.5273546e-18
1.5139444e-18
1.5007793e-18
1.4878373e-18
1.4749198e-18
1.4622169e-18
1.4483051e-18
1.4359284e-18
1.4179187e-18
1.9339112e-07
1.9091222e-07
1.9104707e-07
1.9131352e-07
1.9146797e-07
1.9153992e-07
1.9157686e-07
1.9159982e-07
1.9161659e-07
1.9163028e-07
1.9164245e-07
1.9165409e-07
1.9166598e-07
1.9167883e-07
1.9169349e-07
1.9171078e-07
1.9173276e-07
1.9175798e-07
1.9180623e-07
1.9180334e-07
1.9212437e-07
1.9142868e-07
1.900986e-07
1.0843567e-09
2.3324748e-16
3.41132e-17
1.7302782e-17
1.1677517e-17
8.929815e-18
7.2568137e-18
6.1259003e-18
5.2998305e-18
4.6684221e-18
4.1700804e-18
3.7657631e-18
3.4307705e-18
3.1486187e-18
2.9077344e-18
2.6995624e-18
2.5177523e-18
2.3575206e-18
2.2151655e-18
2.0878193e-18
1.9732406e-18
1.8695702e-18
1.775315e-18
1.6892385e-18
1.6103136e-18
1.53768e-18
1.4706176e-18
1.408444e-18
1.3506032e-18
1.2966508e-18
1.2461681e-18
1.1987844e-18
1.1542216e-18
1.1124246e-18
1.0734769e-18
1.0370054e-18
1.0026358e-18
9.7020558e-19
9.3958109e-19
9.1064603e-19
8.8329876e-19
8.5742789e-19
8.3295202e-19
8.0971883e-19
7.8769218e-19
7.6673591e-19
7.4659414e-19
7.2684156e-19
7.0795276e-19
6.9220127e-19
6.7813209e-19
6.6544013e-19
6.5420091e-19
6.4444822e-19
6.363249e-19
6.2987106e-19
6.2481698e-19
6.1955159e-19
6.1025299e-19
6.1209012e-19
6.2104924e-19
6.3477616e-19
6.5434792e-19
6.8112427e-19
7.1677139e-19
7.6261021e-19
8.147778e-19
8.7137532e-19
9.7127866e-19
1.0988273e-18
1.2598691e-18
1.4613003e-18
1.7095225e-18
2.0083094e-18
2.3577751e-18
2.7536537e-18
3.1764409e-18
3.5899224e-18
3.9601341e-18
4.2712398e-18
4.5202744e-18
4.7226729e-18
4.8874187e-18
5.0250489e-18
5.1415327e-18
5.2390714e-18
5.3192174e-18
5.3836086e-18
5.4328376e-18
5.4663393e-18
5.4832411e-18
5.4842091e-18
5.4716067e-18
5.448235e-18
5.4167345e-18
5.3792832e-18
5.3376581e-18
5.29332e-18
5.2473351e-18
5.200468e-18
5.1532896e-18
5.1062586e-18
5.0596695e-18
5.0137039e-18
4.9684409e-18
4.9239356e-18
4.8802673e-18
4.8372532e-18
4.7948409e-18
4.7524621e-18
4.7087743e-18
4.6679714e-18
4.6084371e-18
1.9338522e-07
1.9089795e-07
1.9103361e-07
1.9130074e-07
1.914556e-07
1.9152775e-07
1.9156479e-07
1.9158782e-07
1.9160463e-07
1.9161836e-07
1.9163057e-07
1.9164223e-07
1.9165414e-07
1.9166702e-07
1.916817e-07
1.9169901e-07
1.9172101e-07
1.9174625e-07
1.9179453e-07
1.9179159e-07
1.9211281e-07
1.914173e-07
1.9008744e-07
1.1081514e-09
2.5521883e-16
3.3816194e-17
1.715376e-17
1.1579908e-17
8.8651969e-18
7.2138599e-18
6.0968321e-18
5.2801764e-18
4.6556078e-18
4.1621635e-18
3.7609455e-18
3.4285003e-18
3.1489124e-18
2.9107947e-18
2.7053838e-18
2.5262101e-18
2.3683903e-18
2.2282242e-18
2.1029043e-18
1.9902452e-18
1.8884272e-18
1.7959836e-18
1.7116987e-18
1.6345628e-18
1.5637276e-18
1.4984956e-18
1.438029e-18
1.3817104e-18
1.3291301e-18
1.2798113e-18
1.2333122e-18
1.1894087e-18
1.1485805e-18
1.1117265e-18
1.0780468e-18
1.0466734e-18
1.0174439e-18
9.9025051e-19
9.6500695e-19
9.4164723e-19
9.2004302e-19
9.0014507e-19
8.816148e-19
8.6451236e-19
8.4850737e-19
8.3279746e-19
8.1592083e-19
7.9974436e-19
7.9282537e-19
7.8988652e-19
7.8986695e-19
7.9313725e-19
8.0007057e-19
8.1124996e-19
8.2720601e-19
8.4808611e-19
8.7207421e-19
8.9339581e-19
9.3583928e-19
9.9523122e-19
1.0695701e-18
1.1625766e-18
1.2790294e-18
1.4250004e-18
1.6064432e-18
1.8198886e-18
2.0629578e-18
2.4232688e-18
2.8763693e-18
3.44299e-18
4.1467097e-18
5.0095903e-18
6.0450254e-18
7.2546818e-18
8.6252707e-18
1.0091264e-17
1.152978e-17
1.2823735e-17
1.3911823e-17
1.478833e-17
1.5499464e-17
1.6080657e-17
1.6566941e-17
1.6979087e-17
1.7324853e-17
1.7610059e-17
1.7840748e-17
1.8018956e-17
1.814275e-17
1.8208949e-17
1.8219616e-17
1.8183025e-17
1.8108977e-17
1.8006599e-17
1.7883509e-17
1.7745911e-17
1.7598782e-17
1.7445787e-17
1.7289622e-17
1.713227e-17
1.6975258e-17
1.6819595e-17
1.666595e-17
1.651464e-17
1.6365858e-17
1.6219896e-17
1.6076039e-17
1.5934686e-17
1.5792803e-17
1.56491e-17
1.5512953e-17
1.531415e-17
1.933777e-07
1.9087968e-07
1.9101639e-07
1.9128438e-07
1.9143977e-07
1.9151217e-07
1.9154936e-07
1.9157247e-07
1.9158934e-07
1.9160312e-07
1.9161537e-07
1.9162706e-07
1.91639e-07
1.916519e-07
1.9166662e-07
1.9168395e-07
1.9170599e-07
1.9173124e-07
1.9177958e-07
1.9177656e-07
1.9209802e-07
1.9140274e-07
1.9007343e-07
1.1343084e-09
3.1389087e-16
3.4579337e-17
1.75454e-17
1.1852401e-17
9.1011466e-18
7.431889e-18
6.3006531e-18
5.4716096e-18
4.8365879e-18
4.3335022e-18
3.9220417e-18
3.5810464e-18
3.295406e-18
3.0537138e-18
2.8462343e-18
2.6658724e-18
2.5072479e-18
2.3664931e-18
2.2408325e-18
2.1281305e-18
2.0265893e-18
1.9347457e-18
1.8513829e-18
1.7754912e-18
1.7062147e-18
1.6428839e-18
1.5841854e-18
1.5292954e-18
1.4778749e-18
1.4292504e-18
1.3827455e-18
1.3382725e-18
1.2978597e-18
1.2647885e-18
1.2370179e-18
1.2122199e-18
1.1902216e-18
1.170984e-18
1.1545021e-18
1.14081e-18
1.1297379e-18
1.1213354e-18
1.115356e-18
1.1120767e-18
1.1112381e-18
1.1118902e-18
1.1120604e-18
1.1145034e-18
1.1321669e-18
1.1580695e-18
1.1912084e-18
1.2327655e-18
1.284058e-18
1.3468895e-18
1.4231816e-18
1.514362e-18
1.6185604e-18
1.7259061e-18
1.8805608e-18
2.0786804e-18
2.3200512e-18
2.6157443e-18
2.98007e-18
3.4314773e-18
3.9894228e-18
4.6552309e-18
5.4300587e-18
6.5173338e-18
7.8794916e-18
9.5789389e-18
1.1685985e-17
1.4266683e-17
1.736178e-17
2.0978264e-17
2.5079727e-17
2.947542e-17
3.3802875e-17
3.7710746e-17
4.1003151e-17
4.366297e-17
4.5819058e-17
4.7581992e-17
4.9055665e-17
5.0303191e-17
5.1348867e-17
5.2211429e-17
5.290991e-17
5.345073e-17
5.382824e-17
5.4032831e-17
5.4070515e-17
5.3966189e-17
5.3749346e-17
5.3447358e-17
5.3083143e-17
5.2675352e-17
5.2238856e-17
5.178463e-17
5.1320806e-17
5.0853336e-17
5.0386752e-17
4.9924077e-17
4.9467344e-17
4.9017546e-17
4.8575253e-17
4.8141365e-17
4.7713668e-17
4.729381e-17
4.6871862e-17
4.6446553e-17
4.6042027e-17
4.5451217e-17
1.9336837e-07
1.9085695e-07
1.9099497e-07
1.9126405e-07
1.9142008e-07
1.9149281e-07
1.9153016e-07
1.9155338e-07
1.9157033e-07
1.9158417e-07
1.9159646e-07
1.916082e-07
1.9162017e-07
1.9163311e-07
1.9164786e-07
1.9166523e-07
1.916873e-07
1.9171258e-07
1.9176098e-07
1.9175788e-07
1.9207963e-07
1.9138462e-07
1.9005655e-07
1.1633356e-09
4.5386834e-16
3.760066e-17
1.9089255e-17
1.2914541e-17
9.9813799e-18
8.2119689e-18
7.007798e-18
6.1204677e-18
5.4384116e-18
4.8945607e-18
4.4436283e-18
4.0697449e-18
3.759412e-18
3.5008193e-18
3.2814022e-18
3.0922059e-18
2.9264258e-18
2.7796526e-18
2.6490967e-18
2.5326751e-18
2.4285881e-18
2.3353392e-18
2.2516768e-18
2.1765684e-18
2.1091257e-18
2.0487461e-18
1.9935931e-18
1.9426009e-18
1.8955131e-18
1.8516344e-18
1.810201e-18
1.7712143e-18
1.7376427e-18
1.7143339e-18
1.6987133e-18
1.6877107e-18
1.6812538e-18
1.6794635e-18
1.6825277e-18
1.6907197e-18
1.7037629e-18
1.7219453e-18
1.7452867e-18
1.7746039e-18
1.8098762e-18
1.8499449e-18
1.8918862e-18
1.9404746e-18
2.0180549e-18
2.1142614e-18
2.2284693e-18
2.363877e-18
2.5241698e-18
2.7142003e-18
2.9394261e-18
3.2047202e-18
3.509099e-18
3.8350511e-18
4.2704466e-18
4.8139063e-18
5.4713053e-18
6.2720895e-18
7.254442e-18
8.4679872e-18
9.9670877e-18
1.1772001e-17
1.3901644e-17
1.6811985e-17
2.0453993e-17
2.4994805e-17
3.0622154e-17
3.7512865e-17
4.5777165e-17
5.5437205e-17
6.6402391e-17
7.8174004e-17
8.9793294e-17
1.0031771e-16
1.0920003e-16
1.1638802e-16
1.222115e-16
1.2697197e-16
1.3094674e-16
1.3430692e-16
1.371201e-16
1.3943924e-16
1.4131719e-16
1.42772e-16
1.437889e-16
1.4434218e-16
1.4444782e-16
1.4417264e-16
1.4359576e-16
1.4279053e-16
1.4181843e-16
1.407295e-16
1.3956353e-16
1.3834994e-16
1.3711055e-16
1.3586131e-16
1.3461434e-16
1.3337773e-16
1.3215696e-16
1.3095472e-16
1.2977254e-16
1.2861283e-16
1.2746962e-16
1.2634768e-16
1.2521973e-16
1.2408448e-16
1.2300341e-16
1.214244e-16
1.9335703e-07
1.908292e-07
1.9096883e-07
1.9123923e-07
1.9139606e-07
1.9146918e-07
1.9150674e-07
1.915301e-07
1.9154714e-07
1.9156105e-07
1.915734e-07
1.9158519e-07
1.9159721e-07
1.9161019e-07
1.9162498e-07
1.9164239e-07
1.916645e-07
1.9168982e-07
1.9173829e-07
1.9173509e-07
1.9205719e-07
1.9136249e-07
1.9003687e-07
1.1958503e-09
7.5375165e-16
4.5448054e-17
2.3096792e-17
1.566715e-17
1.2248545e-17
1.0210759e-17
8.8143818e-18
7.7759185e-18
6.9735275e-18
6.3307871e-18
5.7946141e-18
5.3494442e-18
4.9811456e-18
4.6764905e-18
4.4201522e-18
4.2013503e-18
4.0107474e-18
3.8426794e-18
3.6941942e-18
3.5632131e-18
3.4478343e-18
3.3464067e-18
3.2575353e-18
3.180082e-18
3.1130416e-18
3.0559285e-18
3.0057267e-18
2.9608154e-18
2.9211128e-18
2.8859093e-18
2.8542899e-18
2.8264537e-18
2.8072553e-18
2.8046708e-18
2.8150932e-18
2.8340169e-18
2.8616065e-18
2.8983454e-18
2.9448598e-18
3.0019708e-18
3.0691517e-18
3.1472404e-18
3.2369535e-18
3.3403668e-18
3.458136e-18
3.588927e-18
3.7282209e-18
3.8850942e-18
4.1007402e-18
4.3586274e-18
4.6594632e-18
5.0111191e-18
5.4228111e-18
5.9064817e-18
6.4759266e-18
7.1444811e-18
7.915085e-18
8.7571595e-18
9.8470527e-18
1.1192175e-17
1.2815529e-17
1.4789307e-17
1.7207314e-17
2.0192121e-17
2.3881345e-17
2.8351736e-17
3.3679394e-17
4.0841637e-17
4.9800952e-17
6.0969119e-17
7.4808111e-17
9.175389e-17
1.1208029e-16
1.3584807e-16
1.6284701e-16
1.9187094e-16
2.2057866e-16
2.4664237e-16
2.6867078e-16
2.8651836e-16
3.0097232e-16
3.127838e-16
3.2263582e-16
3.309545e-16
3.3791171e-16
3.4364333e-16
3.4828342e-16
3.5187821e-16
3.5439202e-16
3.5576158e-16
3.5602632e-16
3.5535116e-16
3.5393141e-16
3.5194807e-16
3.4955292e-16
3.468694e-16
3.4399572e-16
3.4100442e-16
3.3794939e-16
3.3487001e-16
3.3179612e-16
3.2874771e-16
3.257383e-16
3.2277455e-16
3.1986024e-16
3.1700136e-16
3.1418309e-16
3.1141755e-16
3.0863683e-16
3.0583953e-16
3.0317464e-16
2.9928221e-16
1.9334346e-07
1.9079579e-07
1.9093735e-07
1.9120938e-07
1.9136716e-07
1.9144075e-07
1.9147857e-07
1.9150208e-07
1.9151924e-07
1.9153324e-07
1.9154566e-07
1.9155751e-07
1.9156959e-07
1.9158262e-07
1.9159746e-07
1.9161492e-07
1.9163708e-07
1.9166244e-07
1.91711e-07
1.9170768e-07
1.920302e-07
1.9133583e-07
1.9001456e-07
1.2325971e-09
1.3629161e-15
6.4005635e-17
3.2569357e-17
2.2164741e-17
1.7571146e-17
1.4877478e-17
1.3014408e-17
1.1611793e-17
1.0520707e-17
9.6420152e-18
8.9045018e-18
8.291192e-18
7.7854479e-18
7.3703673e-18
7.0245889e-18
6.7333417e-18
6.4816515e-18
6.2609728e-18
6.067879e-18
5.900206e-18
5.7557506e-18
5.6324616e-18
5.5285798e-18
5.4426953e-18
5.3735135e-18
5.32078e-18
5.2789726e-18
5.2452874e-18
5.2200209e-18
5.2025196e-18
5.1916491e-18
5.1880409e-18
5.2001752e-18
5.2420026e-18
5.3080407e-18
5.3911654e-18
5.4920825e-18
5.6120658e-18
5.752701e-18
5.9160102e-18
6.1009183e-18
6.309474e-18
6.5440836e-18
6.8096139e-18
7.10844e-18
7.4393944e-18
7.7955332e-18
8.1947277e-18
8.7144809e-18
9.3276982e-18
1.0038851e-17
1.0866119e-17
1.1830994e-17
1.2961099e-17
1.4288873e-17
1.5847161e-17
1.7650848e-17
1.9648711e-17
2.2189575e-17
2.5305716e-17
2.9063243e-17
3.3628913e-17
3.9219721e-17
4.6120349e-17
5.4656165e-17
6.505066e-17
7.7534144e-17
9.4121539e-17
1.1486767e-16
1.4072727e-16
1.7277087e-16
2.1201023e-16
2.590846e-16
3.1414595e-16
3.7673075e-16
4.4408364e-16
5.1081339e-16
5.7151043e-16
6.2286948e-16
6.6451825e-16
6.9823791e-16
7.2578397e-16
7.4874094e-16
7.6810569e-16
7.8428687e-16
7.9760987e-16
8.083926e-16
8.1674568e-16
8.2258777e-16
8.2577232e-16
8.2639096e-16
8.2482676e-16
8.2153333e-16
8.1693103e-16
8.1137231e-16
8.051439e-16
7.984738e-16
7.9153048e-16
7.8443908e-16
7.7729108e-16
7.7015574e-16
7.6307946e-16
7.5609369e-16
7.4921391e-16
7.4244888e-16
7.3581251e-16
7.292704e-16
7.2285091e-16
7.1639588e-16
7.0990365e-16
7.037177e-16
6.9468226e-16
1.9332739e-07
1.9075597e-07
1.9089985e-07
1.9117383e-07
1.9133275e-07
1.9140691e-07
1.9144504e-07
1.9146874e-07
1.9148603e-07
1.9150013e-07
1.9151264e-07
1.9152457e-07
1.9153671e-07
1.9154981e-07
1.915647e-07
1.9158222e-07
1.9160444e-07
1.9162985e-07
1.9167852e-07
1.9167504e-07
1.9199808e-07
1.9130403e-07
1.8998991e-07
1.2744771e-09
2.5618774e-15
1.0434297e-16
5.3156601e-17
3.6279778e-17
2.9111702e-17
2.4976509e-17
2.2090148e-17
1.9891281e-17
1.8170001e-17
1.6777662e-17
1.5604376e-17
1.4627428e-17
1.3823533e-17
1.316747e-17
1.2625505e-17
1.2174707e-17
1.1788209e-17
1.1451278e-17
1.115939e-17
1.091012e-17
1.0700564e-17
1.0527775e-17
1.0389183e-17
1.0282773e-17
1.0206612e-17
1.0160919e-17
1.0135033e-17
1.0123726e-17
1.0128103e-17
1.01478e-17
1.0181432e-17
1.0230553e-17
1.0310419e-17
1.0446065e-17
1.0628745e-17
1.0846744e-17
1.1101957e-17
1.1397331e-17
1.1736487e-17
1.2123995e-17
1.2557623e-17
1.3041994e-17
1.3583386e-17
1.4192631e-17
1.4876162e-17
1.5634134e-17
1.6456344e-17
1.7378165e-17
1.8545202e-17
1.9913195e-17
2.1496066e-17
2.333394e-17
2.5474568e-17
2.7979029e-17
3.0919878e-17
3.4372944e-17
3.8384237e-17
4.2872762e-17
4.8515109e-17
5.5406033e-17
6.3712609e-17
7.3803354e-17
8.6158345e-17
1.014094e-16
1.2028862e-16
1.4337016e-16
1.7126113e-16
2.0799045e-16
2.5392539e-16
3.111821e-16
3.8213284e-16
4.6902218e-16
5.7327517e-16
6.9524841e-16
8.3395756e-16
9.833696e-16
1.1316002e-15
1.2666349e-15
1.3810034e-15
1.4738146e-15
1.5489391e-15
1.6102921e-15
1.6613883e-15
1.7044538e-15
1.740413e-15
1.770006e-15
1.7939504e-15
1.8124978e-15
1.8254702e-15
1.8325433e-15
1.8339207e-15
1.8304526e-15
1.823146e-15
1.8129341e-15
1.8005992e-15
1.7867777e-15
1.7719757e-15
1.7565671e-15
1.7408298e-15
1.7249668e-15
1.7091317e-15
1.6934277e-15
1.6779245e-15
1.6626564e-15
1.6476431e-15
1.6329152e-15
1.6183965e-15
1.6041502e-15
1.5898247e-15
1.5754179e-15
1.5616897e-15
1.5416378e-15
1.9330856e-07
1.907089e-07
1.9085554e-07
1.9113186e-07
1.9129213e-07
1.9136696e-07
1.9140545e-07
1.9142938e-07
1.9144683e-07
1.9146106e-07
1.9147367e-07
1.9148568e-07
1.9149791e-07
1.9151108e-07
1.9152604e-07
1.9154363e-07
1.9156592e-07
1.9159138e-07
1.9164018e-07
1.9163653e-07
1.9196017e-07
1.9126643e-07
1.8996341e-07
1.322587e-09
4.8730449e-15
1.8835514e-16
9.603423e-17
6.5672516e-17
5.3126016e-17
4.5976144e-17
4.0951995e-17
3.7091631e-17
3.4056426e-17
3.1595033e-17
2.9518497e-17
2.7788197e-17
2.6365309e-17
2.5206867e-17
2.4254586e-17
2.3469413e-17
2.2800146e-17
2.2219253e-17
2.1719862e-17
2.1298952e-17
2.0952119e-17
2.0674526e-17
2.0461902e-17
2.0310957e-17
2.0218434e-17
2.0185518e-17
2.019125e-17
2.0225556e-17
2.0291234e-17
2.0388832e-17
2.0516823e-17
2.0678687e-17
2.090211e-17
2.1232287e-17
2.1654982e-17
2.2150665e-17
2.2723769e-17
2.3380704e-17
2.4129296e-17
2.4979387e-17
2.5926364e-17
2.69802e-17
2.815566e-17
2.9476001e-17
3.0956749e-17
3.2602462e-17
3.4399453e-17
3.6417285e-17
3.8926978e-17
4.1857846e-17
4.5245874e-17
4.9176698e-17
5.3752746e-17
5.9104589e-17
6.5388713e-17
7.2772568e-17
8.137647e-17
9.1081985e-17
1.0317777e-16
1.1790456e-16
1.3565457e-16
1.5721547e-16
1.8361431e-16
2.1620623e-16
2.5657883e-16
3.060991e-16
3.6623889e-16
4.4486881e-16
5.4320309e-16
6.6577591e-16
8.1766946e-16
1.0036971e-15
1.2269269e-15
1.4881579e-15
1.7853578e-15
2.1057319e-15
2.4239314e-15
2.7141684e-15
2.9601806e-15
3.1599377e-15
3.3215978e-15
3.4535915e-15
3.5634551e-15
3.6559884e-15
3.7332056e-15
3.7967262e-15
3.8481106e-15
3.8879096e-15
3.915746e-15
3.9309257e-15
3.9338857e-15
3.9264504e-15
3.9107803e-15
3.888877e-15
3.862419e-15
3.8327718e-15
3.801021e-15
3.7679687e-15
3.734211e-15
3.7001835e-15
3.6662159e-15
3.6325292e-15
3.5992733e-15
3.5665218e-15
3.5343167e-15
3.502724e-15
3.4715798e-15
3.4410202e-15
3.4102904e-15
3.3793874e-15
3.3499393e-15
3.3069259e-15
1.9328666e-07
1.9065363e-07
1.9080352e-07
1.9108264e-07
1.9124449e-07
1.9132011e-07
1.9135903e-07
1.9138323e-07
1.9140088e-07
1.9141525e-07
1.9142798e-07
1.914401e-07
1.9145242e-07
1.9146567e-07
1.9148072e-07
1.9149838e-07
1.9152077e-07
1.9154629e-07
1.9159523e-07
1.9159137e-07
1.9191574e-07
1.9122223e-07
1.8993581e-07
1.3782722e-09
9.263032e-15
3.5891478e-16
1.8308775e-16
1.2534442e-16
1.0186558e-16
8.858616e-17
7.9217695e-17
7.1982852e-17
6.6280315e-17
6.1651479e-17
5.774957e-17
5.4497412e-17
5.1822004e-17
4.964376e-17
4.7856609e-17
4.6390235e-17
4.5144652e-17
4.4066446e-17
4.3143936e-17
4.2372836e-17
4.1745666e-17
4.1253737e-17
4.088931e-17
4.0646509e-17
4.0519384e-17
4.0511086e-17
4.0580351e-17
4.0707566e-17
4.0899018e-17
4.1157641e-17
4.148228e-17
4.1880361e-17
4.2402066e-17
4.3128778e-17
4.4037288e-17
4.5095095e-17
4.631192e-17
4.7701191e-17
4.927928e-17
5.1066728e-17
5.3054121e-17
5.5262308e-17
5.7724124e-17
6.0488162e-17
6.3589604e-17
6.7044798e-17
7.0838543e-17
7.5106322e-17
8.0347246e-17
8.645254e-17
9.350725e-17
1.0168955e-16
1.1121343e-16
1.2235096e-16
1.3543054e-16
1.5081018e-16
1.6877788e-16
1.8918055e-16
2.1443604e-16
2.4511e-16
2.820793e-16
3.2698517e-16
3.8196925e-16
4.4986343e-16
5.3401535e-16
6.3751631e-16
7.6373862e-16
9.2779326e-16
1.1329563e-15
1.388695e-15
1.7056202e-15
2.0937896e-15
2.5596355e-15
3.1048875e-15
3.7254376e-15
4.3948033e-15
5.0602579e-15
5.6678763e-15
6.1832505e-15
6.6019267e-15
6.9407023e-15
7.2172526e-15
7.4473244e-15
7.6409926e-15
7.8025219e-15
7.9353531e-15
8.0427853e-15
8.1259883e-15
8.1841827e-15
8.2159201e-15
8.2221147e-15
8.2065805e-15
8.1738332e-15
8.1280568e-15
8.0727598e-15
8.0107964e-15
7.9444356e-15
7.8753543e-15
7.8047983e-15
7.7336781e-15
7.6626832e-15
7.5922751e-15
7.5227671e-15
7.4543136e-15
7.3870017e-15
7.3209701e-15
7.2558759e-15
7.1920036e-15
7.1277753e-15
7.0631863e-15
7.001637e-15
6.9117352e-15
1.9326136e-07
1.9058909e-07
1.9074282e-07
1.9102523e-07
1.9118893e-07
1.9126549e-07
1.9130492e-07
1.9132944e-07
1.9134731e-07
1.9136185e-07
1.9137473e-07
1.9138697e-07
1.9139939e-07
1.9141275e-07
1.914279e-07
1.9144565e-07
1.9146813e-07
1.9149373e-07
1.9154284e-07
1.9153874e-07
1.9186396e-07
1.9117056e-07
1.8990815e-07
1.4431951e-09
1.7510699e-14
6.9936077e-16
3.5686555e-16
2.4446111e-16
1.9915072e-16
1.7363068e-16
1.5558932e-16
1.4161982e-16
1.3059552e-16
1.2164668e-16
1.1411628e-16
1.0783992e-16
1.0267209e-16
9.8459232e-17
9.5003333e-17
9.2174205e-17
8.9775418e-17
8.7702027e-17
8.5932724e-17
8.446066e-17
8.3272188e-17
8.235091e-17
8.1682162e-17
8.1254908e-17
8.1057842e-17
8.1098067e-17
8.1294722e-17
8.1609637e-17
8.2056171e-17
8.2642956e-17
8.3370714e-17
8.4254819e-17
8.5385816e-17
8.6909416e-17
8.8788194e-17
9.0968608e-17
9.3471187e-17
9.6323401e-17
9.9558708e-17
1.0321907e-16
1.072855e-16
1.1180067e-16
1.1683497e-16
1.2248788e-16
1.2883593e-16
1.359239e-16
1.4374301e-16
1.5255467e-16
1.6326925e-16
1.7572825e-16
1.901221e-16
2.0681435e-16
2.2624312e-16
2.4896431e-16
2.7565282e-16
3.0705554e-16
3.4382471e-16
3.8580809e-16
4.3748971e-16
5.0013397e-16
5.7563409e-16
6.6734341e-16
7.7964049e-16
9.1832558e-16
1.090307e-15
1.3023212e-15
1.5617893e-15
1.8973551e-15
2.3170029e-15
2.8401107e-15
3.4883953e-15
4.2824564e-15
5.2355064e-15
6.3511921e-15
7.6213419e-15
8.9921585e-15
1.0356071e-14
1.1602563e-14
1.2660419e-14
1.3520143e-14
1.4215707e-14
1.4783413e-14
1.5255513e-14
1.565272e-14
1.5983867e-14
1.62561e-14
1.6476243e-14
1.6646725e-14
1.6765964e-14
1.6830999e-14
1.6843702e-14
1.6811889e-14
1.6744811e-14
1.665104e-14
1.6537763e-14
1.6410829e-14
1.6274885e-14
1.6133367e-14
1.5988827e-14
1.5843132e-14
1.5697692e-14
1.5553455e-14
1.5411061e-14
1.5270828e-14
1.5132933e-14
1.4997661e-14
1.4864309e-14
1.473346e-14
1.4601882e-14
1.4469567e-14
1.4343477e-14
1.4159304e-14
1.9323233e-07
1.9051407e-07
1.906723e-07
1.9095859e-07
1.9112446e-07
1.9120212e-07
1.9124214e-07
1.9126703e-07
1.9128516e-07
1.9129992e-07
1.9131296e-07
1.9132534e-07
1.9133789e-07
1.9135137e-07
1.9136663e-07
1.9138449e-07
1.9140709e-07
1.9143277e-07
1.9148208e-07
1.9147768e-07
1.9180391e-07
1.9111038e-07
1.8988188e-07
1.5194267e-09
3.2873912e-14
1.3708033e-15
6.9963561e-16
4.7941662e-16
3.9104227e-16
3.4137931e-16
3.0623523e-16
2.7898763e-16
2.5747317e-16
2.4001594e-16
2.2535534e-16
2.1313781e-16
2.0306783e-16
1.948444e-16
1.8809411e-16
1.8257293e-16
1.778957e-16
1.7385606e-16
1.7041367e-16
1.6755663e-16
1.6525908e-16
1.6348943e-16
1.6221935e-16
1.6142763e-16
1.6109245e-16
1.6122877e-16
1.6167915e-16
1.6236962e-16
1.6332768e-16
1.6457482e-16
1.6611738e-16
1.6798658e-16
1.7034491e-16
1.7345172e-16
1.7724779e-16
1.8164627e-16
1.8668944e-16
1.9243256e-16
1.9894289e-16
2.0630476e-16
2.1448036e-16
2.2355559e-16
2.3367751e-16
2.4504662e-16
2.578247e-16
2.7212092e-16
2.8795524e-16
3.0582809e-16
3.2738704e-16
3.5242016e-16
3.8133852e-16
4.1487283e-16
4.5390614e-16
4.9955705e-16
5.5319029e-16
6.163351e-16
6.904128e-16
7.7539211e-16
8.7951688e-16
1.0055167e-15
1.1573745e-15
1.3418381e-15
1.567723e-15
1.8467252e-15
2.1928638e-15
2.6204178e-15
3.1452372e-15
3.8211184e-15
4.6663506e-15
5.719987e-15
7.0257924e-15
8.6253069e-15
1.0545239e-14
1.2793124e-14
1.5352903e-14
1.8116868e-14
2.0868831e-14
2.338582e-14
2.5522936e-14
2.7260386e-14
2.8665926e-14
2.981293e-14
3.0766432e-14
3.1568339e-14
3.223663e-14
3.2785886e-14
3.3229984e-14
3.357388e-14
3.381441e-14
3.3945606e-14
3.3971252e-14
3.3907109e-14
3.3771836e-14
3.3582724e-14
3.3354269e-14
3.3098266e-14
3.2824091e-14
3.2538673e-14
3.2247159e-14
3.1953313e-14
3.1659983e-14
3.1369077e-14
3.1081889e-14
3.0799058e-14
3.0520944e-14
3.0248118e-14
2.9979166e-14
2.9715263e-14
2.9449888e-14
2.9183028e-14
2.8928723e-14
2.8557272e-14
1.9319921e-07
1.9042723e-07
1.9059072e-07
1.9088156e-07
1.9104996e-07
1.911289e-07
1.9116962e-07
1.9119495e-07
1.9121339e-07
1.9122838e-07
1.9124162e-07
1.9125417e-07
1.9126687e-07
1.9128048e-07
1.9129587e-07
1.9131386e-07
1.9133658e-07
1.9136236e-07
1.9141189e-07
1.9140717e-07
1.9173458e-07
1.9104047e-07
1.8985901e-07
1.6095665e-09
6.1292167e-14
2.683371e-15
1.3697929e-15
9.3879348e-16
7.6623146e-16
6.6937674e-16
6.008068e-16
5.4761143e-16
5.0560073e-16
4.715311e-16
4.4297625e-16
4.1918411e-16
3.9955412e-16
3.8349468e-16
3.7029931e-16
3.5950874e-16
3.5037126e-16
3.4248251e-16
3.3576505e-16
3.3019699e-16
3.2572866e-16
3.2229871e-16
3.1985212e-16
3.1834786e-16
3.1774357e-16
3.1806973e-16
3.1902174e-16
3.2045687e-16
3.2243071e-16
3.2499258e-16
3.2816311e-16