/*--------------------------------*- C++ -*----------------------------------*\
| =========                 |                                                 |
| \\      /  F ield         | OpenFOAM: The Open Source CFD Toolbox           |
|  \\    /   O peration     | Version:  2206                                  |
|   \\  /    A nd           | Website:  www.openfoam.com                      |
|    \\/     M anipulation  |                                                 |
\*---------------------------------------------------------------------------*/
FoamFile
{
    version     2.0;
    format      ascii;
    arch        "LSB;label=32;scalar=64";
    class       volScalarField;
    location    "1400";
    object      omega;
}
// * * * * * * * * * * * * * * * * * * * * * * * * * * * * * * * * * * * * * //

dimensions      [0 0 -1 0 0 0 0];

internalField   nonuniform List<scalar> 
13056
(
481.19982
386.51211
380.13999
379.28521
379.21337
379.16236
379.1148
379.08226
379.06263
379.05264
379.05042
379.05513
379.06659
379.08518
379.11171
379.14823
379.19608
379.26469
379.34379
379.51641
379.5784
379.84826
391.28427
19552.992
1.1944345e+09
1.1944345e+09
1.1944345e+09
1.1944345e+09
1.1944345e+09
1.1944345e+09
1.1944345e+09
1.1944345e+09
1.1944345e+09
1.1944345e+09
1.1944345e+09
1.1944345e+09
1.1944345e+09
1.1944345e+09
1.1944345e+09
1.1944345e+09
1.1944345e+09
1.1944345e+09
1.1944345e+09
1.1944345e+09
1.1944345e+09
1.1944345e+09
1.1944345e+09
1.1944345e+09
1.1944345e+09
1.1944345e+09
1.1944345e+09
1.1944345e+09
1.1944345e+09
1.1944345e+09
1.1944345e+09
1.1944345e+09
1.1944345e+09
1.1944345e+09
1.1944345e+09
1.1944345e+09
1.1944345e+09
1.1944345e+09
1.1944345e+09
1.1944345e+09
1.1944345e+09
1.1944345e+09
1.1944345e+09
1.1944345e+09
1.1944345e+09
1.1944345e+09
1.1944345e+09
1.1944345e+09
1.1944345e+09
1.1944345e+09
1.1944345e+09
1.1944345e+09
1.1944345e+09
1.1944345e+09
1.1944345e+09
1.1944345e+09
1.1944345e+09
1.1944345e+09
1.1944345e+09
1.1944345e+09
1.1944345e+09
1.1944345e+09
1.1944345e+09
1.1944345e+09
1.1944345e+09
1.1944345e+09
1.1944345e+09
1.1944345e+09
1.1944345e+09
1.1944345e+09
1.1944345e+09
1.1944345e+09
1.1944345e+09
1.1944345e+09
1.1944345e+09
1.1944345e+09
1.1944345e+09
1.1944345e+09
1.1944345e+09
1.1944345e+09
1.1944345e+09
1.1944345e+09
1.1944345e+09
1.1944345e+09
1.1944345e+09
1.1944345e+09
1.1944345e+09
1.1944345e+09
1.1944345e+09
1.1944345e+09
1.1944345e+09
1.1944345e+09
1.1944345e+09
1.1944345e+09
1.1944345e+09
1.1944345e+09
1.1944345e+09
1.1944345e+09
1.1944345e+09
1.1944345e+09
1.1944345e+09
1.1944345e+09
1.1944345e+09
1.1944345e+09
1.1944345e+09
1.1944345e+09
1.1944345e+09
1.1944345e+09
1.1944345e+09
1.1944345e+09
1.1944345e+09
1.1944345e+09
481.18129
386.47672
380.10389
379.24866
379.1767
379.12565
379.07807
379.04552
379.02588
379.01589
379.01366
379.01837
379.02983
379.04842
379.07495
379.11147
379.15932
379.22793
379.30703
379.47965
379.54166
379.8113
391.24555
19262.799
1.9586943e+08
1.9626967e+08
1.9626966e+08
1.9626966e+08
1.9626967e+08
1.9626968e+08
1.9626969e+08
1.962697e+08
1.9626971e+08
1.9626972e+08
1.9626973e+08
1.9626974e+08
1.9626975e+08
1.9626976e+08
1.9626977e+08
1.9626978e+08
1.9626979e+08
1.962698e+08
1.9626981e+08
1.9626982e+08
1.9626983e+08
1.9626984e+08
1.9626986e+08
1.9626987e+08
1.9626989e+08
1.9626991e+08
1.9626993e+08
1.9626995e+08
1.9626997e+08
1.9627e+08
1.9627003e+08
1.9627006e+08
1.962701e+08
1.9627013e+08
1.9627017e+08
1.962702e+08
1.9627024e+08
1.9627029e+08
1.9627033e+08
1.9627039e+08
1.9627045e+08
1.9627052e+08
1.9627059e+08
1.9627068e+08
1.9627079e+08
1.9627093e+08
1.9627111e+08
1.9627133e+08
1.9627149e+08
1.9627167e+08
1.9627188e+08
1.9627212e+08
1.9627241e+08
1.9627276e+08
1.962732e+08
1.9627378e+08
1.9627463e+08
1.9627604e+08
1.9627705e+08
1.9627802e+08
1.9627921e+08
1.962807e+08
1.9628258e+08
1.9628505e+08
1.9628863e+08
1.9629556e+08
1.9630716e+08
1.9631228e+08
1.963186e+08
1.9632643e+08
1.9633608e+08
1.9634794e+08
1.9636254e+08
1.9638085e+08
1.9640463e+08
1.9643578e+08
1.96474e+08
1.9651469e+08
1.9654963e+08
1.9657821e+08
1.9659826e+08
1.9661285e+08
1.9662282e+08
1.9662938e+08
1.9663365e+08
1.9663658e+08
1.9663881e+08
1.9664061e+08
1.966421e+08
1.9664329e+08
1.9664417e+08
1.9664481e+08
1.9664524e+08
1.9664553e+08
1.966457e+08
1.966458e+08
1.9664583e+08
1.9664582e+08
1.9664577e+08
1.9664571e+08
1.9664562e+08
1.9664552e+08
1.9664541e+08
1.966453e+08
1.9664518e+08
1.9664507e+08
1.9664495e+08
1.9664489e+08
1.9664475e+08
1.9664496e+08
1.9664488e+08
1.9664474e+08
481.12223
386.3658
379.99084
379.13426
379.06191
379.01077
378.96314
378.93055
378.91089
378.90088
378.89864
378.90335
378.9148
378.93339
378.95991
378.99643
379.04428
379.1129
379.192
379.36462
379.42668
379.69559
391.12759
18925.516
64127920
64221393
64221383
64221385
64221401
64221423
64221445
64221467
64221489
64221521
64221572
64221623
64221663
64221685
64221699
64221711
64221722
64221734
64221747
64221761
64221776
64221793
64221812
64221832
64221855
64221882
64221922
64221983
64222064
64222177
64222334
64222536
64222728
64222818
64222851
64222885
64222923
64222966
64223015
64223072
64223138
64223215
64223355
64223562
64223893
64224484
64225574
64226923
64227252
64227394
64227563
64227779
64228127
64228637
64229504
64231213
64235490
64245966
64249519
64250407
64251616
64253360
64256120
64261235
64273576
64318370
64411253
64416538
64423471
64433634
64449097
64473628
64514133
64583713
64705914
64910527
65205853
65548914
65854131
66104887
66277283
66397014
66471656
66513221
66533243
66541795
66545197
66546549
66547166
66547512
66547733
66547881
66547981
66548045
66548084
66548106
66548114
66548111
66548101
66548086
66548067
66548044
66548019
66547993
66547967
66547942
66547914
66547901
66547868
66547915
66547898
66547866
481.02081
386.17575
379.79719
378.9383
378.8653
378.81398
378.76627
378.73363
378.71393
378.70389
378.70164
378.70632
378.71776
378.73635
378.76287
378.79938
378.84724
378.91586
378.99495
379.16757
379.22974
379.49739
390.9265
18568.851
29319578
29342787
29342777
29342788
29342848
29342932
29343019
29343109
29343206
29343347
29343595
29343841
29344024
29344120
29344168
29344203
29344236
29344271
29344310
29344352
29344399
29344452
29344512
29344580
29344659
29344752
29344914
29345178
29345547
29346077
29346832
29347813
29348739
29349130
29349214
29349294
29349386
29349493
29349620
29349771
29349953
29350174
29350706
29351554
29353021
29355794
29361115
29367731
29369022
29369272
29369584
29370037
29371052
29372758
29376114
29383582
29403987
29455991
29471973
29473707
29476396
29480918
29489432
29508327
29561894
29778257
30236602
30240257
30242597
30246028
30251233
30259524
30273191
30296660
30337854
30406765
30506081
30621239
30723503
30807386
30864986
30904957
30929861
30943725
30950402
30953254
30954388
30954839
30955045
30955160
30955234
30955283
30955316
30955338
30955351
30955358
30955361
30955360
30955356
30955351
30955345
30955337
30955329
30955320
30955312
30955303
30955294
30955290
30955279
30955294
30955289
30955278
480.87414
385.90098
379.51721
378.655
378.58105
378.52948
378.48165
378.44893
378.42918
378.41909
378.41681
378.42147
378.4329
378.45147
378.47799
378.5145
378.56236
378.63098
378.71007
378.88268
378.94501
379.21083
390.63615
18196.788
16070878
16058279
16058274
16058313
16058509
16058781
16059069
16059368
16059689
16060161
16061005
16061842
16062463
16062781
16062934
16063038
16063139
16063246
16063363
16063493
16063638
16063802
16063989
16064204
16064455
16064750
16065284
16066165
16067407
16069200
16071769
16075110
16078260
16079565
16079808
16080030
16080290
16080597
16080964
16081407
16081947
16082613
16084336
16087133
16092044
16101428
16119564
16142129
16146336
16146923
16147673
16148850
16151882
16157193
16167692
16191895
16260172
16436749
16488266
16489009
16490161
16492099
16495747
16503842
16526784
16619312
16814569
16816121
16817116
16818573
16820785
16824308
16830114
16840083
16857575
16886817
16928925
16977692
17020947
17056393
17080714
17097583
17108089
17113937
17116753
17117956
17118434
17118624
17118711
17118760
17118791
17118811
17118825
17118834
17118840
17118843
17118844
17118844
17118842
17118840
17118838
17118834
17118831
17118827
17118823
17118820
17118816
17118814
17118810
17118816
17118814
17118809
480.67832
385.53387
379.14313
378.27646
378.20125
378.14934
378.10135
378.06853
378.0487
378.03856
378.03624
378.04087
378.05228
378.07084
378.09735
378.13386
378.18171
378.25034
378.32943
378.50203
378.56456
378.82795
390.24818
17808.289
9848475.1
9789958.2
9789971.2
9790073.6
9790579.9
9791284.7
9792037.6
9792822.3
9793670.9
9794934.1
9797213.4
9799475.5
9801143.3
9801984.5
9802369.4
9802618.9
9802858.9
9803115.2
9803396.2
9803709.1
9804061.8
9804463.2
9804924.3
9805459.4
9806085.9
9806830.3
9808219.9
9810554.9
9813872.4
9818690.6
9825619.8
9834655
9843161.2
9846609.3
9847139.3
9847597.5
9848140.3
9848790.3
9849578.1
9850546.4
9851744.3
9853250.3
9857596.7
9864814.3
9877733.7
9902784.7
9951646.9
10012503
10022967
10023258
10023630
10024213
10025716
10028349
10033554
10045548
10079358
10166595
10191976
10192342
10192910
10193865
10195663
10199652
10210954
10256493
10352325
10353085
10353572
10354286
10355370
10357096
10359941
10364824
10373391
10387707
10408308
10432148
10453277
10470579
10482446
10490673
10495796
10498647
10500020
10500606
10500839
10500932
10500974
10500998
10501013
10501023
10501030
10501034
10501037
10501038
10501039
10501039
10501038
10501037
10501036
10501034
10501032
10501031
10501029
10501027
10501025
10501024
10501022
10501025
10501024
10501022
480.42849
385.06486
378.66517
377.7928
377.71596
377.66361
377.61542
377.58247
377.56254
377.55234
377.54996
377.55456
377.56594
377.58448
377.61098
377.64749
377.69534
377.76398
377.84305
378.01565
378.07844
378.33873
389.75201
17400.885
6533719.3
6404362.5
6404413.7
6404637.8
6405742.8
6407296.8
6408973
6410733.3
6412648.2
6415547.1
6420851.3
6426114
6429967.1
6431858.4
6432662.9
6433138.3
6433584.6
6434063.8
6434594.1
6435190.3
6435869
6436649.2
6437555.1
6438617.4
6439875.2
6441386.5
6444397.2
6449617.2
6457128.7
6468150.9
6484120.7
6505021.8
6524615.5
6532166.5
6532710.2
6532960
6533255.9
6533610.2
6534039.6
6534567.4
6535220.3
6536041.2
6538410.8
6542344.5
6549384
6563027.3
6589611.4
6622659.2
6628328.4
6628486.3
6628688.1
6629004.9
6629820.5
6631249.3
6634073.3
6640580.1
6658911.4
6706128.2
6719831.8
6720029.7
6720336.5
6720852.4
6721823.7
6723978.9
6730084.1
6754666.9
6806284.2
6806692.2
6806954.4
6807338.8
6807921.9
6808850.7
6810381.2
6813008.2
6817615.8
6825313.4
6836385.4
6849190.7
6860533.5
6869817
6876181.7
6880593.3
6883340
6884868.3
6885604.1
6885918.4
6886043.4
6886093.1
6886115.8
6886128.5
6886136.6
6886142
6886145.7
6886148
6886149.5
6886150.3
6886150.6
6886150.5
6886150.1
6886149.6
6886148.9
6886148
6886147.1
6886146.1
6886145.2
6886144.2
6886143.2
6886142.8
6886141.5
6886143.3
6886142.6
6886141.5
480.11884
384.48242
378.07156
377.19206
377.11321
377.06031
377.01187
376.97875
376.9587
376.94841
376.94597
376.95052
376.96187
376.98039
377.00687
377.04338
377.09123
377.15988
377.23894
377.41154
377.47463
377.73112
389.13481
16971.706
4522219.7
4407113.1
4407225.8
4407636.6
4409674.2
4412587.1
4415776.4
4419165.2
4422885.7
4428714.4
4439692.6
4450563.9
4458379.3
4461940.3
4463114.7
4463514
4463787.8
4464067.5
4464375.8
4464722.5
4465117.1
4465570.8
4466097.6
4466715.2
4467446.6
4468325.2
4470077
4473111.9
4477477.9
4483882.5
4493156.7
4505284.2
4516638.7
4521006.9
4521321.1
4521465.8
4521637.3
4521842.6
4522091.4
4522397.2
4522775.4
4523251.1
4524624.5
4526903.5
4530981.4
4538882
4554264.1
4573355.5
4576623
4576714.2
4576830.7
4577013.7
4577484.7
4578309.7
4579940.4
4583697.1
4594276.7
4621488.7
4629368.1
4629482
4629658.6
4629955.5
4630514.6
4631755
4635268.5
4649408.8
4679045.1
4679278.7
4679429.2
4679649.7
4679984.3
4680517.1
4681395.2
4682902.2
4685545.1
4689959.4
4696306.4
4703643.8
4710140.4
4715455.4
4719098.4
4721623
4723194.6
4724069
4724490
4724669.8
4724741.3
4724769.7
4724782.7
4724790
4724794.6
4724797.7
4724799.9
4724801.2
4724802
4724802.5
4724802.6
4724802.6
4724802.4
4724802.1
4724801.7
4724801.2
4724800.6
4724800.1
4724799.6
4724799
4724798.4
4724798.2
4724797.5
4724798.5
4724798.1
4724797.4
479.74264
383.77311
377.34854
376.46032
376.37901
376.32543
376.27668
376.24335
376.22316
376.21276
376.21024
376.21473
376.22604
376.24454
376.271
376.3075
376.35536
376.42402
376.50306
376.67565
376.73913
376.99101
388.38149
16517.92
3225252.4
3155141.9
3155187.2
3155435
3156674.3
3158446.5
3160386.8
3162448.3
3164711.2
3168250.8
3174922.2
3181525.1
3186269.8
3188431
3189143.6
3189385.9
3189552
3189721.7
3189908.9
3190119.3
3190358.7
3190634.1
3190953.7
3191328.5
3191772.3
3192305.5
3193369.4
3195211.1
3197860.1
3201744.9
3207367.9
3214715.2
3221586.1
3224224.8
3224414.3
3224501.9
3224605.6
3224729.9
3224880.4
3225065.5
3225294.4
3225582.3
3226413.7
3227792.9
3230260.5
3235040
3244339.4
3255864.7
3257832.5
3257887.5
3257957.9
3258068.4
3258352.6
3258850.6
3259834.8
3262102.2
3268485.4
3284884.6
3289622.4
3289691
3289797.3
3289976
3290312.6
3291059.4
3293174.5
3301683.9
3319489.8
3319629.8
3319720.1
3319852.5
3320053.4
3320373.4
3320900.7
3321805.6
3323392.5
3326042.3
3329851.3
3334253.1
3338149.1
3341335.5
3343519.1
3345032.1
3345973.9
3346497.8
3346750.1
3346857.8
3346900.7
3346917.7
3346925.5
3346929.8
3346932.6
3346934.5
3346935.7
3346936.5
3346937
3346937.3
3346937.4
3346937.4
3346937.2
3346937
3346936.8
3346936.5
3346936.2
3346935.9
3346935.5
3346935.2
3346934.9
3346934.7
3346934.3
3346934.9
3346934.7
3346934.3
479.29231
382.92156
376.48036
375.58161
375.49732
375.44292
375.3938
375.36022
375.33985
375.32932
375.3267
375.33113
375.34239
375.36085
375.3873
375.42379
375.47164
375.54032
375.61935
375.79194
375.85586
376.1023
387.4746
16036.924
2350946
2306810.3
2306813
2306966
2307742.7
2308854.4
2310071.5
2311364.7
2312784
2315000.6
2319182
2323318.7
2326290
2327643.2
2328089.3
2328241
2328345
2328451.2
2328568.4
2328700.1
2328850
2329022.4
2329222.5
2329457.2
2329735
2330068.8
2330735.5
2331888.7
2333547.1
2335978.6
2339496.7
2344090.7
2348381.9
2350026.9
2350144.9
2350199.6
2350264.4
2350342
2350436.1
2350551.7
2350694.7
2350874.5
2351394.1
2352255.8
2353797.3
2356782.4
2362587.3
2369772.1
2370995.8
2371030.1
2371074
2371142.9
2371320.1
2371630.5
2372244.1
2373657.5
2377635.8
2387845.9
2390789.2
2390831.9
2390898
2391009.2
2391218.6
2391683.1
2392999
2398291.2
2409349.1
2409435.8
2409491.9
2409574.1
2409698.8
2409897.5
2410224.8
2410786.6
2411771.6
2413416.2
2415779.7
2418510.1
2420926.2
2422901.7
2424255.3
2425193
2425776.7
2426101.4
2426257.7
2426324.5
2426351
2426361.6
2426366.4
2426369.1
2426370.8
2426372
2426372.8
2426373.3
2426373.6
2426373.8
2426373.8
2426373.8
2426373.7
2426373.6
2426373.4
2426373.3
2426373.1
2426372.9
2426372.7
2426372.5
2426372.3
2426372.2
2426371.9
2426372.3
2426372.1
2426371.9
478.75942
381.91044
375.44927
374.53792
374.45006
374.39469
374.34511
374.31123
374.29065
374.27996
374.27723
374.28157
374.29277
374.3112
374.33763
374.37411
374.42196
374.49066
374.56967
374.74226
374.8067
375.04678
386.39425
15526.481
1741593
1713086.1
1713059.4
1713154.7
1713652.3
1714365.5
1715146.5
1715976.4
1716887.2
1718307.3
1720989
1723641.1
1725545.5
1726412.5
1726698.4
1726795.5
1726862.1
1726930.2
1727005.3
1727089.6
1727185.7
1727296.1
1727424.4
1727574.7
1727752.8
1727966.6
1728394.3
1729133.4
1730196.1
1731754
1734007.3
1736947.8
1739691.7
1740741.6
1740816.8
1740851.8
1740893.3
1740942.9
1741003
1741077
1741168.5
1741283.5
1741616
1742167.2
1743153.3
1745062.5
1748773.3
1753360.6
1754140
1754161.9
1754189.9
1754233.9
1754347
1754545.3
1754937.1
1755839.6
1758379.6
1764892.3
1766765.7
1766792.9
1766835
1766905.9
1767039.4
1767335.5
1768174.3
1771547.3
1778585.6
1778640.6
1778676.3
1778728.6
1778808
1778934.4
1779142.7
1779500.2
1780127
1781173.3
1782676.7
1784413
1785949.1
1787204.8
1788065.1
1788661
1789031.9
1789238.3
1789337.6
1789380
1789396.9
1789403.6
1789406.7
1789408.4
1789409.5
1789410.2
1789410.7
1789411
1789411.2
1789411.3
1789411.4
1789411.3
1789411.3
1789411.2
1789411.1
1789411
1789410.9
1789410.7
1789410.6
1789410.5
1789410.4
1789410.3
1789410.1
1789410.4
1789410.3
1789410.1
478.13475
380.72043
374.23544
373.30915
373.21707
373.16051
373.1104
373.07617
373.05533
373.04446
373.04159
373.04584
373.05696
373.07535
373.10175
373.13823
373.18608
373.2548
373.33379
373.50638
373.57141
373.80421
385.11802
14984.835
1306013.9
1287212.7
1287163.8
1287222.7
1287546.5
1288011.7
1288521.5
1289063.2
1289657.8
1290583.5
1292333.4
1294063.5
1295305.6
1295870.9
1296057.3
1296120.6
1296164
1296208.4
1296257.3
1296312.3
1296374.9
1296446.9
1296530.5
1296628.6
1296744.7
1296884.2
1297163.4
1297645.4
1298338.5
1299354.4
1300823.3
1302739.2
1304525.1
1305207.2
1305255.9
1305278.7
1305305.7
1305338
1305377.2
1305425.3
1305484.9
1305559.8
1305776.4
1306135.4
1306777.5
1308020.7
1310435.9
1313418.1
1313923.5
1313937.7
1313955.9
1313984.5
1314058.1
1314187
1314441.8
1315028.7
1316680.1
1320911.1
1322125.5
1322143.2
1322170.5
1322216.6
1322303.2
1322495.5
1323040.2
1325230.1
1329793.9
1329829.4
1329852.6
1329886.5
1329938
1330019.9
1330155
1330386.8
1330793.1
1331471.4
1332445.7
1333570.9
1334566.1
1335379.4
1335936.6
1336322.5
1336562.7
1336696.3
1336760.6
1336788.1
1336799
1336803.4
1336805.4
1336806.5
1336807.2
1336807.6
1336808
1336808.2
1336808.3
1336808.4
1336808.4
1336808.4
1336808.3
1336808.3
1336808.2
1336808.2
1336808.1
1336808
1336807.9
1336807.8
1336807.7
1336807.7
1336807.6
1336807.7
1336807.7
1336807.6
477.40836
379.33023
372.81698
371.8731
371.77601
371.71806
371.66731
371.63266
371.61152
371.60043
371.5974
371.60153
371.61258
371.63091
371.65728
371.69375
371.74159
371.81035
371.88931
372.06192
372.12763
372.35218
383.62077
14410.827
988542.09
975917.63
975850.27
975885.45
976098.32
976405.52
976742.48
977100.69
977493.92
978105.19
979262.29
980406.06
981226.96
981600.55
981723.64
981765.43
981794.09
981823.37
981855.68
981892.02
981933.39
981980.96
982036.21
982100.99
982177.71
982269.88
982454.63
982773.26
983231.43
983902.86
984873.47
986138.76
987316.99
987766.1
987798.16
987813.19
987830.99
987852.31
987878.16
987909.93
987949.24
987998.7
988141.73
988378.73
988802.66
989623.28
991217.02
993182.62
993514.88
993524.26
993536.25
993555.14
993603.65
993688.63
993856.62
994243.58
995332.37
998119.73
998918.08
998929.7
998947.72
998978.03
999035.09
999161.72
999520.43
1000962.4
1003964.1
1003987.4
1004002.6
1004024.9
1004058.7
1004112.6
1004201.5
1004353.9
1004621.1
1005067.2
1005707.8
1006447.4
1007101.5
1007635.9
1008002.1
1008255.7
1008413.5
1008501.2
1008543.5
1008561.5
1008568.7
1008571.6
1008572.9
1008573.6
1008574.1
1008574.4
1008574.6
1008574.7
1008574.8
1008574.9
1008574.9
1008574.9
1008574.8
1008574.8
1008574.8
1008574.7
1008574.7
1008574.6
1008574.5
1008574.5
1008574.4
1008574.4
1008574.3
1008574.4
1008574.4
1008574.3
476.56962
377.71651
371.16985
370.20539
370.10239
370.04279
369.9913
369.95615
369.93465
369.9233
369.92009
369.92408
369.93503
369.9533
369.97963
370.01609
370.06394
370.13273
370.21167
370.3843
370.45077
370.66619
381.87458
13804.002
753645.76
745028.69
744944.76
744963.93
745104.59
745309.15
745533.93
745773.07
746035.69
746443.4
747216.3
747980.16
748528.29
748777.67
748859.8
748887.65
748906.74
748926.26
748947.8
748972.03
748999.63
749031.38
749068.24
749111.49
749162.7
749224.24
749347.75
749560.56
749866.57
750314.97
750963.01
751807.39
752592.88
752891.71
752913
752923.01
752934.88
752949.1
752966.33
752987.52
753013.73
753046.74
753142.18
753300.3
753583.13
754130.59
755193.45
756502.86
756723.63
756729.87
756737.86
756750.45
756782.77
756839.4
756951.35
757209.25
757934.83
759791.07
760321.6
760329.33
760341.33
760361.5
760399.48
760483.78
760722.6
761682.55
763678.51
763693.96
763704.08
763718.91
763741.41
763777.26
763836.33
763937.7
764115.39
764411.95
764837.85
765329.45
765764.16
766119.3
766362.59
766531.07
766635.91
766694.23
766722.3
766734.29
766739.06
766740.96
766741.82
766742.31
766742.62
766742.83
766742.97
766743.06
766743.11
766743.14
766743.15
766743.14
766743.13
766743.1
766743.08
766743.04
766743.01
766742.97
766742.93
766742.89
766742.85
766742.83
766742.79
766742.85
766742.82
766742.78
475.60736
375.8539
369.26787
368.27943
368.16949
368.10795
368.05557
368.01985
367.99794
367.98628
367.98284
367.98667
367.99751
368.01571
368.042
368.07844
368.12629
368.19513
368.27405
368.44673
368.51403
368.71956
379.84852
13164.719
577798.35
571821.91
571722.04
571729.95
571822.81
571959.7
572110.58
572271.33
572447.99
572721.98
573242.28
573756.44
574125.32
574293.1
574348.3
574366.98
574379.78
574392.86
574407.32
574423.6
574442.14
574463.49
574488.28
574517.37
574551.82
574593.22
574676.45
574819.73
575025.76
575327.63
575763.81
576331.87
576859.81
577060.25
577074.5
577081.23
577089.2
577098.75
577110.33
577124.57
577142.2
577164.4
577228.61
577334.96
577525.21
577893.44
578608.13
579487.65
579635.55
579639.74
579645.1
579653.56
579675.27
579713.33
579788.56
579961.87
580449.47
581696.05
582051.58
582056.77
582064.82
582078.36
582103.86
582160.45
582320.8
582965.31
584303.92
584314.25
584321.03
584330.97
584346.06
584370.11
584409.73
584477.72
584596.9
584795.78
585081.38
585410.99
585702.41
585940.46
586103.54
586216.45
586286.72
586325.8
586344.62
586352.65
586355.85
586357.12
586357.7
586358.03
586358.24
586358.38
586358.47
586358.53
586358.56
586358.58
586358.59
586358.58
586358.57
586358.56
586358.54
586358.51
586358.49
586358.46
586358.43
586358.41
586358.38
586358.37
586358.33
586358.38
586358.36
586358.32
474.50998
373.71499
367.08269
366.06645
365.94836
365.88454
365.83114
365.79473
365.77233
365.76032
365.75662
365.76027
365.77097
365.78908
365.81532
365.85176
365.8996
365.9685
366.04739
366.22015
366.28835
366.48352
377.50856
12494.249
444942.84
440729.04
440613.06
440612.64
440673.37
440765.05
440866.67
440975.19
441094.62
441279.78
441632.12
441980.31
442230.05
442343.59
442380.88
442393.46
442402.06
442410.87
442420.61
442431.59
442444.11
442458.53
442475.29
442494.97
442518.28
442546.3
442602.73
442699.8
442839.37
443043.87
443339.31
443723.91
444080.99
444216.3
444225.89
444230.43
444235.81
444242.27
444250.1
444259.73
444271.64
444286.67
444330.14
444402.14
444530.93
444780.2
445263.87
445858.48
445958.2
445961.03
445964.65
445970.37
445985.05
446010.78
446061.67
446178.9
446508.72
447351.41
447591.24
447594.74
447600.18
447609.32
447626.55
447664.8
447773.18
448208.79
449112.57
449119.53
449124.1
449130.81
449141
449157.24
449183.99
449229.9
449310.38
449444.67
449637.49
449859.99
450056.7
450217.36
450327.41
450403.62
450451.03
450477.41
450490.11
450495.53
450497.69
450498.55
450498.94
450499.16
450499.3
450499.39
450499.45
450499.49
450499.52
450499.53
450499.53
450499.53
450499.52
450499.51
450499.49
450499.47
450499.45
450499.44
450499.42
450499.4
450499.38
450499.37
450499.34
450499.37
450499.36
450499.33
473.26561
371.27044
364.58386
363.53545
363.40786
363.34136
363.28675
363.24956
363.22659
363.21416
363.21016
363.21358
363.22414
363.24214
363.26833
363.30474
363.3526
363.42157
363.50043
363.6733
363.74245
363.92728
374.81749
11794.856
343841.92
340818.1
340685.26
340678.29
340717.07
340778.21
340846.62
340920.01
341000.98
341126.57
341366.25
341603.1
341772.96
341850.11
341875.38
341883.85
341889.63
341895.55
341902.12
341909.54
341918.02
341927.79
341939.16
341952.52
341968.35
341987.4
342025.83
342091.91
342186.92
342326.14
342527.24
342788.92
343031.64
343123.43
343129.91
343132.98
343136.63
343141.01
343146.32
343152.86
343160.95
343171.17
343200.74
343249.72
343337.35
343506.94
343835.94
344239.98
344307.56
344309.47
344311.93
344315.81
344325.79
344343.27
344377.86
344457.57
344681.82
345254.44
345417.07
345419.44
345423.13
345429.33
345441.03
345467.02
345540.65
345836.62
346450.07
346454.77
346457.87
346462.42
346469.34
346480.36
346498.52
346529.69
346584.33
346675.49
346806.37
346957.39
347090.88
347199.9
347274.58
347326.29
347358.46
347376.36
347384.98
347388.66
347390.12
347390.71
347390.97
347391.12
347391.22
347391.28
347391.32
347391.34
347391.36
347391.37
347391.37
347391.36
347391.35
347391.34
347391.33
347391.32
347391.3
347391.29
347391.28
347391.26
347391.25
347391.24
347391.22
347391.24
347391.23
347391.21
471.86243
368.48907
361.7389
360.65338
360.5147
360.44507
360.38905
360.35094
360.32731
360.3144
360.31004
360.31321
360.32358
360.34147
360.36759
360.40399
360.45185
360.52091
360.59974
360.77278
360.84291
361.01809
371.73486
11069.843
266466.76
264255
264104.15
264091.61
264115.1
264155.35
264201.18
264250.72
264305.61
264390.98
264554.51
264716.16
264832.05
264884.62
264901.76
264907.43
264911.28
264915.24
264919.66
264924.66
264930.39
264937.02
264944.74
264953.83
264964.61
264977.59
265003.86
265048.99
265113.92
265209.05
265346.46
265525.2
265690.83
265753.33
265757.72
265759.8
265762.28
265765.25
265768.86
265773.31
265778.83
265785.8
265805.99
265839.44
265899.29
266015.13
266239.82
266515.47
266561.45
266562.75
266564.42
266567.06
266573.86
266585.79
266609.4
266663.81
266816.9
267207.61
267318.33
267319.95
267322.45
267326.68
267334.66
267352.38
267402.62
267604.55
268022.67
268025.87
268027.98
268031.08
268035.79
268043.3
268055.68
268076.93
268114.19
268176.34
268265.57
268368.51
268459.5
268533.8
268584.7
268619.94
268641.86
268654.06
268659.94
268662.45
268663.45
268663.85
268664.03
268664.13
268664.19
268664.23
268664.26
268664.28
268664.28
268664.29
268664.29
268664.28
268664.27
268664.26
268664.25
268664.24
268664.23
268664.22
268664.21
268664.2
268664.18
268664.18
268664.16
268664.17
268664.16
268664.15
470.28892
365.33805
358.51345
357.38523
357.23363
357.16034
357.10268
357.0635
357.0391
357.02563
357.02086
357.02372
357.03389
357.05164
357.07768
357.11406
357.16193
357.2311
357.30991
357.48318
357.55427
357.72119
368.21742
10323.569
206982.35
205331.07
205160.73
205143.05
205155.62
205181.38
205211.68
205244.89
205281.98
205339.99
205451.77
205562.31
205641.53
205677.37
205688.96
205692.71
205695.23
205697.85
205700.78
205704.13
205707.99
205712.46
205717.7
205723.87
205731.21
205740.07
205758.06
205788.97
205833.45
205898.65
205992.82
206115.28
206228.65
206271.33
206274.3
206275.71
206277.38
206279.4
206281.85
206284.89
206288.65
206293.41
206307.24
206330.14
206371.15
206450.52
206604.45
206793.12
206824.5
206825.37
206826.5
206828.3
206832.95
206841.11
206857.27
206894.53
206999.38
207266.84
207342.47
207343.57
207345.28
207348.17
207353.62
207365.74
207400.13
207538.36
207824.3
207826.48
207827.92
207830.03
207833.25
207838.39
207846.86
207861.41
207886.9
207929.42
207990.46
208060.88
208123.12
208173.94
208208.75
208232.86
208247.86
208256.2
208260.22
208261.94
208262.63
208262.9
208263.03
208263.09
208263.14
208263.17
208263.18
208263.19
208263.19
208263.19
208263.19
208263.18
208263.18
208263.17
208263.16
208263.15
208263.14
208263.13
208263.11
208263.1
208263.09
208263.09
208263.08
208263.08
208263.07
208263.05
468.53433
361.78326
354.87155
353.69427
353.52768
353.4501
353.39054
353.35011
353.32481
353.31069
353.30544
353.30796
353.31787
353.33547
353.36142
353.39778
353.44566
353.51496
353.59376
353.76734
353.83934
354.00025
364.21906
9561.4131
161088.32
159829.18
159637.6
159614.83
159619.29
159634.82
159654.29
159676.2
159701.03
159740.32
159816.73
159892.37
159946.53
159970.94
159978.71
159981.12
159982.71
159984.38
159986.28
159988.48
159991.05
159994.04
159997.57
160001.74
160006.73
160012.76
160025.08
160046.29
160076.82
160121.6
160186.28
160270.37
160348.15
160377.36
160379.36
160380.3
160381.42
160382.78
160384.45
160386.51
160389.07
160392.33
160401.81
160417.53
160445.68
160500.2
160605.92
160735.37
160756.83
160757.42
160758.19
160759.41
160762.59
160768.18
160779.27
160804.84
160876.83
161060.4
161112.19
161112.94
161114.1
161116.07
161119.81
161128.12
161151.71
161246.59
161442.66
161444.15
161445.13
161446.58
161448.78
161452.31
161458.12
161468.1
161485.6
161514.78
161556.66
161604.97
161647.68
161682.54
161706.43
161722.96
161733.26
161738.98
161741.75
161742.93
161743.4
161743.59
161743.67
161743.72
161743.75
161743.77
161743.78
161743.78
161743.78
161743.77
161743.77
161743.76
161743.75
161743.74
161743.73
161743.72
161743.71
161743.7
161743.69
161743.68
161743.67
161743.66
161743.65
161743.65
161743.64
161743.63
466.58917
357.78967
350.77604
349.5425
349.35849
349.2759
349.21412
349.17224
349.14591
349.13102
349.12521
349.12732
349.13696
349.15436
349.18021
349.21655
349.26445
349.3339
349.4127
349.58671
349.65947
349.8178
359.69118
8789.6833
125578.86
124599.12
124384.35
124356.18
124354.34
124362.43
124374.22
124388.21
124404.49
124430.88
124483
124534.68
124571.65
124588.18
124593.29
124594.75
124595.67
124596.67
124597.84
124599.24
124600.89
124602.85
124605.19
124607.99
124611.35
124615.43
124623.86
124638.41
124659.39
124690.18
124734.67
124792.51
124845.97
124865.98
124867.31
124867.92
124868.67
124869.57
124870.69
124872.08
124873.82
124876.04
124882.54
124893.34
124912.7
124950.21
125022.96
125111.96
125126.67
125127.05
125127.56
125128.39
125130.56
125134.39
125142.01
125159.59
125209.12
125335.37
125370.91
125371.41
125372.2
125373.55
125376.1
125381.81
125398.03
125463.28
125598.02
125599.03
125599.7
125600.69
125602.21
125604.63
125608.63
125615.51
125627.55
125647.63
125676.44
125709.67
125739.05
125763.03
125779.46
125790.84
125797.92
125801.87
125803.77
125804.59
125804.91
125805.04
125805.1
125805.13
125805.15
125805.16
125805.17
125805.16
125805.16
125805.15
125805.15
125805.14
125805.13
125805.11
125805.1
125805.09
125805.08
125805.07
125805.06
125805.05
125805.04
125805.03
125805.02
125805.01
125805
125804.98
464.44588
353.32201
346.18904
344.89106
344.68685
344.59841
344.53403
344.49048
344.46293
344.44716
344.4407
344.44234
344.45164
344.46883
344.49456
344.53087
344.57879
344.64843
344.72723
344.90181
344.97509
345.13573
354.5831
8015.4715
98041.666
97266.298
97026.255
96992.103
96985.012
96987.49
96993.677
97001.989
97012.24
97029.652
97064.995
97100.156