/*--------------------------------*- C++ -*----------------------------------*\
| =========                 |                                                 |
| \\      /  F ield         | OpenFOAM: The Open Source CFD Toolbox           |
|  \\    /   O peration     | Version:  2206                                  |
|   \\  /    A nd           | Website:  www.openfoam.com                      |
|    \\/     M anipulation  |                                                 |
\*---------------------------------------------------------------------------*/
FoamFile
{
    version     2.0;
    format      ascii;
    arch        "LSB;label=32;scalar=64";
    class       volScalarField;
    location    "1400";
    object      p;
}
// * * * * * * * * * * * * * * * * * * * * * * * * * * * * * * * * * * * * * //

dimensions      [0 2 -2 0 0 0 0];

internalField   nonuniform List<scalar> 
13056
(
0.012026973
0.012130988
0.012351087
0.012631902
0.012972168
0.013372149
0.013829966
0.014344825
0.014918066
0.015552927
0.01625443
0.017029723
0.017888688
0.018845311
0.01991855
0.021137815
0.022539751
0.024200993
0.026180839
0.028775193
0.031895314
0.037363271
0.042440086
0.080706852
0.051090703
0.0023348694
0.0010053868
0.0018779133
0.0024273435
0.0028731689
0.0031458012
0.0033368192
0.0034823555
0.0035877299
0.0036622198
0.0037156931
0.003754471
0.0037821533
0.0038011207
0.0038133907
0.0038203816
0.0038230117
0.0038220938
0.0038182817
0.0038119923
0.0038035549
0.0037932564
0.0037813181
0.0037679255
0.0037532052
0.0037372444
0.0037201272
0.0037019146
0.0036826594
0.0036624046
0.0036411548
0.0036189056
0.0035956604
0.0035714106
0.0035461377
0.00351982
0.003492431
0.0034639149
0.003434201
0.0034032193
0.0033708947
0.0033371524
0.0033019083
0.0032650742
0.0032265669
0.0031862864
0.0031441117
0.0030999246
0.003053614
0.0030050646
0.0029541999
0.0029009615
0.0028453766
0.0027874889
0.0027272901
0.002664982
0.0026007893
0.002535029
0.0024685021
0.0024024342
0.0023386085
0.0022795948
0.0022294247
0.0021926931
0.0021702185
0.0021777859
0.002219314
0.0022924022
0.0024116333
0.0025817206
0.0028040951
0.0030740548
0.003383518
0.0037260599
0.0040591269
0.0043307243
0.0045007057
0.0045780977
0.0045583635
0.0044591416
0.004336544
0.0041951987
0.004045123
0.0038924361
0.0037365438
0.0035804923
0.0034225948
0.0032590907
0.0030941476
0.0029294894
0.0027663204
0.0026066687
0.0024496229
0.0022938223
0.0021421818
0.0019946163
0.0018494947
0.0017071901
0.0015693196
0.0014358881
0.0013053717
0.0011784575
0.0010558036
0.00093962638
0.00082955705
0.00072804516
0.00063158601
0.00056926186
0.00048232656
0.0006676456
-0.0005134259
0.012026973
0.012130988
0.012351087
0.012631902
0.012972168
0.013372149
0.013829966
0.014344825
0.014918066
0.015552928
0.01625443
0.017029724
0.017888689
0.018845312
0.019918551
0.021137817
0.022539753
0.024200996
0.026180843
0.028775199
0.031895321
0.037363284
0.042440118
0.080702057
0.051101968
0.0023420799
0.0010072325
0.0018787489
0.0024278554
0.002873529
0.0031460734
0.0033370356
0.0034825326
0.0035878783
0.0036623464
0.0037158027
0.0037545671
0.0037822383
0.0038011965
0.0038134588
0.0038204432
0.0038230677
0.0038221449
0.0038183285
0.0038120354
0.0038035947
0.0037932932
0.0037813523
0.0037679573
0.0037532349
0.0037372722
0.0037201532
0.0037019391
0.0036826823
0.0036624262
0.0036411751
0.0036189248
0.0035956785
0.0035714277
0.0035461539
0.0035198354
0.0034924455
0.0034639287
0.0034342141
0.0034032317
0.0033709065
0.0033371636
0.003301919
0.0032650844
0.0032265765
0.0031862956
0.0031441204
0.0030999328
0.0030536218
0.003005072
0.0029542069
0.0029009681
0.0028453828
0.0027874948
0.0027272955
0.0026649871
0.002600794
0.0025350333
0.0024685061
0.0024024377
0.0023386116
0.0022795975
0.0022294268
0.0021926948
0.0021702196
0.0021777862
0.0022193136
0.002292401
0.0024116312
0.0025817176
0.0028040912
0.0030740501
0.0033835126
0.0037260539
0.0040591207
0.0043307184
0.0045007006
0.0045780934
0.0045583606
0.0044591395
0.0043365425
0.0041951977
0.0040451223
0.0038924357
0.0037365435
0.0035804921
0.0034225948
0.0032590908
0.0030941478
0.0029294896
0.0027663207
0.0026066691
0.0024496234
0.0022938227
0.0021421823
0.0019946168
0.0018494952
0.0017071906
0.0015693201
0.0014358885
0.0013053722
0.001178458
0.0010558041
0.00093962685
0.00082955751
0.00072804562
0.00063158647
0.00056926237
0.00048232709
0.00066764615
-0.00051342555
0.012026973
0.012130988
0.012351087
0.012631902
0.012972168
0.013372149
0.013829966
0.014344826
0.014918066
0.015552928
0.016254431
0.017029725
0.01788869
0.018845313
0.019918552
0.021137819
0.022539755
0.024200999
0.026180847
0.028775204
0.031895328
0.037363299
0.042440142
0.080697215
0.051117448
0.0023490776
0.0010094215
0.0018797481
0.0024284676
0.0028739595
0.0031463989
0.0033372943
0.0034827445
0.0035880557
0.0036624978
0.0037159338
0.003754682
0.0037823399
0.0038012871
0.0038135402
0.0038205168
0.0038231346
0.003822206
0.0038183845
0.0038120869
0.0038036423
0.0037933373
0.0037813932
0.0037679954
0.0037532705
0.0037373054
0.0037201843
0.0037019682
0.0036827098
0.003662452
0.0036411994
0.0036189477
0.0035957002
0.0035714482
0.0035461733
0.0035198537
0.0034924629
0.0034639452
0.0034342298
0.0034032466
0.0033709206
0.003337177
0.0033019318
0.0032650965
0.003226588
0.0031863065
0.0031441308
0.0030999427
0.0030536311
0.0030050808
0.0029542153
0.002900976
0.0028453903
0.0027875018
0.0027273021
0.0026649931
0.0026007997
0.0025350385
0.0024685108
0.0024024419
0.0023386154
0.0022796006
0.0022294294
0.0021926967
0.0021702208
0.0021777865
0.0022193131
0.0022923995
0.0024116287
0.002581714
0.0028040865
0.0030740444
0.0033835061
0.0037260467
0.0040591133
0.0043307114
0.0045006944
0.0045780884
0.0045583571
0.0044591369
0.0043365408
0.0041951965
0.0040451215
0.0038924352
0.0037365432
0.003580492
0.0034225949
0.003259091
0.0030941481
0.00292949
0.0027663211
0.0026066696
0.0024496239
0.0022938233
0.0021421829
0.0019946174
0.0018494958
0.0017071912
0.0015693207
0.0014358891
0.0013053728
0.0011784586
0.0010558046
0.00093962741
0.00082955806
0.00072804618
0.00063158702
0.00056926297
0.00048232773
0.00066764682
-0.00051342513
0.012026973
0.012130988
0.012351087
0.012631902
0.012972169
0.013372149
0.013829967
0.014344826
0.014918067
0.015552929
0.016254431
0.017029725
0.017888691
0.018845314
0.019918554
0.021137821
0.022539757
0.024201002
0.026180851
0.02877521
0.031895335
0.037363312
0.042440165
0.080692494
0.051134721
0.0023542498
0.0010114809
0.0018807268
0.0024290675
0.0028743813
0.0031467177
0.0033375477
0.003482952
0.0035882295
0.0036626461
0.0037160623
0.0037547945
0.0037824395
0.0038013759
0.00381362
0.0038205889
0.0038232001
0.0038222658
0.0038184393
0.0038121374
0.0038036889
0.0037933804
0.0037814333
0.0037680327
0.0037533053
0.0037373379
0.0037202148
0.0037019968
0.0036827366
0.0036624773
0.0036412233
0.0036189702
0.0035957215
0.0035714683
0.0035461923
0.0035198717
0.00349248
0.0034639614
0.0034342452
0.0034032612
0.0033709345
0.0033371901
0.0033019442
0.0032651083
0.0032265993
0.0031863172
0.003144141
0.0030999523
0.0030536403
0.0030050895
0.0029542235
0.0029009837
0.0028453976
0.0027875086
0.0027273085
0.0026649991
0.0026008052
0.0025350436
0.0024685154
0.0024024461
0.002338619
0.0022796037
0.0022294319
0.0021926986
0.0021702219
0.0021777869
0.0022193126
0.002292398
0.0024116262
0.0025817105
0.0028040818
0.0030740388
0.0033834997
0.0037260397
0.004059106
0.0043307045
0.0045006885
0.0045780836
0.0045583536
0.0044591344
0.0043365391
0.0041951953
0.0040451207
0.0038924347
0.0037365429
0.0035804919
0.0034225949
0.0032590911
0.0030941483
0.0029294903
0.0027663215
0.0026066701
0.0024496244
0.0022938238
0.0021421834
0.001994618
0.0018494964
0.0017071918
0.0015693213
0.0014358897
0.0013053734
0.0011784591
0.0010558052
0.00093962796
0.0008295586
0.00072804672
0.00063158756
0.00056926356
0.00048232833
0.00066764747
-0.00051342474
0.012026973
0.012130988
0.012351087
0.012631902
0.012972169
0.013372149
0.013829967
0.014344826
0.014918067
0.015552929
0.016254432
0.017029726
0.017888692
0.018845316
0.019918555
0.021137822
0.02253976
0.024201005
0.026180854
0.028775216
0.031895342
0.037363324
0.042440191
0.080687437
0.051153095
0.0023599929
0.0010135637
0.0018817289
0.0024296817
0.0028748132
0.0031470443
0.0033378073
0.0034831646
0.0035884075
0.0036627979
0.0037161938
0.0037549098
0.0037825414
0.0038014669
0.0038137017
0.0038206627
0.0038232672
0.003822327
0.0038184955
0.0038121891
0.0038037366
0.0037934246
0.0037814743
0.0037680709
0.0037533409
0.0037373712
0.003720246
0.0037020261
0.0036827642
0.0036625032
0.0036412477
0.0036189933
0.0035957432
0.0035714888
0.0035462117
0.0035198902
0.0034924975
0.003463978
0.0034342609
0.0034032761
0.0033709486
0.0033372036
0.003301957
0.0032651205
0.0032266108
0.0031863282
0.0031441514
0.0030999622
0.0030536497
0.0030050984
0.0029542319
0.0029009917
0.002845405
0.0027875157
0.0027273151
0.0026650052
0.0026008109
0.0025350488
0.0024685201
0.0024024503
0.0023386227
0.0022796069
0.0022294345
0.0021927006
0.0021702231
0.0021777872
0.0022193121
0.0022923965
0.0024116237
0.0025817068
0.0028040771
0.0030740331
0.0033834931
0.0037260325
0.0040590986
0.0043306975
0.0045006823
0.0045780788
0.0045583501
0.0044591319
0.0043365373
0.0041951941
0.0040451199
0.0038924342
0.0037365426
0.0035804918
0.0034225949
0.0032590912
0.0030941485
0.0029294906
0.0027663219
0.0026066705
0.0024496249
0.0022938244
0.002142184
0.0019946186
0.001849497
0.0017071924
0.0015693219
0.0014358903
0.001305374
0.0011784597
0.0010558058
0.00093962852
0.00082955916
0.00072804728
0.00063158811
0.00056926416
0.00048232893
0.00066764814
-0.00051342435
0.012026973
0.012130988
0.012351087
0.012631902
0.012972169
0.01337215
0.013829967
0.014344827
0.014918067
0.01555293
0.016254433
0.017029727
0.017888693
0.018845317
0.019918557
0.021137824
0.022539762
0.024201008
0.026180859
0.028775221
0.03189535
0.037363336
0.042440222
0.080681824
0.051172249
0.0023671519
0.0010157786
0.0018827931
0.0024303341
0.002875272
0.0031473911
0.0033380829
0.0034833903
0.0035885965
0.0036629592
0.0037163335
0.0037550322
0.0037826497
0.0038015635
0.0038137885
0.0038207411
0.0038233384
0.0038223921
0.0038185551
0.0038122439
0.0038037872
0.0037934715
0.0037815179
0.0037681115
0.0037533787
0.0037374066
0.0037202791
0.0037020572
0.0036827934
0.0036625307
0.0036412736
0.0036190177
0.0035957663
0.0035715107
0.0035462324
0.0035199097
0.003492516
0.0034639956
0.0034342776
0.0034032919
0.0033709637
0.0033372179
0.0033019706
0.0032651334
0.0032266231
0.0031863398
0.0031441625
0.0030999727
0.0030536596
0.0030051078
0.0029542408
0.0029010001
0.002845413
0.0027875231
0.0027273221
0.0026650117
0.0026008169
0.0025350543
0.0024685252
0.0024024548
0.0023386267
0.0022796103
0.0022294372
0.0021927026
0.0021702243
0.0021777875
0.0022193115
0.002292395
0.002411621
0.002581703
0.0028040721
0.0030740271
0.0033834862
0.0037260248
0.0040590907
0.00433069
0.0045006758
0.0045780737
0.0045583463
0.0044591292
0.0043365354
0.0041951928
0.004045119
0.0038924336
0.0037365423
0.0035804916
0.0034225949
0.0032590914
0.0030941488
0.002929491
0.0027663224
0.002606671
0.0024496255
0.002293825
0.0021421846
0.0019946192
0.0018494977
0.0017071931
0.0015693225
0.0014358909
0.0013053746
0.0011784603
0.0010558064
0.00093962912
0.00082955975
0.00072804787
0.0006315887
0.0005692648
0.00048232958
0.00066764885
-0.00051342393
0.012026973
0.012130988
0.012351087
0.012631902
0.012972169
0.01337215
0.013829967
0.014344827
0.014918068
0.01555293
0.016254433
0.017029728
0.017888694
0.018845318
0.019918558
0.021137827
0.022539765
0.024201012
0.026180863
0.028775228
0.031895358
0.037363349
0.042440259
0.080675542
0.051192411
0.0023750629
0.0010181652
0.0018839385
0.0024310363
0.0028757658
0.0031477645
0.0033383796
0.0034836333
0.0035888
0.0036631329
0.0037164839
0.0037551639
0.0037827663
0.0038016674
0.0038138818
0.0038208255
0.0038234151
0.0038224621
0.0038186193
0.003812303
0.0038038418
0.0037935221
0.0037815648
0.0037681551
0.0037534195
0.0037374447
0.0037203148
0.0037020907
0.0036828248
0.0036625603
0.0036413015
0.003619044
0.0035957912
0.0035715342
0.0035462546
0.0035199308
0.003492536
0.0034640145
0.0034342955
0.003403309
0.0033709799
0.0033372333
0.0033019852
0.0032651473
0.0032266363
0.0031863524
0.0031441744
0.003099984
0.0030536703
0.003005118
0.0029542504
0.0029010092
0.0028454215
0.0027875312
0.0027273296
0.0026650187
0.0026008233
0.0025350603
0.0024685306
0.0024024597
0.002338631
0.0022796139
0.0022294402
0.0021927049
0.0021702256
0.0021777879
0.002219311
0.0022923932
0.0024116181
0.0025816989
0.0028040667
0.0030740206
0.0033834787
0.0037260166
0.0040590821
0.0043306819
0.0045006688
0.0045780682
0.0045583423
0.0044591262
0.0043365334
0.0041951914
0.0040451181
0.003892433
0.003736542
0.0035804915
0.0034225949
0.0032590915
0.0030941491
0.0029294914
0.0027663228
0.0026066716
0.0024496261
0.0022938256
0.0021421853
0.0019946199
0.0018494983
0.0017071937
0.0015693232
0.0014358916
0.0013053753
0.001178461
0.001055807
0.00093962976
0.00082956038
0.00072804851
0.00063158933
0.00056926549
0.00048233027
0.00066764961
-0.00051342347
0.012026973
0.012130988
0.012351088
0.012631903
0.012972169
0.01337215
0.013829968
0.014344827
0.014918068
0.015552931
0.016254434
0.017029729
0.017888695
0.01884532
0.01991856
0.021137829
0.022539768
0.024201016
0.026180868
0.028775235
0.031895367
0.037363362
0.042440303
0.080668459
0.051213851
0.0023835578
0.0010207528
0.0018851804
0.0024317979
0.0028763014
0.0031481693
0.0033387014
0.0034838968
0.0035890207
0.0036633212
0.0037166469
0.0037553068
0.0037828927
0.0038017802
0.0038139831
0.0038209171
0.0038234983
0.003822538
0.0038186889
0.0038123671
0.0038039009
0.0037935768
0.0037816157
0.0037682025
0.0037534636
0.003737486
0.0037203535
0.003702127
0.003682859
0.0036625924
0.0036413317
0.0036190726
0.0035958181
0.0035715597
0.0035462788
0.0035199536
0.0034925576
0.003464035
0.003434315
0.0034033275
0.0033709974
0.00333725
0.0033020011
0.0032651624
0.0032266506
0.0031863659
0.0031441873
0.0030999962
0.003053682
0.003005129
0.0029542608
0.002901019
0.0028454308
0.0027875399
0.0027273377
0.0026650263
0.0026008304
0.0025350667
0.0024685364
0.0024024649
0.0023386356
0.0022796179
0.0022294433
0.0021927073
0.0021702271
0.0021777883
0.0022193103
0.0022923914
0.002411615
0.0025816944
0.0028040609
0.0030740135
0.0033834706
0.0037260077
0.0040590729
0.0043306732
0.0045006612
0.0045780623
0.0045583379
0.0044591231
0.0043365313
0.0041951899
0.0040451171
0.0038924324
0.0037365416
0.0035804913
0.0034225949
0.0032590917
0.0030941494
0.0029294918
0.0027663233
0.0026066722
0.0024496267
0.0022938263
0.002142186
0.0019946206
0.0018494991
0.0017071945
0.0015693239
0.0014358924
0.001305376
0.0011784617
0.0010558077
0.00093963046
0.00082956107
0.0007280492
0.00063159001
0.00056926624
0.00048233102
0.00066765044
-0.00051342298
0.012026973
0.012130988
0.012351088
0.012631903
0.012972169
0.01337215
0.013829968
0.014344828
0.014918069
0.015552931
0.016254435
0.01702973
0.017888697
0.018845322
0.019918563
0.021137832
0.022539772
0.024201021
0.026180874
0.028775243
0.031895378
0.037363376
0.042440355
0.0806604
0.051236799
0.0023927693
0.0010235776
0.0018865366
0.0024326298
0.0028768864
0.0031486116
0.0033390529
0.0034841846
0.0035892617
0.0036635268
0.003716825
0.0037554629
0.0037830307
0.0038019033
0.0038140937
0.003821017
0.0038235891
0.003822621
0.0038187649
0.003812437
0.0038039655
0.0037936366
0.0037816712
0.0037682542
0.0037535119
0.0037375311
0.0037203957
0.0037021666
0.0036828962
0.0036626274
0.0036413648
0.0036191037
0.0035958476
0.0035715875
0.0035463051
0.0035199786
0.0034925813
0.0034640575
0.0034343363
0.0034033477
0.0033710166
0.0033372682
0.0033020184
0.0032651788
0.0032266662
0.0031863808
0.0031442014
0.0031000096
0.0030536946
0.003005141
0.0029542722
0.0029010297
0.0028454409
0.0027875494
0.0027273466
0.0026650346
0.002600838
0.0025350738
0.0024685428
0.0024024707
0.0023386406
0.0022796222
0.0022294468
0.0021927099
0.0021702287
0.0021777887
0.0022193096
0.0022923894
0.0024116115
0.0025816894
0.0028040545
0.0030740058
0.0033834617
0.0037259979
0.0040590628
0.0043306637
0.0045006529
0.0045780557
0.0045583331
0.0044591196
0.0043365289
0.0041951883
0.004045116
0.0038924317
0.0037365412
0.0035804912
0.0034225949
0.0032590919
0.0030941497
0.0029294922
0.0027663239
0.0026066728
0.0024496274
0.0022938271
0.0021421868
0.0019946214
0.0018494999
0.0017071953
0.0015693247
0.0014358932
0.0013053768
0.0011784625
0.0010558085
0.00093963122
0.00082956181
0.00072804995
0.00063159076
0.00056926706
0.00048233184
0.00066765134
-0.00051342245
0.012026973
0.012130988
0.012351088
0.012631903
0.01297217
0.013372151
0.013829969
0.014344828
0.01491807
0.015552932
0.016254436
0.017029731
0.017888698
0.018845324
0.019918565
0.021137835
0.022539776
0.024201026
0.02618088
0.028775252
0.031895389
0.037363391
0.042440417
0.080651156
0.051261463
0.0024028601
0.0010266816
0.0018880272
0.0024335444
0.0028775296
0.0031490978
0.0033394392
0.003484501
0.0035895266
0.0036637529
0.0037170208
0.0037556344
0.0037831824
0.0038020386
0.0038142153
0.0038211269
0.003823689
0.0038227121
0.0038188485
0.0038125139
0.0038040365
0.0037937024
0.0037817323
0.003768311
0.0037535649
0.0037375807
0.0037204422
0.0037022102
0.0036829372
0.003662666
0.0036414011
0.003619138
0.0035958799
0.0035716181
0.0035463341
0.003520006
0.0034926073
0.0034640821
0.0034343597
0.0034033699
0.0033710377
0.0033372882
0.0033020374
0.0032651969
0.0032266834
0.0031863971
0.0031442169
0.0031000243
0.0030537086
0.0030051542
0.0029542847
0.0029010415
0.002845452
0.0027875598
0.0027273564
0.0026650437
0.0026008464
0.0025350815
0.0024685499
0.002402477
0.0023386462
0.0022796269
0.0022294506
0.0021927128
0.0021702304
0.0021777892
0.0022193089
0.0022923871
0.0024116078
0.002581684
0.0028040475
0.0030739973
0.003383452
0.0037259872
0.0040590518
0.0043306532
0.0045006438
0.0045780486
0.0045583279
0.0044591158
0.0043365263
0.0041951865
0.0040451148
0.0038924309
0.0037365408
0.003580491
0.0034225949
0.0032590921
0.00309415
0.0029294927
0.0027663245
0.0026066735
0.0024496282
0.0022938279
0.0021421877
0.0019946223
0.0018495008
0.0017071962
0.0015693256
0.001435894
0.0013053776
0.0011784633
0.0010558093
0.00093963206
0.00082956264
0.00072805078
0.00063159158
0.00056926796
0.00048233274
0.00066765233
-0.00051342186
0.012026973
0.012130988
0.012351088
0.012631903
0.01297217
0.013372151
0.013829969
0.014344829
0.01491807
0.015552933
0.016254437
0.017029733
0.0178887
0.018845326
0.019918568
0.021137839
0.022539781
0.024201032
0.026180888
0.028775262
0.031895402
0.037363407
0.042440491
0.080640475
0.051288043
0.0024139816
0.0010301107
0.0018896746
0.0024345553
0.0028782405
0.0031496353
0.0033398663
0.0034848507
0.0035898195
0.0036640027
0.0037172372
0.003755824
0.0037833502
0.0038021882
0.0038143497
0.0038212484
0.0038237994
0.0038228129
0.0038189409
0.0038125989
0.003804115
0.0037937751
0.0037817998
0.0037683739
0.0037536235
0.0037376355
0.0037204935
0.0037022584
0.0036829824
0.0036627086
0.0036414412
0.0036191759
0.0035959157
0.0035716519
0.0035463661
0.0035200363
0.003492636
0.0034641094
0.0034343855
0.0034033944
0.003371061
0.0033373104
0.0033020585
0.0032652169
0.0032267024
0.0031864152
0.003144234
0.0031000406
0.003053724
0.0030051688
0.0029542985
0.0029010546
0.0028454643
0.0027875714
0.0027273672
0.0026650538
0.0026008558
0.0025350901
0.0024685577
0.002402484
0.0023386523
0.0022796322
0.0022294549
0.002192716
0.0021702323
0.0021777897
0.002219308
0.0022923847
0.0024116036
0.0025816781
0.0028040397
0.0030739879
0.0033834412
0.0037259753
0.0040590395
0.0043306417
0.0045006337
0.0045780407
0.0045583221
0.0044591116
0.0043365234
0.0041951845
0.0040451134
0.00389243
0.0037365403
0.0035804908
0.003422595
0.0032590923
0.0030941504
0.0029294933
0.0027663252
0.0026066743
0.0024496291
0.0022938288
0.0021421886
0.0019946233
0.0018495018
0.0017071972
0.0015693266
0.001435895
0.0013053786
0.0011784643
0.0010558103
0.00093963298
0.00082956355
0.00072805169
0.00063159249
0.00056926895
0.00048233374
0.00066765343
-0.0005134212
0.012026973
0.012130989
0.012351088
0.012631903
0.01297217
0.013372152
0.01382997
0.01434483
0.014918071
0.015552934
0.016254439
0.017029734
0.017888703
0.018845329
0.019918572
0.021137843
0.022539786
0.024201039
0.026180896
0.028775272
0.031895417
0.037363422
0.042440579
0.08062806
0.051316721
0.0024262926
0.0010339158
0.0018915031
0.0024356778
0.0028790299
0.003150232
0.0033403405
0.003485239
0.0035901446
0.0036642802
0.0037174775
0.0037560345
0.0037835364
0.0038023543
0.0038144989
0.0038213832
0.0038239219
0.0038229247
0.0038190434
0.0038126933
0.0038042021
0.0037938558
0.0037818747
0.0037684436
0.0037536886
0.0037376963
0.0037205505
0.0037023119
0.0036830327
0.0036627559
0.0036414858
0.0036192179
0.0035959554
0.0035716895
0.0035464016
0.00352007
0.0034926679
0.0034641396
0.0034344142
0.0034034217
0.0033710869
0.0033373349
0.0033020818
0.0032652391
0.0032267235
0.0031864352
0.003144253
0.0031000586
0.0030537411
0.003005185
0.0029543139
0.0029010691
0.002845478
0.0027875842
0.0027273792
0.0026650649
0.0026008661
0.0025350996
0.0024685663
0.0024024917
0.0023386591
0.002279638
0.0022294596
0.0021927196
0.0021702344
0.0021777903
0.0022193071
0.0022923819
0.002411599
0.0025816714
0.0028040311
0.0030739775
0.0033834292
0.0037259622
0.0040590259
0.0043306288
0.0045006226
0.0045780319
0.0045583156
0.0044591069
0.0043365202
0.0041951823
0.0040451119
0.0038924291
0.0037365397
0.0035804905
0.003422595
0.0032590925
0.0030941509
0.0029294939
0.0027663259
0.0026066752
0.00244963
0.0022938298
0.0021421897
0.0019946244
0.0018495029
0.0017071983
0.0015693277
0.0014358961
0.0013053797
0.0011784653
0.0010558113
0.00093963401
0.00082956456
0.00072805271
0.00063159349
0.00056927005
0.00048233484
0.00066765464
-0.00051342048
0.012026973
0.012130989
0.012351088
0.012631904
0.012972171
0.013372152
0.01382997
0.01434483
0.014918072
0.015552936
0.01625444
0.017029737
0.017888705
0.018845332
0.019918576
0.021137848
0.022539792
0.024201047
0.026180905
0.028775285
0.031895434
0.037363437
0.042440684
0.08061355
0.051347658
0.0024399714
0.001038153
0.0018935401
0.0024369285
0.0028799095
0.0031508969
0.0033408688
0.0034856716
0.0035905068
0.0036645892
0.0037177451
0.003756269
0.0037837438
0.0038025394
0.0038146651
0.0038215334
0.0038240584
0.0038230494
0.0038191577
0.0038127984
0.0038042992
0.0037939456
0.0037819582
0.0037685213
0.0037537611
0.0037377641
0.003720614
0.0037023714
0.0036830887
0.0036628086
0.0036415355
0.0036192648
0.0035959997
0.0035717313
0.0035464412
0.0035201075
0.0034927034
0.0034641733
0.0034344462
0.003403452
0.0033711157
0.0033373623
0.0033021078
0.0032652638
0.003226747
0.0031864575
0.0031442742
0.0031000788
0.0030537602
0.0030052031
0.0029543309
0.0029010852
0.0028454932
0.0027875985
0.0027273926
0.0026650774
0.0026008776
0.0025351102
0.0024685759
0.0024025003
0.0023386667
0.0022796444
0.0022294648
0.0021927235
0.0021702367
0.002177791
0.002219306
0.0022923789
0.0024115938
0.0025816641
0.0028040215
0.0030739659
0.0033834159
0.0037259475
0.0040590108
0.0043306145
0.0045006101
0.0045780221
0.0045583084
0.0044591017
0.0043365166
0.0041951799
0.0040451103
0.003892428
0.0037365391
0.0035804903
0.003422595
0.0032590928
0.0030941514
0.0029294945
0.0027663268
0.0026066761
0.0024496311
0.002293831
0.0021421909
0.0019946256
0.0018495041
0.0017071995
0.0015693289
0.0014358973
0.0013053809
0.0011784665
0.0010558125
0.00093963515
0.00082956569
0.00072805384
0.00063159461
0.00056927128
0.00048233608
0.000667656
-0.00051341967
0.012026973
0.012130989
0.012351089
0.012631904
0.012972171
0.013372153
0.013829971
0.014344831
0.014918074
0.015552937
0.016254442
0.017029739
0.017888708
0.018845336
0.01991858
0.021137854
0.022539799
0.024201056
0.026180916
0.028775298
0.031895452
0.037363451
0.042440809
0.080596513
0.051380979
0.0024552196
0.0010428848
0.0018958157
0.0024383263
0.0028808924
0.00315164
0.0033414592
0.003486155
0.0035909116
0.0036649346
0.0037180442
0.0037565311
0.0037839756
0.0038027461
0.0038148508
0.0038217013
0.0038242109
0.0038231886
0.0038192853
0.0038129159
0.0038044076
0.0037940461
0.0037820514
0.0037686081
0.0037538421
0.0037378398
0.0037206849
0.003702438
0.0036831512
0.0036628674
0.0036415909
0.0036193171
0.0035960491
0.003571778
0.0035464854
0.0035201494
0.0034927431
0.003464211
0.0034344819
0.003403486
0.0033711479
0.0033373929
0.0033021369
0.0032652914
0.0032267732
0.0031864824
0.0031442979
0.0031001012
0.0030537815
0.0030052233
0.00295435
0.0029011033
0.0028455102
0.0027876144
0.0027274075
0.0026650913
0.0026008905
0.002535122
0.0024685867
0.00240251
0.0023386752
0.0022796517
0.0022294706
0.002192728
0.0021702394
0.0021777917
0.0022193049
0.0022923755
0.0024115881
0.0025816558
0.0028040107
0.0030739529
0.003383401
0.0037259312
0.0040589939
0.0043305985
0.0045005962
0.0045780112
0.0045583004
0.0044590959
0.0043365126
0.0041951771
0.0040451084
0.0038924268
0.0037365384
0.00358049
0.003422595
0.0032590931
0.0030941519
0.0029294953
0.0027663277
0.0026066772
0.0024496323
0.0022938322
0.0021421922
0.0019946269
0.0018495055
0.0017072009
0.0015693303
0.0014358986
0.0013053822
0.0011784678
0.0010558138
0.00093963643
0.00082956695
0.00072805511
0.00063159587
0.00056927265
0.00048233745
0.00066765751
-0.00051341877
0.012026973
0.012130989
0.012351089
0.012631905
0.012972172
0.013372153
0.013829972
0.014344833
0.014918075
0.015552939
0.016254445
0.017029742
0.017888711
0.01884534
0.019918586
0.021137861
0.022539807
0.024201066
0.026180927
0.028775312
0.031895471
0.037363461
0.042440957
0.080576428
0.051416757
0.0024722663
0.0010481809
0.0018983637
0.0024398919
0.0028819935
0.0031524723
0.0033421205
0.0034866965
0.003591365
0.0036653215
0.0037183792
0.0037568245
0.0037842352
0.0038029777
0.0038150588
0.0038218892
0.0038243817
0.0038233446
0.0038194283
0.0038130474
0.0038045291
0.0037941586
0.0037821559
0.0037687054
0.0037539328
0.0037379247
0.0037207644
0.0037025125
0.0036832213
0.0036629334
0.0036416531
0.0036193757
0.0035961045
0.0035718304
0.003546535
0.0035201963
0.0034927876
0.0034642531
0.0034345219
0.0034035239
0.003371184
0.0033374272
0.0033021695
0.0032653224
0.0032268026
0.0031865104
0.0031443244
0.0031001264
0.0030538054
0.0030052459
0.0029543714
0.0029011235
0.0028455292
0.0027876323
0.0027274242
0.0026651069
0.0026009049
0.0025351352
0.0024685987
0.0024025208
0.0023386847
0.0022796598
0.0022294772
0.0021927329
0.0021702423
0.0021777925
0.0022193036
0.0022923716
0.0024115816
0.0025816466
0.0028039987
0.0030739384
0.0033833844
0.0037259128
0.004058975
0.0043305806
0.0045005806
0.0045779989
0.0045582914
0.0044590894
0.0043365081
0.004195174
0.0040451064
0.0038924255
0.0037365377
0.0035804896
0.003422595
0.0032590934
0.0030941525
0.0029294961
0.0027663288
0.0026066784
0.0024496336
0.0022938337
0.0021421937
0.0019946285
0.001849507
0.0017072024
0.0015693318
0.0014359002
0.0013053837
0.0011784693
0.0010558152
0.00093963786
0.00082956835
0.00072805652
0.00063159727
0.00056927418
0.00048233899
0.00066765921
-0.00051341776
0.012026973
0.012130989
0.012351089
0.012631905
0.012972172
0.013372154
0.013829973
0.014344834
0.014918077
0.015552941
0.016254447
0.017029745
0.017888715
0.018845345
0.019918591
0.021137868
0.022539816
0.024201077
0.02618094
0.028775326
0.031895492
0.037363465
0.042441133
0.080552669
0.051454996
0.0024913741
0.0010541194
0.0019012221
0.002441649
0.0028832291
0.0031534064
0.0033428625
0.0034873041
0.0035918738
0.0036657555
0.0037187551
0.0037571538
0.0037845265
0.0038032375
0.0038152922
0.0038221002
0.0038245734
0.0038235195
0.0038195887
0.003813195
0.0038046654
0.0037942848
0.0037822731
0.0037688145
0.0037540346
0.0037380198
0.0037208535
0.0037025962
0.0036832999
0.0036630073
0.0036417228
0.0036194415
0.0035961666
0.0035718891
0.0035465905
0.0035202489
0.0034928375
0.0034643004
0.0034345668
0.0034035666
0.0033712245
0.0033374656
0.003302206
0.0032653571
0.0032268356
0.0031865417
0.0031443541
0.0031001546
0.0030538321
0.0030052712
0.0029543954
0.0029011461
0.0028455506
0.0027876524
0.002727443
0.0026651243
0.0026009211
0.0025351501
0.0024686122
0.0024025329
0.0023386953
0.0022796689
0.0022294845
0.0021927385
0.0021702456
0.0021777934
0.0022193021
0.0022923673
0.0024115744
0.0025816362
0.0028039852
0.0030739221
0.0033833657
0.0037258923
0.0040589537
0.0043305606
0.0045005632
0.0045779852
0.0045582813
0.0044590821
0.0043365031
0.0041951706
0.004045104
0.003892424
0.0037365368
0.0035804893
0.0034225951
0.0032590938
0.0030941532
0.0029294971
0.0027663299
0.0026066798
0.0024496351
0.0022938352
0.0021421953
0.0019946302
0.0018495087
0.0017072041
0.0015693335
0.0014359018
0.0013053853
0.0011784709
0.0010558168
0.00093963947
0.00082956993
0.00072805811
0.00063159885
0.0005692759
0.00048234072
0.00066766111
-0.00051341662
0.012026973
0.012130989
0.01235109
0.012631906
0.012972173
0.013372155
0.013829974
0.014344835
0.014918078
0.015552943
0.01625445
0.017029748
0.01788872
0.01884535
0.019918598
0.021137876
0.022539826
0.024201089
0.026180954
0.028775341
0.031895514
0.037363461
0.042441342
0.080524483
0.051495604
0.0025128472
0.0010607877
0.0019044332
0.0024436237
0.0028846179
0.0031544562
0.0033436964
0.0034879868
0.0035924455
0.0036662433
0.0037191775
0.0037575239
0.0037848539
0.0038035294
0.0038155544
0.0038223372
0.0038247888
0.0038237161
0.0038197689
0.0038133609
0.0038048185
0.0037944266
0.0037824048
0.0037689371
0.003754149
0.0037381268
0.0037209537
0.0037026902
0.0036833882
0.0036630905
0.0036418011
0.0036195154
0.0035962364
0.0035719551
0.003546653
0.0035203081
0.0034928935
0.0034643536
0.0034346173
0.0034036144
0.0033712699
0.0033375088
0.0033022471
0.0032653961
0.0032268727
0.0031865769
0.0031443876
0.0031001863
0.0030538622
0.0030052997
0.0029544224
0.0029011716
0.0028455746
0.0027876749
0.0027274641
0.002665144
0.0026009393
0.0025351668
0.0024686274
0.0024025465
0.0023387073
0.0022796791
0.0022294927
0.0021927447
0.0021702493
0.0021777944
0.0022193004
0.0022923625
0.0024115662
0.0025816245
0.00280397
0.0030739038
0.0033833447
0.0037258692
0.0040589299
0.004330538