/*--------------------------------*- C++ -*----------------------------------*\
| =========                 |                                                 |
| \\      /  F ield         | OpenFOAM: The Open Source CFD Toolbox           |
|  \\    /   O peration     | Version:  2206                                  |
|   \\  /    A nd           | Website:  www.openfoam.com                      |
|    \\/     M anipulation  |                                                 |
\*---------------------------------------------------------------------------*/
FoamFile
{
    version     2.0;
    format      ascii;
    arch        "LSB;label=32;scalar=64";
    class       surfaceScalarField;
    location    "1400";
    object      phi;
}
// * * * * * * * * * * * * * * * * * * * * * * * * * * * * * * * * * * * * * //

dimensions      [0 3 -1 0 0 0 0];

oriented        oriented;

internalField   nonuniform List<scalar> 
25880
(
2.0045897e-06
6.4435434e-11
2.0044222e-06
1.6755403e-10
2.0041967e-06
2.2542118e-10
2.003938e-06
2.5876659e-10
2.0036415e-06
2.9644944e-10
2.0033027e-06
3.3880647e-10
2.0029175e-06
3.852614e-10
2.0024801e-06
4.3733751e-10
2.0019831e-06
4.9702412e-10
2.0014167e-06
5.6635335e-10
2.000769e-06
6.4772456e-10
2.0000244e-06
7.4462984e-10
1.9991628e-06
8.6155771e-10
1.9981559e-06
1.0069049e-09
1.9969677e-06
1.1882127e-09
1.9955338e-06
1.4339572e-09
1.9937923e-06
1.7414422e-09
1.9915336e-06
2.2587429e-09
1.9887299e-06
2.8036904e-09
1.9843899e-06
4.339959e-09
1.9790323e-06
5.3575698e-09
1.9662022e-06
1.2830102e-08
1.9577697e-06
8.4324991e-09
9.8296864e-07
9.7480111e-07
4.3380745e-09
9.7863056e-07
2.099019e-09
2.2390556e-09
1.589847e-09
5.0917199e-10
1.3437433e-09
2.4610369e-10
1.1916396e-09
1.521037e-10
1.0837094e-09
1.0793023e-10
1.001347e-09
8.2362415e-11
9.3524976e-10
6.609721e-11
8.8058621e-10
5.4663546e-11
8.343451e-10
4.6241113e-11
7.9447452e-10
3.9870585e-11
7.5957322e-10
3.4901297e-11
7.2865694e-10
3.0916282e-11
7.0099911e-10
2.7657826e-11
6.7604429e-10
2.4954826e-11
6.5336273e-10
2.2681554e-11
6.3261476e-10
2.0747972e-11
6.1352623e-10
1.9088526e-11
5.9587802e-10
1.7648214e-11
5.7948906e-10
1.6388957e-11
5.6420694e-10
1.5282123e-11
5.4990505e-10
1.4301886e-11
5.3647579e-10
1.3429268e-11
5.2382745e-10
1.2648334e-11
5.1188152e-10
1.1945936e-11
5.0057004e-10
1.1311474e-11
4.8983371e-10
1.073633e-11
4.7962066e-10
1.0213057e-11
4.6988533e-10
9.7353276e-12
4.6058764e-10
9.2976884e-12
4.5169227e-10
8.8953719e-12
4.4316772e-10
8.5245445e-12
4.3498572e-10
8.1820082e-12
4.2712093e-10
7.8647832e-12
4.195507e-10
7.5702345e-12
4.1225458e-10
7.2961197e-12
4.0521424e-10
7.0403395e-12
3.9841333e-10
6.8009094e-12
3.9183709e-10
6.5762438e-12
3.8547193e-10
6.3651564e-12
3.7930549e-10
6.1664439e-12
3.7332669e-10
5.9787922e-12
3.675257e-10
5.8009946e-12
3.6189367e-10
5.6320336e-12
3.5642274e-10
5.4709253e-12
3.5110623e-10
5.3165068e-12
3.4593859e-10
5.1676435e-12
3.4091518e-10
5.0234068e-12
3.3603234e-10
4.8828452e-12
3.3128735e-10
4.7449845e-12
3.266785e-10
4.6088532e-12
3.2220517e-10
4.4733349e-12
3.1786829e-10
4.3368764e-12
3.1367145e-10
4.1968433e-12
3.0962069e-10
4.0507518e-12
3.057238e-10
3.8968956e-12
3.0199063e-10
3.7331638e-12
2.9843329e-10
3.5573438e-12
2.9506648e-10
3.3668124e-12
2.9190971e-10
3.1567643e-12
2.8898927e-10
2.9204395e-12
2.8633824e-10
2.651035e-12
2.8400099e-10
2.3372484e-12
2.8204841e-10
1.9525795e-12
2.8051527e-10
1.5331363e-12
2.7956977e-10
9.4550407e-13
2.7929374e-10
2.7602922e-13
2.7973511e-10
-4.4136797e-13
2.8108779e-10
-1.3526858e-12
2.8346547e-10
-2.3776844e-12
2.8701557e-10
-3.5500971e-12
2.9182796e-10
-4.8123909e-12
2.9789193e-10
-6.0639683e-12
3.0515624e-10
-7.2643108e-12
3.1351002e-10
-8.3537791e-12
3.2254328e-10
-9.0332628e-12
3.3148796e-10
-8.9446807e-12
3.3965364e-10
-8.1656722e-12
3.4638803e-10
-6.7343911e-12
3.5158461e-10
-5.1965771e-12
3.555462e-10
-3.9615886e-12
3.5841696e-10
-2.8707612e-12
3.6050145e-10
-2.084495e-12
3.61983e-10
-1.481548e-12
3.6298755e-10
-1.0045515e-12
3.6359946e-10
-6.1190306e-13
3.6387866e-10
-2.7919702e-13
3.6385331e-10
2.5344127e-14
3.6352277e-10
3.3053989e-13
3.6291096e-10
6.1181366e-13
3.6205995e-10
8.5100437e-13
3.6100328e-10
1.05667e-12
3.5978546e-10
1.2178228e-12
3.5844681e-10
1.3386496e-12
3.5701652e-10
1.4302938e-12
3.5552568e-10
1.49084e-12
3.5400319e-10
1.5224853e-12
3.5246489e-10
1.5383056e-12
3.5092036e-10
1.5445291e-12
3.4938246e-10
1.5379024e-12
3.4786242e-10
1.5200359e-12
3.463635e-10
1.4989171e-12
3.4488394e-10
1.4795587e-12
3.4342284e-10
1.4611016e-12
3.4198072e-10
1.4421202e-12
3.4056028e-10
1.4204391e-12
3.3913186e-10
1.4284209e-12
3.3771626e-10
1.415604e-12
3.361664e-10
1.5498538e-12
3.346092e-10
1.5572037e-12
3.3290284e-10
1.7063576e-12
1.0224216e-12
2.0344626e-06
1.2989862e-10
2.0342923e-06
3.3781459e-10
2.0340632e-06
4.545196e-10
2.0338002e-06
5.2176629e-10
2.0334989e-06
5.9774756e-10
2.0331546e-06
6.8315041e-10
2.032763e-06
7.7681356e-10
2.0323186e-06
8.818074e-10
2.0318135e-06
1.0021422e-09
2.0312379e-06
1.1419145e-09
2.0305797e-06
1.3059609e-09
2.029823e-06
1.5013205e-09
2.0289475e-06
1.7370407e-09
2.0279243e-06
2.0300471e-09
2.026717e-06
2.3955392e-09
2.0252601e-06
2.8909181e-09
2.0234908e-06
3.5107385e-09
2.021196e-06
4.5534847e-09
2.0183478e-06
5.6519218e-09
2.0139393e-06
8.7484707e-09
2.0084972e-06
1.07996e-08
1.9954653e-06
2.5862002e-08
1.9868928e-06
1.7005069e-08
1.0039005e-06
1.9577934e-06
1.323621e-08
1.9692949e-06
6.4224161e-09
9.0528496e-09
4.8647376e-09
2.0668505e-09
4.1117022e-09
9.9913916e-10
3.6462713e-09
6.1753456e-10
3.3160032e-09
4.3819836e-10
3.0639764e-09
3.3438918e-10
2.8617237e-09
2.6834994e-10
2.6944574e-09
2.2192981e-10
2.5529636e-09
1.8773498e-10
2.4309636e-09
1.6187051e-10
2.3241697e-09
1.4169521e-10
2.2295698e-09
1.2551623e-10
2.1449405e-09
1.1228713e-10
2.0685822e-09
1.0131315e-10
1.9991798e-09
9.2083876e-11
1.935694e-09
8.423376e-11
1.877286e-09
7.7496549e-11
1.8232852e-09
7.164904e-11
1.7731375e-09
6.6536654e-11
1.7263766e-09
6.2043038e-11
1.6826151e-09
5.8063406e-11
1.6415236e-09
5.4520699e-11
1.6028218e-09
5.1350214e-11
1.5662691e-09
4.8498582e-11
1.5316578e-09
4.5922761e-11
1.4988064e-09
4.3587762e-11
1.4675561e-09
4.1463352e-11
1.4377676e-09
3.9523846e-11
1.4093182e-09
3.7747099e-11
1.3820998e-09
3.6113758e-11
1.3560161e-09
3.4608259e-11
1.3309805e-09
3.3217618e-11
1.3069155e-09
3.1929736e-11
1.2837518e-09
3.0733917e-11
1.2614269e-09
2.9621056e-11
1.2398846e-09
2.8582632e-11
1.2190749e-09
2.7610588e-11
1.1989527e-09
2.6698486e-11
1.1794763e-09
2.5841509e-11
1.160608e-09
2.5034772e-11
1.1423138e-09
2.427294e-11
1.1245637e-09
2.3551114e-11
1.1073306e-09
2.2865164e-11
1.0905904e-09
2.2211093e-11
1.0743228e-09
2.1584183e-11
1.0585106e-09
2.0979827e-11
1.0431397e-09
2.0394253e-11
1.028199e-09
1.9823599e-11
1.01368e-09
1.9263909e-11
9.9957766e-10
1.8711239e-11
9.8588994e-10
1.8161055e-11
9.7261976e-10
1.7607051e-11
9.5977807e-10
1.7038533e-11
9.4738341e-10
1.6445421e-11
9.3545952e-10
1.5820778e-11
9.2403665e-10
1.515604e-11
9.1315177e-10
1.4442221e-11
9.0284993e-10
1.3668657e-11
8.9319085e-10
1.2815842e-11
8.8425496e-10
1.1856328e-11
8.7614351e-10
1.0762486e-11
8.6899233e-10
9.4884215e-12
8.6301832e-10
7.9265915e-12
8.5832787e-10
6.2235829e-12
8.5543574e-10
3.8376339e-12
8.5459221e-10
1.1195667e-12
8.5594386e-10
-1.7930225e-12
8.6008418e-10
-5.4930043e-12
8.6736087e-10
-9.6543829e-12
8.7822486e-10
-1.4414079e-11
8.9295099e-10
-1.9538529e-11
9.1150643e-10
-2.4619411e-11
9.3373432e-10
-2.9492198e-11
9.5929473e-10
-3.3914186e-11
9.869331e-10
-3.6671631e-11
1.0142998e-09
-3.6311373e-11
1.039283e-09
-3.3148884e-11
1.0598872e-09
-2.7338615e-11
1.0757867e-09
-2.1096037e-11
1.0879081e-09
-1.6082948e-11
1.096692e-09
-1.1654735e-11
1.1030703e-09
-8.4627939e-12
1.1076038e-09
-6.0150234e-12
1.1106777e-09
-4.0784969e-12
1.1125503e-09
-2.4844282e-12
1.1134047e-09
-1.1336681e-12
1.1133273e-09
1.0276474e-13
1.112316e-09
1.3418201e-12
1.1104441e-09
2.4837874e-12
1.1078402e-09
3.4548796e-12
1.104607e-09
4.2898376e-12
1.1008807e-09
4.9441026e-12
1.0967847e-09
5.4346517e-12
1.0924084e-09
5.8066904e-12
1.0878467e-09
6.0524994e-12
1.0831882e-09
6.1809909e-12
1.0784813e-09
6.2452166e-12
1.0737553e-09
6.2704688e-12
1.0690497e-09
6.2435668e-12
1.0643987e-09
6.1710457e-12
1.0598123e-09
6.0853028e-12
1.0552851e-09
6.0067002e-12
1.0508145e-09
5.9317471e-12
1.0464019e-09
5.8546812e-12
1.0420557e-09
5.7666445e-12
1.0376851e-09
5.7990246e-12
1.0333539e-09
5.746835e-12
1.0286117e-09
6.2919984e-12
1.0238488e-09
6.3201918e-12
1.0186199e-09
6.9351794e-12
4.1384905e-12
2.0946536e-06
1.9737574e-10
2.0944781e-06
5.1335253e-10
2.0942418e-06
6.9076075e-10
2.0939706e-06
7.9297948e-10
2.0936599e-06
9.0845427e-10
2.0933048e-06
1.0382425e-09
2.092901e-06
1.1805805e-09
2.0924427e-06
1.3401328e-09
2.0919219e-06
1.5229928e-09
2.0913284e-06
1.7353846e-09
2.0906497e-06
1.9846568e-09
2.0898695e-06
2.2815037e-09
2.0889669e-06
2.6396703e-09
2.0879121e-06
3.0848717e-09
2.0866674e-06
3.6401965e-09
2.0851655e-06
4.3928562e-09
2.0833417e-06
5.3345587e-09
2.0809763e-06
6.918795e-09
2.0780407e-06
8.5875744e-09
2.0734973e-06
1.3291855e-08
2.067889e-06
1.6407883e-08
2.0544594e-06
3.9291621e-08
2.0456179e-06
2.5846574e-08
1.0401747e-06
2.9632365e-06
2.2886789e-08
2.9865828e-06
1.1129819e-08
2.080982e-08
8.4307458e-09
4.7659238e-09
7.1257499e-09
2.304135e-09
6.319121e-09
1.4241634e-09
5.7467351e-09
1.0105843e-09
5.3099519e-09
7.7117244e-10
4.9594355e-09
6.1886633e-10
4.6695535e-09
5.1181183e-10
4.424337e-09
4.3295145e-10
4.2129055e-09
3.73302e-10
4.0278274e-09
3.2677327e-10
3.8638824e-09
2.8946127e-10
3.7172171e-09
2.5895243e-10
3.5848859e-09
2.3364438e-10
3.4646098e-09
2.1235999e-10
3.3545872e-09
1.942563e-10
3.2533647e-09
1.7871903e-10
3.1597801e-09
1.6523366e-10
3.072873e-09
1.5344374e-10
2.9918354e-09
1.4308069e-10
2.9159958e-09
1.3390302e-10
2.8447835e-09
1.2573296e-10
2.7777124e-09
1.1842132e-10
2.714366e-09
1.1184501e-10
2.654384e-09
1.0590477e-10
2.5974518e-09
1.005199e-10
2.5432945e-09
9.5620686e-11
2.4916704e-09
9.1147887e-11
2.4423671e-09
8.7050437e-11
2.3951971e-09
8.328371e-11
2.3499936e-09
7.9811805e-11
2.3066064e-09
7.6604778e-11
2.2649014e-09
7.3634731e-11
2.2247584e-09
7.0876996e-11
2.1860689e-09
6.8310575e-11
2.1487357e-09
6.5915816e-11
2.1126721e-09
6.3674144e-11
2.0777999e-09
6.1570708e-11
2.044047e-09
5.9594399e-11
2.0113478e-09
5.7733951e-11
1.9796437e-09
5.597706e-11
1.9488824e-09
5.4312428e-11
1.919017e-09
5.273053e-11
1.890006e-09
5.1222153e-11
1.8618137e-09
4.9776411e-11
1.8344109e-09
4.8382684e-11
1.8077729e-09
4.7032272e-11
1.7818802e-09
4.5716266e-11
1.7567186e-09
4.4425544e-11
1.7322788e-09
4.3151006e-11
1.7085576e-09
4.1882198e-11
1.6855601e-09
4.0604573e-11
1.6633052e-09
3.9293479e-11
1.6418249e-09
3.7925666e-11
1.6211606e-09
3.6485127e-11
1.6013645e-09
3.495212e-11
1.5825008e-09
3.3305916e-11
1.5646476e-09
3.15219e-11
1.5479083e-09
2.9555087e-11
1.5324225e-09
2.7342173e-11
1.5183655e-09
2.4819429e-11
1.505973e-09
2.1880997e-11
1.4956206e-09
1.8278949e-11
1.4874929e-09
1.4351244e-11
1.482482e-09
8.8485838e-12
1.4810215e-09
2.5800865e-12
1.4833655e-09
-4.137034e-12
1.4905424e-09
-1.2669941e-11
1.5031548e-09
-2.2266801e-11
1.5219839e-09
-3.3243163e-11
1.5475058e-09
-4.5060459e-11
1.5796636e-09
-5.6777189e-11
1.6181852e-09
-6.8013753e-11
1.6624807e-09
-7.8209671e-11
1.7103758e-09
-8.4566793e-11
1.7577995e-09
-8.3735e-11
1.8010926e-09
-7.6441998e-11
1.8367977e-09
-6.3043754e-11
1.8643504e-09
-4.8648745e-11
1.8853564e-09
-3.7088909e-11
1.9005792e-09
-2.6877558e-11
1.9116331e-09
-1.9516735e-11
1.9194901e-09
-1.3871961e-11
1.9248176e-09
-9.4060415e-12
1.9280631e-09
-5.7298938e-12
1.9295442e-09
-2.6147827e-12
1.9294103e-09
2.3670026e-13
1.9276579e-09
3.0941817e-12
1.9244139e-09
5.7278044e-12
1.9199014e-09
7.9673259e-12
1.9142984e-09
9.8928555e-12
1.9078408e-09
1.1401711e-11
1.9007425e-09
1.2533011e-11
1.8931582e-09
1.3390959e-11
1.8852528e-09
1.3957834e-11
1.8771797e-09
1.4254184e-11
1.8690226e-09
1.4402297e-11
1.8608325e-09
1.4460511e-11
1.8526776e-09
1.4398474e-11
1.8446174e-09
1.4231253e-11
1.8366692e-09
1.4033512e-11
1.8288237e-09
1.3852222e-11
1.8210761e-09
1.3679337e-11
1.8134292e-09
1.3501598e-11
1.8058973e-09
1.3298553e-11
1.7983232e-09
1.3373142e-11
1.7908174e-09
1.3252623e-11
1.7825996e-09
1.4509736e-11
1.7743469e-09
1.4572962e-11
1.76528e-09
1.6001989e-11
9.5303239e-12
2.1860597e-06
2.6788731e-10
2.1858762e-06
6.9683069e-10
2.1856293e-06
9.3773691e-10
2.1853457e-06
1.0765332e-09
2.1850209e-06
1.2332974e-09
2.1846496e-06
1.409485e-09
2.1842275e-06
1.6027037e-09
2.1837483e-06
1.819283e-09
2.1832038e-06
2.0674929e-09
2.1825834e-06
2.3557811e-09
2.181874e-06
2.6941199e-09
2.1810585e-06
3.0970229e-09
2.180115e-06
3.5831417e-09
2.1790125e-06
4.1873742e-09
2.1777116e-06
4.9410478e-09
2.176142e-06
5.9625189e-09
2.174236e-06
7.240506e-09
2.1717644e-06
9.390442e-09
2.1686969e-06
1.1655008e-08
2.1639501e-06
1.8038675e-08
2.158091e-06
2.2267007e-08
2.1440612e-06
5.332138e-08
2.1348161e-06
3.5091681e-08
1.0926332e-06
4.0054194e-06
3.386114e-08
4.0453549e-06
1.6502823e-08
3.8168137e-08
1.2501222e-08
8.7675253e-09
1.0566232e-08
4.2391248e-09
9.3701151e-09
2.6202804e-09
8.5213433e-09
1.8593561e-09
7.873655e-09
1.4188608e-09
7.3538948e-09
1.1386265e-09
6.9240471e-09
9.4165957e-10
6.5604318e-09
7.9656671e-10
6.2469154e-09
6.8681846e-10
5.9724775e-09
6.0121108e-10
5.7293768e-09
5.3256197e-10
5.5118992e-09
4.7643004e-10
5.3156767e-09
4.2986689e-10
5.1373299e-09
3.907068e-10
4.9741873e-09
3.5739892e-10
4.8240938e-09
3.2881257e-10
4.6853258e-09
3.0400158e-10
4.5564594e-09
2.8231023e-10
4.4362962e-09
2.6324385e-10
4.3238408e-09
2.4635844e-10
4.2182469e-09
2.3132689e-10
4.1187935e-09
2.1787469e-10
4.0248631e-09
2.0577539e-10
3.9359215e-09
1.9484636e-10
3.8515023e-09
1.8493912e-10
3.7711976e-09
1.759254e-10
3.6946492e-09
1.6769622e-10
3.6215421e-09
1.6015762e-10
3.5515983e-09
1.5322749e-10
3.4845703e-09
1.468398e-10
3.4202356e-09
1.4093943e-10
3.3583953e-09
1.3547506e-10
3.298871e-09
1.3040131e-10
3.241502e-09
1.2567955e-10
3.1861442e-09
1.2127362e-10
3.132669e-09
1.1714934e-10
3.0809603e-09
1.132794e-10
3.0309114e-09
1.0964335e-10
2.9824249e-09
1.0622047e-10
2.9354138e-09
1.0298811e-10
2.8898007e-09
9.9925488e-11
2.8455162e-09
9.7015085e-11
2.8024984e-09
9.4239945e-11
2.7606948e-09
9.1580048e-11
2.7200616e-09
8.9015849e-11
2.6805625e-09
8.6531342e-11
2.6421687e-09
8.4110135e-11
2.6048588e-09
8.1735444e-11
2.5686192e-09
7.9390524e-11
2.5334453e-09
7.7056139e-11
2.4993444e-09
7.4705522e-11
2.4663445e-09
7.2293326e-11
2.4344934e-09
6.9776779e-11
2.4038521e-09
6.7126414e-11
2.3744983e-09
6.4305916e-11
2.3465271e-09
6.1277137e-11
2.3200542e-09
5.7994757e-11
2.2952333e-09
5.4376007e-11
2.2722711e-09
5.0304409e-11
2.2514278e-09
4.5662686e-11
2.2330527e-09
4.0256067e-11
2.2177032e-09
3.3628533e-11
2.2056528e-09
2.6401645e-11
2.198224e-09
1.6277357e-11
2.1960601e-09
4.7439682e-12
2.199538e-09
-7.6149191e-12
2.2101822e-09
-2.3314169e-11
2.2288863e-09
-4.0970887e-11
2.2568082e-09
-6.1165097e-11
2.2946539e-09
-8.2906106e-11
2.3423386e-09
-1.0446195e-10
2.3994587e-09
-1.2513379e-10
2.4651384e-09
-1.438894e-10
2.5361538e-09
-1.5558219e-10
2.6064692e-09
-1.5405038e-10
2.67066e-09
-1.4063278e-10
2.7236007e-09
-1.159845e-10
2.7644545e-09
-8.9502511e-11
2.7956016e-09
-6.8236028e-11
2.8181744e-09
-4.9450329e-11
2.8345657e-09
-3.5908103e-11
2.8462167e-09
-2.5522918e-11
2.854117e-09
-1.7306384e-11
2.85893e-09
-1.0542897e-11
2.8611268e-09
-4.8115209e-12
2.8609286e-09
4.3486818e-13
2.8583306e-09
5.6922215e-12
2.8535206e-09
1.0537767e-11
2.8468298e-09
1.4658177e-11
2.8385218e-09
1.820082e-11
2.8289466e-09
2.09769e-11
2.8184213e-09
2.3058332e-11
2.8071755e-09
2.4636769e-11
2.7954536e-09
2.5679732e-11
2.7834827e-09
2.6225017e-11
2.7713875e-09
2.6497521e-11
2.7592434e-09
2.6604591e-11
2.7471515e-09
2.6490464e-11
2.7351999e-09
2.6182844e-11
2.7234143e-09
2.5819031e-11
2.7117811e-09
2.548545e-11
2.7002931e-09
2.516732e-11
2.6889545e-09
2.4840282e-11
2.6777863e-09
2.4466693e-11
2.6665557e-09
2.4603726e-11
2.6554265e-09
2.438185e-11
2.6432421e-09
2.6694098e-11
2.6310064e-09
2.6808667e-11
2.6175591e-09
2.9449328e-11
1.7520424e-11
2.3100431e-06
3.4250447e-10
2.3098488e-06
8.9104728e-10
2.3095874e-06
1.1992264e-09
2.3092871e-06
1.3767693e-09
2.3089432e-06
1.5772509e-09
2.3085501e-06
1.8025611e-09
2.3081032e-06
2.0496431e-09
2.3075958e-06
2.3265878e-09
2.3070194e-06
2.6439684e-09
2.3063626e-06
3.0125852e-09
2.3056115e-06
3.4451869e-09
2.3047482e-06
3.9603268e-09
2.3037495e-06
4.5818474e-09
2.3025825e-06
5.3543612e-09
2.3012056e-06
6.3179081e-09
2.2995444e-06
7.6237955e-09
2.2975273e-06
9.2575615e-09
2.2949118e-06
1.2005968e-08
2.291666e-06
1.4900768e-08
2.2866439e-06
2.3060837e-08
2.2804452e-06
2.8465664e-08
2.2656031e-06
6.816348e-08
2.2558127e-06
4.4882131e-08
1.1623958e-06
5.0988363e-06
4.6804827e-08
5.1609459e-06
2.2862818e-08
6.2110145e-08
1.7319713e-08
1.431063e-08
1.4639016e-08
6.9198218e-09
1.2981811e-08
4.2774858e-09
1.1805844e-08
3.0353234e-09
1.090848e-08
2.316225e-09
1.0188368e-08
1.8587383e-09
9.5928288e-09
1.5371986e-09
9.0890536e-09
1.3003419e-09
8.6546903e-09
1.1211818e-09
8.2744702e-09
9.8143116e-10
7.937667e-09
8.6936514e-10
7.6363638e-09
7.7773323e-10
7.3645088e-09
7.017219e-10
7.1174199e-09
6.3779573e-10
6.8913956e-09
5.8342323e-10
6.6834503e-09
5.3675782e-10
6.4911962e-09
4.962557e-10
6.3126598e-09
4.6084663e-10
6.1461815e-09
4.2972218e-10
5.9903817e-09
4.0215814e-10
5.8440882e-09
3.7762041e-10
5.7063021e-09
3.5566083e-10
5.5761677e-09
3.3590976e-10
5.452945e-09
3.1806906e-10
5.3359878e-09
3.0189637e-10
5.2247309e-09
2.8718226e-10
5.1186783e-09
2.7374885e-10
5.0173932e-09
2.6144275e-10
4.9204907e-09
2.5012996e-10
4.8276279e-09
2.3970262e-10
4.7384965e-09
2.3007081e-10
4.6528208e-09
2.2115073e-10
4.5703538e-09
2.1286831e-10
4.4908729e-09
2.0516047e-10
4.4141783e-09
1.979682e-10
4.3400919e-09
1.9123571e-10
4.2684529e-09
1.8491841e-10
4.1991134e-09
1.7898292e-10
4.1319385e-09
1.7339539e-10
4.0668077e-09
1.6811888e-10
4.0036137e-09
1.6311946e-10
3.9422603e-09
1.5836851e-10
3.8826619e-09
1.5383837e-10
3.8247456e-09
1.4949635e-10
3.7684508e-09
1.4531056e-10
3.7137273e-09
1.4125486e-10
3.660535e-09
1.3730249e-10
3.6088444e-09
1.3342604e-10
3.5586367e-09
1.2959819e-10
3.5099053e-09
1.2578752e-10
3.4626605e-09
1.2195035e-10
3.4169412e-09
1.1801264e-10
3.3728134e-09
1.139046e-10
3.3303617e-09
1.0957809e-10
3.2896938e-09
1.0497384e-10
3.2509414e-09
1.0002956e-10
3.2142649e-09
9.4671215e-11
3.1798772e-09
8.8763687e-11
3.1480648e-09
8.2116823e-11
3.1191884e-09
7.4539129e-11
3.0937318e-09
6.5712658e-11
3.0724671e-09
5.4893177e-11
3.0557738e-09
4.3094978e-11
3.0454836e-09
2.6567549e-11
3.042488e-09
7.7395494e-12
3.0473093e-09
-1.2436154e-11
3.062059e-09
-3.8063929e-11
3.0879753e-09
-6.6887172e-11
3.1266619e-09
-9.9851727e-11
3.1790966e-09
-1.3534075e-10
3.2451619e-09
-1.7052732e-10
3.3242979e-09
-2.0426973e-10
3.4152901e-09
-2.3488166e-10
3.5136721e-09
-2.5396414e-10
3.6110833e-09
-2.5146158e-10
3.7000096e-09
-2.295591e-10
3.7733518e-09
-1.8932672e-10
3.8299504e-09
-1.4610106e-10
3.8731022e-09
-1.1138786e-10
3.9043761e-09
-8.0724183e-11
3.9270863e-09
-5.8618293e-11
3.943229e-09
-4.1665698e-11
3.9541755e-09
-2.825287e-11
3.9608446e-09
-1.7212013e-11
3.963889e-09
-7.8558434e-12
3.9636151e-09
7.0869089e-13
3.9600163e-09
9.2910151e-12
3.9533529e-09
1.7201175e-11
3.9440836e-09
2.3927526e-11
3.9325738e-09
2.9710599e-11
3.9193083e-09
3.4242389e-11
3.9047264e-09
3.7640211e-11
3.8891464e-09
4.0216822e-11
3.8729067e-09
4.1919391e-11
3.8563221e-09
4.280961e-11
3.8395652e-09
4.3254458e-11
3.8227406e-09
4.3429191e-11
3.8059881e-09
4.3242909e-11
3.7894302e-09
4.2740812e-11
3.7731023e-09
4.2146917e-11
3.7569854e-09
4.1602312e-11
3.7410698e-09
4.1082913e-11
3.7253611e-09
4.0549001e-11
3.7098887e-09
3.9939121e-11
3.69433e-09
4.0162446e-11
3.6789117e-09
3.9800141e-11
3.6620325e-09
4.357328e-11
3.6450825e-09
4.3758626e-11
3.6264501e-09
4.8081777e-11
2.8586848e-11
2.4684513e-06
4.2236648e-10
2.4682434e-06
1.0989824e-09
2.4679633e-06
1.4792573e-09
2.4676418e-06
1.6983181e-09
2.4672734e-06
1.9456189e-09
2.4668525e-06
2.2235308e-09
2.4663738e-06
2.5282865e-09
2.4658305e-06
2.8698617e-09
2.4652132e-06
3.261294e-09
2.4645099e-06
3.7159018e-09
2.4637057e-06
4.2494043e-09
2.4627813e-06
4.8846774e-09
2.4617121e-06
5.6511166e-09
2.4604627e-06
6.6037287e-09
2.4589887e-06
7.7918713e-09
2.4572104e-06
9.4021102e-09
2.4550514e-06
1.1416559e-08
2.4522521e-06
1.4805299e-08
2.4487785e-06
1.8374342e-08
2.4434046e-06
2.8434745e-08
2.4367722e-06
3.5098076e-08
2.4208924e-06
8.4043287e-08
2.4104054e-06
5.5369105e-08
1.2508964e-06
6.2583453e-06
6.2475426e-08
6.3493668e-06
3.0590204e-08
9.3995366e-08
2.3174527e-08
2.1726308e-08
1.9587813e-08
1.0506537e-08
1.7370321e-08
6.4949773e-09
1.5796765e-08
4.6088795e-09
1.459601e-08
3.5169796e-09
1.3632449e-08
2.8222997e-09
1.2835578e-08
2.3340698e-09
1.2161494e-08
1.9744255e-09
1.158029e-08
1.7023853e-09
1.1071536e-08
1.4901858e-09
1.0620877e-08
1.3200244e-09
1.0217719e-08
1.180891e-09
9.8539647e-09
1.065476e-09
9.5233491e-09
9.684113e-10
9.2209191e-09
8.8585329e-10
8.9426801e-09
8.1499682e-10
8.6854367e-09
7.5349909e-10
8.446548e-09
6.9973534e-10
8.2237936e-09
6.5247651e-10
8.0153278e-09
6.1062398e-10
7.8195817e-09
5.7336653e-10
7.6352188e-09
5.4002371e-10
7.4610943e-09
5.1003426e-10
7.2962179e-09
4.8294549e-10
7.1397249e-09
4.5838936e-10
6.9908592e-09
4.3604793e-10
6.848957e-09
4.1565105e-10
6.7134339e-09
3.9696587e-10
6.5837749e-09
3.797889e-10
6.4595212e-09
3.639564e-10
6.3402602e-09
3.4933178e-10
6.2256231e-09
3.3578785e-10
6.1152793e-09
3.2321211e-10
6.0089309e-09
3.115088e-10
5.9063108e-09
3.0058832e-10
5.8071806e-09
2.9036597e-10
5.7113249e-09
2.8077404e-10
5.618546e-09
2.7176182e-10
5.5286635e-09
2.6327795e-10
5.441516e-09
2.5526631e-10
5.3569601e-09
2.476754e-10
5.2748668e-09
2.4046176e-10
5.1951218e-09
2.3358339e-10
5.1176275e-09
2.2699066e-10
5.0423029e-09
2.2063515e-10
4.9690806e-09
2.1447716e-10
4.897907e-09
2.0847606e-10
4.8287428e-09
2.0259024e-10
4.7615628e-09
1.9677819e-10
4.6963581e-09
1.9099222e-10
4.6331425e-09
1.8516596e-10
4.5719681e-09
1.7918708e-10
4.5129231e-09
1.7294956e-10
4.4561209e-09
1.6638029e-10
4.4017055e-09
1.593893e-10
4.3498531e-09
1.5188197e-10
4.3007785e-09
1.4374582e-10
4.2547665e-09
1.3477566e-10
4.2122006e-09
1.2468275e-10
4.1735634e-09
1.1317627e-10
4.1395026e-09
9.9773451e-11
4.1110513e-09
8.3344535e-11
4.0887171e-09
6.5429123e-11
4.0749509e-09
4.0333813e-11
4.0709457e-09
1.1744704e-11
4.0774004e-09
-1.889083e-11
4.0971398e-09
-5.7803338e-11
4.1318205e-09
-1.0156793e-10
4.1835879e-09
-1.5161913e-10
4.2537498e-09
-2.0550263e-10
4.3421492e-09
-2.5892667e-10
4.4480355e-09
-3.101561e-10
4.5697826e-09
-3.5662871e-10
4.701414e-09
-3.8559559e-10
4.8317456e-09
-3.8179313e-10
4.9507248e-09
-3.4853834e-10
5.0488549e-09
-2.8745674e-10
5.124584e-09
-2.2183024e-10
5.1823227e-09
-1.6912651e-10
5.2241697e-09
-1.2257121e-10
5.2545585e-09
-8.900712e-11
5.27616e-09
-6.3267191e-11
5.2908086e-09
-4.2901399e-11
5.2997337e-09
-2.6137136e-11
5.3038085e-09
-1.1930653e-11
5.3034433e-09
1.0739245e-12
5.2986289e-09
1.4105349e-11
5.2897138e-09
2.6116289e-11
5.2773117e-09
3.6329633e-11
5.2619118e-09
4.5110539e-11
5.2441625e-09
5.1991625e-11
5.2246518e-09
5.715089e-11
5.2038056e-09
6.1063081e-11
5.1820767e-09
6.3648258e-11
5.1598862e-09
6.5000091e-11
5.1374651e-09
6.5675555e-11
5.1149535e-09
6.5940797e-11
5.0925385e-09
6.5657991e-11
5.0703835e-09
6.4895727e-11
5.0485365e-09
6.3993976e-11
5.0269718e-09
6.3166962e-11
5.0056765e-09
6.2378204e-11
4.9846581e-09
6.1567442e-11
4.9639558e-09
6.0641384e-11
4.9431384e-09
6.0979848e-11
4.9225089e-09
6.0429671e-11
4.8999261e-09
6.6156126e-11
4.8772487e-09
6.6436001e-11
4.8523164e-09
7.3014054e-11
4.3391862e-11
2.663645e-06
5.0869961e-10
2.6634202e-06
1.3238484e-09
2.6631173e-06
1.7821767e-09
2.6627694e-06
2.0461785e-09
2.6623709e-06
2.344128e-09
2.6619155e-06
2.6789358e-09
2.6613977e-06
3.0460687e-09
2.66081e-06
3.4575381e-09
2.6601423e-06
3.929046e-09
2.6593815e-06
4.4766322e-09
2.6585117e-06
5.1192264e-09
2.657512e-06
5.8843758e-09
2.6563557e-06
6.8074755e-09
2.6550046e-06
7.9547651e-09
2.6534108e-06
9.3856661e-09
2.6514881e-06
1.1324849e-08
2.649154e-06
1.37507e-08
2.6461278e-06
1.7831411e-08
2.6423732e-06
2.2128975e-08
2.6365654e-06
3.4242555e-08
2.6293979e-06
4.2265528e-08
2.6122383e-06
1.0120297e-07
2.6008915e-06
6.6715822e-08
1.3599258e-06
7.4993111e-06
8.178576e-08
7.6275069e-06
4.0147135e-08
1.3563399e-07
3.041598e-08
3.1457463e-08
2.5708758e-08
1.5213759e-08
2.2798245e-08
9.4054897e-09
2.0732907e-08
6.6742175e-09
1.9156888e-08
5.0929993e-09
1.7892209e-08
4.0869787e-09
1.6846315e-08
3.3799633e-09
1.5961583e-08
2.8591583e-09
1.5198758e-08
2.4652096e-09
1.4531026e-08
2.1579185e-09
1.3939544e-08
1.9115062e-09
1.3410408e-08
1.7100269e-09
1.2932989e-08
1.5428946e-09
1.2499065e-08
1.4023358e-09
1.2102133e-08
1.2827848e-09
1.1736953e-08
1.1801775e-09
1.1399329e-08
1.0911233e-09
1.1085794e-08
1.0132696e-09
1.0793436e-08
9.4483472e-10
1.0519831e-08
8.8422887e-10
1.0262921e-08
8.3027711e-10
1.002095e-08
7.8199407e-10
9.7924175e-09
7.3856703e-10
9.5760225e-09
6.9934044e-10
9.3706306e-09
6.637813e-10
9.1752493e-09
6.3142922e-10
8.9890073e-09
6.0189302e-10
8.8111377e-09
5.748355e-10
8.6409646e-09
5.49962e-10
8.4778856e-09
5.270354e-10
8.3213595e-09
5.058579e-10
8.170902e-09
4.8624531e-10
8.0260794e-09
4.6803475e-10
7.8865007e-09
4.5108753e-10
7.7518151e-09
4.3527391e-10
7.6217098e-09
4.2047126e-10
7.4959023e-09
4.0658151e-10
7.3741329e-09
3.9353123e-10
7.2561648e-09
3.8124603e-10
7.1417865e-09
3.6964466e-10
7.0308093e-09
3.5865253e-10
6.9230644e-09
3.4820673e-10
6.8184013e-09
3.3824641e-10
6.7166923e-09
3.2869973e-10
6.6178308e-09
3.1949657e-10
6.5217286e-09
3.1057944e-10
6.4283151e-09
3.0188949e-10
6.3375389e-09
2.9336647e-10
6.2493669e-09
2.8495025e-10
6.1637873e-09
2.7657177e-10
6.0808183e-09
2.6813493e-10
6.0005283e-09
2.5947707e-10
5.9230332e-09
2.5044469e-10
5.8484816e-09
2.4093186e-10
5.7770626e-09
2.3080834e-10
5.7090075e-09
2.1993705e-10
5.6445983e-09
2.0815499e-10
5.584209e-09
1.9516501e-10
5.5283428e-09
1.8054897e-10
5.4776334e-09
1.6388559e-10
5.432931e-09
1.4447586e-10
5.3955915e-09
1.2068411e-10
5.3662813e-09
9.4739274e-11
5.3482166e-09
5.8398543e-11
5.3429639e-09
1.6997348e-11
5.3514403e-09
-2.7367161e-11
5.3773524e-09
-8.3715433e-11
5.4228746e-09
-1.4709019e-10
5.4908218e-09
-2.195663e-10
5.58291e-09
-2.9759081e-10
5.698933e-09
-3.749497e-10
5.8379046e-09
-4.4912769e-10
5.9976881e-09
-5.164122e-10
6.1704403e-09
-5.5834778e-10
6.3414854e-09
-5.528382e-10
6.4976322e-09
-5.046852e-10
6.6264191e-09
-4.1624366e-10
6.7258094e-09
-3.2122056e-10
6.8015901e-09
-2.4490716e-10
6.8565155e-09
-1.774966e-10
6.8964027e-09
-1.2889431e-10
6.9247568e-09
-9.1621359e-11
6.9439852e-09
-6.2129783e-11
6.9557016e-09
-3.7853515e-11
6.9610518e-09
-1.7280831e-11
6.9605742e-09
1.551524e-12
6.954257e-09
2.0422505e-11
6.9425574e-09
3.7815905e-11
6.926281e-09
5.2606045e-11
6.9060699e-09
6.5321605e-11
6.8827754e-09
7.5286211e-11
6.8571688e-09
8.2757417e-11
6.8298094e-09
8.8422506e-11
6.8012915e-09
9.2166131e-11
6.7721677e-09
9.4123932e-11
6.7427411e-09
9.5102099e-11
6.7131958e-09
9.5486095e-11
6.6837772e-09
9.5076639e-11
6.6546999e-09
9.397299e-11
6.6260267e-09
9.266719e-11
6.5977242e-09
9.1469457e-11
6.5697753e-09
9.0327098e-11
6.5421899e-09
8.9152917e-11
6.5150194e-09
8.781187e-11
6.4876982e-09
8.8300989e-11
6.4606236e-09
8.7504298e-11
6.4309874e-09
9.5792367e-11
6.401227e-09
9.6196321e-11
6.3685034e-09
1.0573767e-10
6.282165e-11
2.8985331e-06
6.0283793e-10
2.8982878e-06
1.569146e-09
2.8979573e-06
2.1127281e-09
2.8975777e-06
2.4258072e-09
2.8971428e-06
2.7790288e-09
2.8966458e-06
3.1759165e-09
2.8960807e-06
3.6111033e-09
2.8954395e-06
4.0988193e-09
2.8947108e-06
4.6576712e-09
2.8938808e-06
5.3066664e-09
2.8929318e-06
6.0682338e-09
2.8918412e-06
6.9750122e-09
2.8905797e-06
8.0689351e-09
2.889106e-06
9.4284855e-09
2.8873676e-06
1.1124048e-08
2.8852706e-06
1.3421828e-08
2.8827252e-06
1.629612e-08
2.8794256e-06
2.1131053e-08
2.875332e-06
2.6222565e-08
2.869001e-06
4.0573534e-08
2.8611885e-06
5.0078043e-08
2.8424859e-06
1.199055e-07
2.8301013e-06
7.9100465e-08
1.4916844e-06
8.837728e-06
1.0585545e-07
9.0133358e-06
5.2105149e-08
1.8938429e-07
3.9477361e-08
4.4085251e-08
3.3368142e-08
2.1322977e-08
2.9590388e-08
1.3183244e-08
2.6909635e-08
9.3549703e-09
2.4864012e-08
7.1386229e-09
2.3222525e-08
5.7284657e-09
2.1865015e-08
4.7374724e-09
2.0716686e-08
4.0074874e-09
1.9726592e-08
3.4553038e-09
1.8859924e-08
3.0245863e-09
1.8092227e-08
2.6792034e-09
1.7405451e-08
2.3968026e-09
1.6785802e-08
2.1625443e-09
1.6222605e-08
1.9655328e-09
1.5707422e-08
1.7979678e-09
1.5233449e-08
1.6541496e-09
1.4795244e-08
1.5293291e-09
1.4388304e-08
1.4202092e-09
1.4008849e-08
1.3242892e-09
1.3653735e-08
1.2393431e-09
1.3320289e-08
1.1637235e-09
1.3006233e-08
1.0960494e-09
1.2709619e-08
1.0351815e-09
1.2428758e-08
9.802011e-10
1.2162179e-08
9.3036105e-10
1.1908592e-08
8.8501605e-10
1.1666867e-08
8.4361784e-10
1.1436009e-08
8.0569377e-10
1.121514e-08
7.7083089e-10
1.1003478e-08
7.3869682e-10
1.0800322e-08
7.090143e-10
1.0605042e-08
6.8152518e-10
1.0417076e-08
6.5600116e-10
1.0235915e-08
6.3224786e-10
1.0061106e-08
6.1008342e-10
9.892241e-09
5.8933601e-10
9.7289544e-09
5.6986813e-10
9.5709088e-09
5.5157687e-10
9.4177969e-09
5.3435794e-10
9.2693441e-09
5.1809747e-10
9.1253057e-09
5.0269092e-10
8.9854623e-09
4.8805011e-10
8.8496189e-09
4.7408975e-10
8.7176095e-09
4.6070918e-10
8.589296e-09
4.4781009e-10
8.4645635e-09
4.353119e-10
8.3433209e-09
4.2313213e-10
8.225501e-09
4.1118633e-10
8.1110611e-09
3.993902e-10
7.9999859e-09
3.8764691e-10
7.8922991e-09
3.7582177e-10
7.7880893e-09
3.6368687e-10
7.6875069e-09
3.5102704e-10
7.590745e-09
3.3769376e-10
7.4980489e-09
3.2350448e-10
7.4097189e-09
3.0826704e-10
7.3261211e-09
2.9175277e-10
7.247741e-09
2.7354514e-10
7.1752319e-09
2.5305804e-10
7.1094166e-09
2.2970086e-10
7.0513986e-09
2.0249387e-10
7.0029378e-09
1.6914496e-10
6.9648993e-09
1.3277771e-10
6.941457e-09
8.1840939e-11
6.9346448e-09
2.380949e-11
6.9456526e-09
-3.8374939e-11
6.9792903e-09