/*--------------------------------*- C++ -*----------------------------------*\
| =========                 |                                                 |
| \\      /  F ield         | OpenFOAM: The Open Source CFD Toolbox           |
|  \\    /   O peration     | Version:  2206                                  |
|   \\  /    A nd           | Website:  www.openfoam.com                      |
|    \\/     M anipulation  |                                                 |
\*---------------------------------------------------------------------------*/
FoamFile
{
    version     2.0;
    format      ascii;
    arch        "LSB;label=32;scalar=64";
    class       volVectorField;
    location    "1400";
    object      U;
}
// * * * * * * * * * * * * * * * * * * * * * * * * * * * * * * * * * * * * * //

dimensions      [0 1 -1 0 0 0 0];

internalField   nonuniform List<vector> 
13056
(
(0.99999999 8.0380496e-10 5.0679118e-25)
(0.99993955 2.3721953e-09 0)
(0.99983557 3.6215603e-09 0)
(0.99971564 4.7164618e-09 0)
(0.99957847 6.1280595e-09 0)
(0.99942111 7.9395423e-09 0)
(0.99924177 1.0228729e-08 0)
(0.99903818 1.3145759e-08 0)
(0.99880705 1.6898151e-08 0)
(0.99854411 2.1752903e-08 0)
(0.99824404 2.8061984e-08 0)
(0.99790019 3.6317383e-08 0)
(0.99750376 4.7187272e-08 0)
(0.9970436 6.1735382e-08 0)
(0.99650268 8.1234403e-08 0)
(0.99586201 1.0878351e-07 0)
(0.99507719 1.4571668e-07 0)
(0.99412915 2.0695254e-07 0)
(0.99283378 2.7882893e-07 0)
(0.99133268 4.6369325e-07 0)
(0.98853376 6.0769336e-07 0)
(0.98596358 1.5244221e-06 0)
(0.97583448 1.0346053e-06 -5.1532105e-21)
(0.97737862 0.00012178263 8.8275009e-18)
(0.0030971123 0.00012216004 0)
(0.0012222339 7.2698749e-08 -1.2293532e-20)
(0.00087045255 4.770309e-08 4.0783257e-18)
(0.00071505951 6.0574286e-09 0)
(0.00062516624 3.7122074e-09 0)
(0.00056342782 2.6100525e-09 0)
(0.00051755098 1.9734435e-09 0)
(0.00048129729 1.5686436e-09 0)
(0.00045163519 1.2845868e-09 0)
(0.00042678098 1.0757539e-09 0)
(0.00040551672 9.1799746e-10 0)
(0.00038701481 7.9508834e-10 0)
(0.00037070592 6.9666869e-10 0)
(0.00035617803 6.1631427e-10 0)
(0.0003431187 5.497469e-10 0)
(0.00033128651 4.938355e-10 0)
(0.00032049438 4.4632915e-10 0)
(0.00031059064 4.0560272e-10 2.9766461e-25)
(0.00030145355 3.7030083e-10 0)
(0.00029298636 3.3946702e-10 0)
(0.00028510526 3.1238993e-10 0)
(0.00027774202 2.8842933e-10 0)
(0.00027083862 2.6711427e-10 0)
(0.00026434575 2.4805081e-10 0)
(0.00025822128 2.3091498e-10 0)
(0.00025242902 2.1544475e-10 0)
(0.00024693739 2.0142602e-10 0)
(0.00024171881 1.88675e-10 0)
(0.00023674913 1.7703612e-10 0)
(0.00023200707 1.6637588e-10 0)
(0.00022747393 1.565786e-10 0)
(0.00022313317 1.4754993e-10 0)
(0.00021896992 1.3921029e-10 0)
(0.00021497084 1.3148706e-10 0)
(0.00021112401 1.2431653e-10 0)
(0.00020741874 1.1764416e-10 0)
(0.00020384535 1.1142007e-10 0)
(0.00020039522 1.0559843e-10 0)
(0.00019706067 1.0014176e-10 0)
(0.00019383464 9.5020247e-11 0)
(0.00019071065 9.0205045e-11 0)
(0.00018768285 8.56671e-11 0)
(0.00018474604 8.1380325e-11 0)
(0.0001818956 7.7322598e-11 0)
(0.00017912735 7.3473364e-11 0)
(0.00017643762 6.9810811e-11 0)
(0.00017382341 6.6314873e-11 0)
(0.0001712822 6.2969368e-11 0)
(0.00016881189 5.9758851e-11 0)
(0.00016641091 5.6668667e-11 0)
(0.00016407815 5.3685341e-11 0)
(0.000161813 5.0794768e-11 0)
(0.00015961546 4.7979344e-11 0)
(0.00015748649 4.5211479e-11 0)
(0.00015542871 4.2468169e-11 0)
(0.00015344557 3.9737274e-11 0)
(0.00015154138 3.7004138e-11 0)
(0.0001497217 3.4255519e-11 0)
(0.00014799306 3.1476742e-11 0)
(0.00014636363 2.8635904e-11 0)
(0.00014484478 2.5688886e-11 0)
(0.00014345143 2.2598678e-11 0)
(0.00014220172 1.9298681e-11 0)
(0.00014112196 1.5605668e-11 0)
(0.00014025692 1.1877629e-11 0)
(0.00013959549 2.6591838e-11 0)
(0.00013932031 2.3098422e-12 -4.0937261e-25)
(0.00013932516 -3.1816982e-12 0)
(0.00013976877 -8.946994e-12 0)
(0.00014068399 -1.5179131e-11 0)
(0.00014215226 -2.1824151e-11 0)
(0.00014423907 -2.8447053e-11 0)
(0.00014696786 -3.4420398e-11 0)
(0.00015030333 -3.9537216e-11 0)
(0.00015423018 -4.3554911e-11 0)
(0.00015865113 -4.5076611e-11 0)
(0.00016324927 -4.2664007e-11 0)
(0.00016757142 -3.7188747e-11 0)
(0.00017138672 -1.0998232e-10 9.3972465e-21)
(0.00017426943 -2.1446826e-11 0)
(0.00017655789 -1.5541998e-11 0)
(0.00017820676 -1.0672881e-11 0)
(0.00017941115 -7.3373102e-12 0)
(0.00018027791 -4.9290328e-12 0)
(0.0001808824 -3.1542199e-12 0)
(0.00018127429 -1.8115083e-12 0)
(0.00018148771 -7.8804811e-13 0)
(0.00018154811 8.1511403e-14 0)
(0.0001814574 7.9287138e-13 0)
(0.00018121833 1.4368896e-12 0)
(0.00018085007 2.0018166e-12 0)
(0.0001803693 2.4877004e-12 0)
(0.00017979585 2.868408e-12 0)
(0.0001791543 3.1538198e-12 0)
(0.00017846031 3.3704975e-12 0)
(0.00017772733 3.5137253e-12 0)
(0.00017697293 3.5886468e-12 0)
(0.00017620838 3.6262123e-12 0)
(0.0001754382 3.6411601e-12 0)
(0.00017466744 3.6257648e-12 0)
(0.00017390387 3.583761e-12 0)
(0.00017315093 3.5340774e-12 0)
(0.00017240843 3.4885339e-12 0)
(0.00017167481 3.4451939e-12 0)
(0.00017095072 3.4005092e-12 0)
(0.00017023603 3.3495002e-12 0)
(0.00016953359 3.3682625e-12 0)
(0.0001688109 3.3390261e-12 0)
(0.00016812135 3.6537856e-12 0)
(0.0001672644 1.3855011e-11 0)
(0.00016656864 3.9776632e-12 4.8266339e-24)
(0.00016555688 9.1338469e-12 0)
(0.99999999 2.424708e-09 0)
(0.99993948 7.1570587e-09 0)
(0.99983537 1.0927457e-08 0)
(0.99971527 1.4231509e-08 0)
(0.9995779 1.8490848e-08 0)
(0.99942032 2.3956668e-08 0)
(0.99924072 3.0863759e-08 0)
(0.99903685 3.966504e-08 0)
(0.9988054 5.0986543e-08 0)
(0.9985421 6.563372e-08 0)
(0.99824164 8.466832e-08 0)
(0.99789734 1.0957445e-07 0)
(0.99750041 1.4236762e-07 0)
(0.99703969 1.8625648e-07 0)
(0.99649813 2.4507973e-07 0)
(0.99585672 3.2818569e-07 0)
(0.99507103 4.3959641e-07 0)
(0.99412199 6.243118e-07 0)
(0.99282533 8.4111582e-07 0)
(0.99132281 1.3987067e-06 0)
(0.98852151 1.833038e-06 0)
(0.98594917 4.5981867e-06 0)
(0.97581179 3.1199208e-06 1.9127811e-20)
(0.97735097 0.00036602785 -7.1701998e-21)
(0.009302553 0.00036762849 0)
(0.0036846943 1.198968e-06 0)
(0.0026243274 2.6877822e-07 3.8717351e-22)
(0.0021558797 1.2695673e-07 0)
(0.0018848463 7.777676e-08 0)
(0.001698702 5.4691825e-08 0)
(0.0015603796 4.1348661e-08 0)
(0.0014510742 3.2866776e-08 0)
(0.0013616432 2.6915365e-08 0)
(0.0012867079 2.2539481e-08 0)
(0.0012225967 1.9233804e-08 0)
(0.0011668142 1.6658423e-08 0)
(0.0011176437 1.4596236e-08 0)
(0.0010738429 1.2912583e-08 0)
(0.0010344699 1.151781e-08 0)
(0.00099879669 1.0346318e-08 0)
(0.0009662592 9.3510953e-09 0)
(0.00093640014 8.4978168e-09 -4.5188402e-25)
(0.00090885262 7.7581246e-09 -6.2786919e-25)
(0.0008833247 7.1121304e-09 0)
(0.00085956384 6.5447635e-09 0)
(0.00083736431 6.0427328e-09 0)
(0.00081655116 5.5961368e-09 0)
(0.00079697574 5.1967209e-09 0)
(0.00077851101 4.8376969e-09 0)
(0.00076104786 4.5135716e-09 0)
(0.00074449111 4.219858e-09 0)
(0.00072875756 3.952707e-09 0)
(0.00071377443 3.7088574e-09 0)
(0.00069947755 3.485513e-09 0)
(0.00068581054 3.2802507e-09 0)
(0.00067272355 3.0910915e-09 0)
(0.00066017173 2.9163678e-09 0)
(0.00064811487 2.7545589e-09 0)
(0.00063651706 2.6043301e-09 0)
(0.000625346 2.464538e-09 0)
(0.00061457256 2.3341379e-09 0)
(0.00060417073 2.2121704e-09 0)
(0.00059411735 2.0978489e-09 0)
(0.00058439119 1.990548e-09 0)
(0.00057497263 1.8896645e-09 0)
(0.00056584408 1.7945892e-09 0)
(0.00055698987 1.7047754e-09 0)
(0.00054839604 1.6197593e-09 0)
(0.00054004999 1.5391105e-09 0)
(0.0005319407 1.4623724e-09 0)
(0.00052405909 1.3891239e-09 0)
(0.00051639754 1.3190251e-09 0)
(0.00050894976 1.2517522e-09 0)
(0.00050171102 1.1869984e-09 0)
(0.00049467792 1.1244802e-09 0)
(0.00048784869 1.0639028e-09 0)
(0.00048122328 1.004896e-09 0)
(0.00047480461 9.4688238e-10 0)
(0.0004686006 8.8937956e-10 0)
(0.00046262158 8.3212864e-10 0)
(0.00045688064 7.7482503e-10 0)
(0.00045139446 7.1719016e-10 0)
(0.00044618279 6.5891289e-10 0)
(0.00044127025 5.9932437e-10 0)
(0.00043669112 5.3750137e-10 0)
(0.0004324904 4.7266033e-10 0)
(0.00042872283 4.0338504e-10 0)
(0.00042546768 3.2596877e-10 0)
(0.00042285996 2.4735953e-10 0)
(0.00042086634 1.4945981e-10 5.8949814e-25)
(0.00042003698 4.1235256e-11 1.2889384e-24)
(0.00042005229 -6.3882579e-11 0)
(0.0004213903 -1.8898305e-10 0)
(0.00042415029 -3.1964573e-10 0)
(0.00042857765 -4.5882295e-10 0)
(0.00043486976 -5.9734504e-10 0)
(0.00044309723 -7.2215459e-10 0)
(0.00045315364 -8.2910001e-10 0)
(0.00046499261 -9.1271449e-10 0)
(0.00047832069 -9.436557e-10 0)
(0.00049218247 -8.9229818e-10 0)
(0.00050521213 -7.7686217e-10 0)
(0.00051671357 -6.1911566e-10 -1.5358902e-24)
(0.00052540429 -4.4781274e-10 -1.7729631e-24)
(0.00053230322 -3.2417617e-10 0)
(0.00053727432 -2.227257e-10 0)
(0.00054090546 -1.5307178e-10 0)
(0.00054351873 -1.0279187e-10 0)
(0.0005453413 -6.572661e-11 0)
(0.00054652289 -3.7678839e-11 0)
(0.00054716643 -1.6137019e-11 0)
(0.0005473486 1.3593647e-12 0)
(0.00054707519 1.6754409e-11 0)
(0.00054635446 3.0221934e-11 0)
(0.00054524422 4.2034954e-11 0)
(0.00054379477 5.2192141e-11 0)
(0.00054206592 6.0150963e-11 0)
(0.00054013173 6.6118313e-11 0)
(0.00053803943 7.0644197e-11 0)
(0.00053582961 7.3634255e-11 0)
(0.00053355519 7.5197013e-11 0)
(0.00053125016 7.5978186e-11 0)
(0.00052892816 7.6285356e-11 0)
(0.00052660443 7.595789e-11 0)
(0.00052430235 7.5075377e-11 0)
(0.00052203235 7.4032222e-11 0)
(0.0005197938 7.3076032e-11 0)
(0.00051758204 7.2164286e-11 0)
(0.00051539903 7.1226744e-11 0)
(0.00051324436 7.0155805e-11 0)
(0.0005111266 7.0550159e-11 0)
(0.00050894788 6.991611e-11 0)
(0.000506869 7.6548887e-11 0)
(0.00050428584 7.8024675e-11 0)
(0.00050218821 8.4324904e-11 -7.4658925e-24)
(0.00049913783 5.1155307e-11 1.1563375e-24)
(0.99999999 4.083564e-09 0)
(0.99993941 1.2054669e-08 0)
(0.99983514 1.8406696e-08 0)
(0.99971485 2.3972763e-08 0)
(0.99957726 3.114751e-08 0)
(0.99941943 4.035434e-08 0)
(0.99923956 5.1988723e-08 0)
(0.99903536 6.6813426e-08 0)
(0.99880356 8.5882768e-08 0)
(0.99853987 1.1055323e-07 0)
(0.99823896 1.4261288e-07 0)
(0.99789416 1.8456102e-07 0)
(0.99749668 2.3979171e-07 0)
(0.99703533 3.1370832e-07 0)
(0.99649305 4.1277465e-07 0)
(0.99585083 5.5273295e-07 0)
(0.99506418 7.4035358e-07 0)
(0.99411402 1.0514139e-06 0)
(0.99281592 1.4164992e-06 0)
(0.99131182 2.3554126e-06 0)
(0.98850788 3.0867672e-06 0)
(0.98593316 7.7430649e-06 0)
(0.97578663 5.2563204e-06 -1.0133956e-20)
(0.97732037 0.00061399754 6.7611077e-55)
(0.01561035 0.00061783278 -6.7587746e-55)
(0.0062018298 3.3612598e-06 0)
(0.0044173063 7.6778016e-07 -2.0721508e-22)
(0.0036288732 3.6857671e-07 0)
(0.0031726463 2.2581023e-07 0)
(0.0028593129 1.5878925e-07 0)
(0.0026264751 1.200484e-07 0)
(0.002442485 9.5421601e-08 0)
(0.0022919496 7.8142824e-08 0)
(0.0021658144 6.5438285e-08 0)
(0.0020578992 5.5840767e-08 0)
(0.0019640037 4.8363587e-08 0)
(0.0018812381 4.2376446e-08 0)
(0.0018075112 3.7488333e-08 0)
(0.0017412373 3.3438924e-08 0)
(0.0016811911 3.0037778e-08 0)
(0.0016264231 2.7148395e-08 0)
(0.0015761635 2.4671098e-08 0)
(0.001529795 2.2523588e-08 0)
(0.0014868258 2.0648124e-08 0)
(0.001446831 1.9000922e-08 0)
(0.0014094642 1.754341e-08 0)
(0.0013744311 1.6246839e-08 0)
(0.0013414814 1.5087243e-08 0)
(0.0013104012 1.4044915e-08 0)
(0.0012810069 1.3103907e-08 0)
(0.0012531382 1.225119e-08 0)
(0.0012266552 1.1475592e-08 0)
(0.0012014353 1.0767642e-08 0)
(0.0011773705 1.0119224e-08 0)
(0.001154366 9.5233026e-09 0)
(0.0011323377 8.9741326e-09 0)
(0.0011112103 8.4668715e-09 0)
(0.0010909159 7.9971054e-09 0)
(0.0010713943 7.5609585e-09 0)
(0.0010525909 7.155112e-09 0)
(0.0010344569 6.7765328e-09 0)
(0.0010169483 6.4224353e-09 0)
(0.0010000263 6.090536e-09 0)
(0.00098365499 5.7790195e-09 0)
(0.00096780149 5.4861336e-09 0)
(0.00095243612 5.2101102e-09 0)
(0.00093753254 4.9493623e-09 0)
(0.00092306723 4.7025432e-09 0)
(0.00090901898 4.4684032e-09 0)
(0.00089536926 4.245617e-09 0)
(0.00088210275 4.0329622e-09 0)
(0.00086920666 3.8294517e-09 0)
(0.00085667038 3.6341456e-09 0)
(0.00084448595 3.4461526e-09 0)
(0.00083264768 3.2646503e-09 0)
(0.00082115254 3.0887822e-09 0)
(0.00081000051 2.9174736e-09 0)
(0.00079919645 2.7490486e-09 0)
(0.00078875371 2.5821073e-09 0)
(0.00077868968 2.4158969e-09 0)
(0.0007690264 2.2495339e-09 0)
(0.00075979195 2.0822092e-09 0)
(0.00075101958 1.9130176e-09 0)
(0.00074275074 1.7400178e-09 0)
(0.00073504314 1.5605291e-09 0)
(0.00072797253 1.3722765e-09 0)
(0.00072163109 1.1711495e-09 0)
(0.00071615227 9.4637992e-10 0)
(0.00071176328 7.181953e-10 0)
(0.00070840823 4.2702769e-10 1.2496051e-24)
(0.0007070126 1.2044263e-10 -6.8309718e-25)
(0.00070703923 -1.8596951e-10 0)
(0.00070929213 -5.4864473e-10 0)
(0.00071393865 -9.2797679e-10 0)
(0.00072139169 -1.3320257e-09 0)
(0.00073198338 -1.734179e-09 0)
(0.00074583252 -2.0965292e-09 0)
(0.00076275997 -2.4070015e-09 0)
(0.00078268738 -2.6497154e-09 0)
(0.0008051205 -2.7395502e-09 0)
(0.00082845138 -2.5904916e-09 0)
(0.00085038158 -2.255451e-09 0)
(0.00086973936 -1.7688804e-09 0)
(0.00088436726 -1.3001682e-09 0)
(0.000895979 -9.4127402e-10 0)
(0.00090434643 -6.467099e-10 0)
(0.00091045851 -4.4447621e-10 0)
(0.00091485736 -2.9848953e-10 0)
(0.0009179253 -1.9086785e-10 0)
(0.00091991435 -1.094305e-10 0)
(0.00092099773 -4.6900888e-11 0)
(0.00092130449 3.9857645e-12 0)
(0.00092084437 4.8620919e-11 0)
(0.00091963132 8.7724731e-11 0)
(0.00091776259 1.2202369e-10 0)
(0.00091532292 1.5151419e-10 0)
(0.00091241294 1.7462269e-10 0)
(0.00090915732 1.9194906e-10 0)
(0.00090563556 2.0508925e-10 0)
(0.00090191601 2.1377123e-10 0)
(0.00089808769 2.1830971e-10 0)
(0.00089420787 2.2057818e-10 0)
(0.00089029947 2.2146999e-10 0)
(0.00088638818 2.2051988e-10 0)
(0.00088251332 2.1795862e-10 0)
(0.00087869244 2.1493018e-10 0)
(0.00087492452 2.1215389e-10 0)
(0.00087120168 2.0950642e-10 0)
(0.00086752727 2.0678445e-10 0)
(0.00086390055 2.036749e-10 0)
(0.00086033595 2.0481834e-10 0)
(0.00085666887 2.0297372e-10 0)
(0.0008531697 2.2222976e-10 0)
(0.00084882234 2.2286668e-10 0)
(0.00084529156 2.4501264e-10 0)
(0.00084015712 1.4584008e-10 0)
(0.99999999 5.8054579e-09 1.086083e-24)
(0.99993934 1.7139697e-08 0)
(0.99983489 2.6173643e-08 0)
(0.99971439 3.4089303e-08 0)
(0.99957655 4.429173e-08 0)
(0.99941844 5.7383439e-08 0)
(0.99923825 7.392674e-08 0)
(0.9990337 9.5006014e-08 0)
(0.9988015 1.2212016e-07 0)
(0.99853736 1.5719763e-07 0)
(0.99823596 2.0278035e-07 0)
(0.99789061 2.6242129e-07 0)
(0.9974925 3.4094522e-07 0)
(0.99703045 4.4603315e-07 0)
(0.99648737 5.8687283e-07 0)
(0.99584423 7.85842e-07 0)
(0.99505651 1.0525605e-06 0)
(0.99410511 1.4947453e-06 0)
(0.99280541 2.0137092e-06 0)
(0.99129955 3.3483051e-06 0)
(0.98849265 4.3878621e-06 0)
(0.98591527 1.1006619e-05 0)
(0.97575859 7.4752678e-06 0)
(0.97728632 0.00086933355 -3.5273451e-55)
(0.022111507 0.0008765904 3.5261369e-55)
(0.0088111256 6.9305078e-06 0)
(0.0062761055 1.5828913e-06 0)
(0.0051559929 7.5918535e-07 0)
(0.0045077585 4.6513951e-07 0)
(0.0040625568 3.2708711e-07 0)
(0.0037317249 2.4728429e-07 0)
(0.0034703039 1.9655436e-07 0)
(0.0032564179 1.6096233e-07 0)
(0.0030772007 1.3479269e-07 0)
(0.0029238716 1.1502291e-07 0)
(0.0027904628 9.9620844e-08 0)
(0.002672868 8.7288173e-08 0)
(0.0025681157 7.7219397e-08 0)
(0.0024739528 6.887824e-08 0)
(0.0023886385 6.1872422e-08 0)
(0.0023108236 5.5920789e-08 0)
(0.0022394143 5.0817942e-08 0)
(0.0021735337 4.639443e-08 0)
(0.0021124827 4.253133e-08 0)
(0.0020556578 3.9138374e-08 0)
(0.002002567 3.6136159e-08 0)
(0.0019527918 3.3465455e-08 0)
(0.0019059766 3.1076896e-08 0)
(0.0018618178 2.8929891e-08 0)
(0.0018200542 2.6991587e-08 0)
(0.0017804584 2.5235149e-08 0)
(0.0017428312 2.3637559e-08 0)
(0.0017069987 2.2179314e-08 0)
(0.0016728074 2.0843693e-08 0)
(0.0016401224 1.9616207e-08 0)
(0.0016088246 1.848502e-08 0)
(0.0015788067 1.7440158e-08 0)
(0.0015499724 1.6472529e-08 0)
(0.001522236 1.5574149e-08 0)
(0.0014955202 1.4738182e-08 0)
(0.0014697552 1.395838e-08 0)
(0.001444879 1.3229008e-08 0)
(0.0014208361 1.2545359e-08 0)
(0.0013975757 1.1903695e-08 0)
(0.001375051 1.1300407e-08 0)
(0.0013532198 1.0731852e-08 0)
(0.0013320447 1.0194761e-08 0)
(0.0013114924 9.6863615e-09 0)
(0.0012915325 9.204078e-09 0)
(0.0012721389 8.7451815e-09 0)
(0.0012532898 8.3071538e-09 0)
(0.0012349669 7.8879615e-09 0)
(0.0012171553 7.4856684e-09 0)
(0.0011998435 7.0984388e-09 0)
(0.0011830236 6.7245781e-09 0)
(0.0011666912 6.3623221e-09 0)
(0.0011508463 6.0094569e-09 0)
(0.0011354958 5.6625313e-09 0)
(0.0011206587 5.3186619e-09 0)
(0.0011063596 4.9762967e-09 0)
(0.00109263 4.6336168e-09 0)
(0.0010795096 4.2889546e-09 0)
(0.0010670458 3.9404432e-09 0)
(0.0010552974 3.584084e-09 0)
(0.0010443465 3.2143552e-09 0)
(0.0010343007 2.8265689e-09 0)
(0.001025291 2.4122579e-09 0)
(0.0010175071 1.949252e-09 0)
(0.0010112716 1.4791955e-09 0)
(0.0010065056 8.8031236e-10 -6.804144e-25)
(0.0010045232 2.4781131e-10 0)
(0.0010045621 -3.8321289e-10 0)
(0.001007764 -1.130327e-09 0)
(0.0010143669 -1.9116824e-09 0)
(0.0010249572 -2.7439204e-09 0)
(0.0010400068 -3.5722345e-09 0)
(0.0010596843 -4.3185564e-09 0)
(0.0010837352 -4.9580004e-09 0)
(0.0011120479 -5.4578071e-09 0)
(0.0011439195 -5.6427116e-09 0)
(0.0011770661 -5.3356188e-09 0)
(0.0012082225 -4.6455103e-09 0)
(0.001235724 -3.6470236e-09 1.7725497e-24)
(0.0012565068 -2.6779873e-09 0)
(0.0012730041 -1.9387895e-09 0)
(0.0012848927 -1.3320931e-09 0)
(0.0012935769 -9.1554446e-10 0)
(0.0012998271 -6.14847e-10 0)
(0.0013041864 -3.9316681e-10 0)
(0.0013070127 -2.2542119e-10 0)
(0.0013085523 -9.6616958e-11 0)
(0.0013089883 8.1930528e-12 0)
(0.0013083348 1.0014274e-10 0)
(0.0013066114 1.8069158e-10 0)
(0.0013039564 2.5134202e-10 0)
(0.0013004902 3.1208651e-10 0)
(0.0012963558 3.5968669e-10 0)
(0.0012917303 3.9537578e-10 0)
(0.0012867266 4.2244113e-10 0)
(0.001281442 4.4032438e-10 0)
(0.0012760027 4.4967364e-10 0)
(0.0012704903 4.5434618e-10 0)
(0.0012649373 4.5618242e-10 0)
(0.0012593802 4.5422544e-10 0)
(0.0012538749 4.4895039e-10 0)
(0.0012484462 4.4271226e-10 0)
(0.0012430928 4.3699289e-10 0)
(0.0012378034 4.3153859e-10 0)
(0.0012325829 4.2593132e-10 0)
(0.0012274301 4.1952573e-10 0)
(0.0012223657 4.2187772e-10 0)
(0.0012171557 4.1807443e-10 0)
(0.0012121841 4.5772991e-10 0)
(0.0012060083 4.5946109e-10 0)
(0.0012009918 5.0488443e-10 0)
(0.0011936967 3.0037345e-10 0)
(0.99999999 7.6164274e-09 0)
(0.99993925 2.248924e-08 0)
(0.99983461 3.4346335e-08 0)
(0.99971387 4.4734985e-08 0)
(0.99957575 5.8123407e-08 0)
(0.99941733 7.53029e-08 0)
(0.99923678 9.7011308e-08 0)
(0.99903183 1.2467126e-07 0)
(0.99879918 1.6024924e-07 0)
(0.99853455 2.0627525e-07 0)
(0.99823259 2.6608404e-07 0)
(0.99788662 3.443366e-07 0)
(0.99748781 4.4736211e-07 0)
(0.99702497 5.8523656e-07 0)
(0.99648099 7.7001145e-07 0)
(0.99583682 1.0310416e-06 0)
(0.99504789 1.3809402e-06 0)
(0.9940951 1.961007e-06 0)
(0.9927936 2.6417657e-06 0)
(0.99128576 4.392361e-06 0)
(0.98847557 5.7559326e-06 0)
(0.98589521 1.4438029e-05 0)
(0.97572718 9.8105285e-06 0)
(0.97724824 0.0011356535 0)
(0.028898124 0.0011475864 0)
(0.01155143 1.2061663e-05 0)
(0.0082284218 2.7464061e-06 0)
(0.0067600006 1.3166698e-06 0)
(0.0059100819 8.0674013e-07 0)
(0.0053263667 5.6730382e-07 0)
(0.0048926005 4.2889125e-07 0)
(0.004549848 3.4090183e-07 0)
(0.004269421 2.7917082e-07 0)
(0.0040344485 2.337822e-07 0)
(0.0038334188 1.9949321e-07 0)
(0.0036585073 1.7277971e-07 0)
(0.00350433 1.5138998e-07 0)
(0.0033669906 1.3392682e-07 0)
(0.0032435352 1.1946005e-07 0)
(0.0031316811 1.073093e-07 0)
(0.0030296594 9.6986969e-08 0)
(0.002936036 8.813667e-08 0)
(0.0028496614 8.0464646e-08 0)
(0.0027696188 7.3764663e-08 0)
(0.002695117 6.7880013e-08 0)
(0.0026255108 6.2673074e-08 0)
(0.0025602516 5.80411e-08 0)
(0.0024988734 5.3898472e-08 0)
(0.0024409778 5.0174788e-08 0)
(0.0023862226 4.681307e-08 0)
(0.0023343094 4.3766773e-08 0)
(0.0022849774 4.0995977e-08 0)
(0.0022379983 3.8466856e-08 0)
(0.0021931709 3.6150411e-08 0)
(0.0021503185 3.4021511e-08 0)
(0.0021092847 3.2059629e-08 0)
(0.0020699289 3.0247465e-08 0)
(0.002032125 2.856925e-08 0)
(0.0019957604 2.7011139e-08 0)
(0.001960734 2.5561274e-08 0)
(0.0019269542 2.4208821e-08 0)
(0.0018943396 2.294383e-08 0)
(0.0018628175 2.1758142e-08 0)
(0.0018323214 2.064527e-08 0)
(0.0018027897 1.9598955e-08 0)
(0.0017741674 1.861288e-08 0)
(0.0017464052 1.7681375e-08 0)
(0.0017194595 1.679963e-08 0)
(0.0016932905 1.596318e-08 0)
(0.001667864 1.5167291e-08 0)
(0.0016431513 1.4407597e-08 0)
(0.0016191286 1.368057e-08 0)
(0.0015957761 1.2982852e-08 0)
(0.001573079 1.2311258e-08 0)
(0.0015510268 1.1662851e-08 0)
(0.0015296137 1.1034568e-08 0)
(0.0015088397 1.0422572e-08 0)
(0.0014887139 9.8208767e-09 0)
(0.0014692613 9.2244821e-09 0)
(0.001450514 8.6306944e-09 0)
(0.0014325133 8.0363602e-09 0)
(0.0014153115 7.4385859e-09 0)
(0.0013989704 6.8341298e-09 0)
(0.0013835674 6.216057e-09 0)
(0.0013692099 5.5747904e-09 0)
(0.0013560393 4.9021968e-09 0)
(0.0013442272 4.1835911e-09 0)
(0.0013340223 3.380537e-09 0)
(0.0013258478 2.5652316e-09 0)
(0.0013196001 1.5273171e-09 0)
(0.0013170016 4.2947057e-10 0)
(0.001317054 -6.6491772e-10 0)
(0.0013212531 -1.9607147e-09 0)
(0.0013299113 -3.3158675e-09 0)
(0.0013437973 -4.7592221e-09 0)
(0.0013635294 -6.1957448e-09 0)
(0.0013893289 -7.4900583e-09 0)
(0.0014208619 -8.598969e-09 0)
(0.0014579813 -9.4656012e-09 0)
(0.0014997657 -9.78609e-09 0)
(0.0015432206 -9.2534072e-09 0)
(0.0015840665 -8.0565415e-09 0)
(0.0016201206 -6.3282029e-09 0)
(0.0016473678 -4.6444413e-09 0)
(0.0016689963 -3.362491e-09 0)
(0.0016845834 -2.3103378e-09 0)
(0.0016959695 -1.5879118e-09 0)
(0.0017041645 -1.0664029e-09 0)
(0.0017098802 -6.8192766e-10 0)
(0.0017135862 -3.9099412e-10 0)
(0.0017156051 -1.6759434e-10 0)
(0.0017161772 1.4185133e-11 0)
(0.0017153206 1.7366699e-10 0)
(0.0017130614 3.13372e-10 0)
(0.0017095807 4.3590753e-10 0)
(0.0017050364 5.412603e-10 0)
(0.001699616 6.2381731e-10 0)
(0.0016935517 6.8571614e-10 0)
(0.0016869916 7.3265603e-10 0)
(0.0016800632 7.6367225e-10 0)
(0.001672932 7.7988877e-10 0)
(0.0016657049 7.8799267e-10 0)
(0.0016584246 7.9117638e-10 0)
(0.0016511389 7.8778254e-10 0)
(0.0016439211 7.7863487e-10 0)
(0.0016368037 7.6781558e-10 0)
(0.0016297851 7.5789495e-10 0)
(0.0016228505 7.484337e-10 0)
(0.001616006 7.3870774e-10 0)
(0.0016092505 7.2759754e-10 0)
(0.0016026107 7.3167028e-10 0)
(0.0015957804 7.2507084e-10 0)
(0.0015892624 7.9382507e-10 0)
(0.0015811666 7.9719501e-10 0)
(0.0015745896 8.7585446e-10 -9.6177341e-24)
(0.0015650253 5.2089069e-10 1.4896488e-24)
(0.99999999 9.5440439e-09 0)
(0.99993915 2.8185073e-08 0)
(0.9998343 4.3050134e-08 0)
(0.99971328 5.6073271e-08 0)
(0.99957485 7.2854909e-08 0)
(0.99941607 9.4387788e-08 0)
(0.99923512 1.2159666e-07 0)
(0.99902972 1.5626419e-07 0)
(0.99879657 2.0085455e-07 0)
(0.99853138 2.5853806e-07 0)
(0.99822879 3.3349328e-07 0)
(0.99788211 4.3156042e-07 0)
(0.99748252 5.6066958e-07 0)
(0.99701878 7.3344543e-07 0)
(0.99647379 9.6498631e-07 0)
(0.99582847 1.2920716e-06 0)
(0.99503817 1.7304959e-06 0)
(0.99408381 2.4572947e-06 0)
(0.99278029 3.3102164e-06 0)
(0.99127023 5.5034218e-06 0)
(0.98845632 7.2117171e-06 0)
(0.98587261 1.8089278e-05 0)
(0.97569188 1.2298065e-05 0)
(0.97720552 0.0014166236 0)
(0.036064482 0.0014347615 0)
(0.014463527 1.8909051e-05 0)
(0.010303345 4.324084e-06 0)
(0.0084648066 2.07312e-06 0)
(0.0074005187 1.2702953e-06 0)
(0.006669579 8.9328126e-07 0)
(0.006126403 6.7533356e-07 0)
(0.0056972059 5.3678e-07 0)
(0.0053460553 4.3957809e-07 0)
(0.005051823 3.6810931e-07 0)
(0.0048000948 3.1411748e-07 0)
(0.0045810728 2.7205423e-07 0)
(0.0043880145 2.3837409e-07 0)
(0.0042160407 2.1087685e-07 0)
(0.0040614524 1.8809772e-07 0)
(0.0039213913 1.6896541e-07 0)
(0.0037936423 1.5271218e-07 0)
(0.0036764093 1.3877664e-07 1.2482989e-24)
(0.0035682536 1.2669648e-07 0)
(0.0034680262 1.1614698e-07 -8.9327351e-35)
(0.0033747371 1.0688118e-07 0)
(0.0032875783 9.868251e-08 0)
(0.0032058627 9.1389167e-08 0)
(0.0031290067 8.4866336e-08 0)
(0.0030565115 7.9003164e-08 0)
(0.0029879487 7.3709933e-08 0)
(0.0029229445 6.8913352e-08 0)
(0.0028611725 6.4550566e-08 0)
(0.0028023466 6.0568313e-08 0)
(0.0027462152 5.6920931e-08 0)
(0.0026925566 5.3568855e-08 0)
(0.0026411754 5.0479758e-08 0)
(0.0025918952 4.76264e-08 0)
(0.0025445583 4.4983954e-08 0)
(0.0024990238 4.2530618e-08 0)
(0.0024551647 4.0247724e-08 0)
(0.0024128666 3.8118211e-08 0)
(0.0023720276 3.6126412e-08 0)
(0.0023325566 3.4259482e-08 0)
(0.0022943702 3.2507204e-08 0)
(0.0022573916 3.0859724e-08 0)
(0.0022215515 2.9307095e-08 0)
(0.0021867885 2.784039e-08 0)
(0.0021530477 2.6452035e-08 0)
(0.0021202797 2.5134998e-08 0)
(0.0020884413 2.3881829e-08 0)
(0.0020574967 2.268565e-08 0)
(0.0020274161 2.1540907e-08 0)
(0.0019981747 2.0442311e-08 0)
(0.001969754 1.9384851e-08 0)
(0.0019421407 1.8363897e-08 0)
(0.0019153277 1.7374629e-08 0)
(0.001889315 1.6411002e-08 0)
(0.001864114 1.5463595e-08 0)
(0.0018397558 1.4524535e-08 0)
(0.0018162809 1.3589576e-08 0)
(0.0017937408 1.2653756e-08 0)
(0.001772201 1.1712516e-08 0)
(0.0017517391 1.0760746e-08 0)
(0.0017324519 9.7875268e-09 0)
(0.001714474 8.7777775e-09 0)
(0.0016979823 7.7186884e-09 0)
(0.0016831919 6.5871381e-09 0)
(0.0016704142 5.3226253e-09 0)
(0.0016601789 4.0387956e-09 0)
(0.0016523567 2.4046189e-09 0)
(0.0016491039 6.7582108e-10 0)
(0.0016491712 -1.0474149e-09 0)
(0.0016544305 -3.0877213e-09 0)
(0.0016652736 -5.2214905e-09 0)
(0.0016826628 -7.4940672e-09 0)
(0.0017073719 -9.7558526e-09 0)
(0.001739678 -1.1793716e-08 0)
(0.0017791631 -1.3539584e-08 0)
(0.0018256422 -1.4903829e-08 0)
(0.0018779609 -1.540817e-08 0)
(0.0019323705 -1.4569344e-08 0)
(0.0019835133 -1.2684876e-08 0)
(0.0020286564 -9.964184e-09 0)
(0.0020627737 -7.3127698e-09 -1.3039386e-24)
(0.0020898556 -5.2943874e-09 0)
(0.0021093739 -3.6378174e-09 0)
(0.0021236319 -2.5003357e-09 0)
(0.0021338942 -1.6791956e-09 0)
(0.002141052 -1.0738082e-09 0)
(0.0021456932 -6.1570847e-10 0)
(0.0021482218 -2.6394041e-10 0)
(0.0021489386 2.2294179e-11 0)
(0.0021478665 2.7341631e-10 0)
(0.0021450379 4.9339833e-10 0)
(0.0021406797 6.8634254e-10 0)
(0.0021349898 8.5222781e-10 0)
(0.0021282027 9.8222108e-10 0)
(0.0021206094 1.0796871e-09 0)
(0.0021123952 1.1535956e-09 0)
(0.0021037198 1.2024333e-09 0)
(0.0020947905 1.2279699e-09 0)
(0.0020857411 1.2407303e-09 0)
(0.002076625 1.2457419e-09 0)
(0.0020675022 1.2403987e-09 0)
(0.0020584643 1.2259971e-09 0)
(0.0020495523 1.2089614e-09 0)
(0.0020407639 1.1933389e-09 0)
(0.0020320807 1.1784393e-09 0)
(0.0020235105 1.1631236e-09 0)
(0.0020150516 1.1456291e-09 0)
(0.0020067375 1.1520306e-09 0)
(0.0019981853 1.1416371e-09 0)
(0.0019900237 1.2498501e-09 0)
(0.0019798881 1.2551734e-09 0)
(0.0019716525 1.3792849e-09 0)
(0.0019596764 8.1988396e-10 -8.5018886e-25)
(0.99999999 1.1617822e-08 0)
(0.99993904 3.4314886e-08 0)
(0.99983394 5.2419623e-08 0)
(0.99971261 6.8279705e-08 0)
(0.99957383 8.8714307e-08 0)
(0.99941465 1.1493348e-07 0)
(0.99923324 1.4806314e-07 0)
(0.99902733 1.9027328e-07 0)
(0.99879361 2.4456353e-07 0)
(0.99852778 3.1479304e-07 0)
(0.99822448 4.0604809e-07 0)
(0.99787701 5.2543732e-07 0)
(0.99747652 6.8261269e-07 0)
(0.99701178 8.9294005e-07 0)
(0.99646565 1.174794e-06 0)
(0.99581901 1.5729388e-06 0)
(0.99502718 2.1065868e-06 0)
(0.99407104 2.9912052e-06 0)
(0.99276523 4.0292796e-06 0)
(0.99125266 6.6984311e-06 0)
(0.98843457 8.7773998e-06 0)
(0.98584708 2.2015919e-05 0)
(0.97565207 1.4976462e-05 0)
(0.97715747 0.001716013 0)
(0.043708087 0.0017422083 0)
(0.017590748 2.7927807e-05 0)
(0.012531792 6.4108538e-06 0)
(0.010295826 3.0739059e-06 0)
(0.0090012864 1.8836342e-06 0)
(0.008112215 1.3245897e-06 0)
(0.0074515212 1.0014061e-06 0)
(0.0069294771 7.959464e-07 0)
(0.006502366 6.5181217e-07 0)
(0.0061444857 5.4583646e-07 0)
(0.0058383054 4.6577526e-07 0)
(0.0055719074 4.034024e-07 0)
(0.00533709 3.5346074e-07 0)
(0.0051279183 3.1268744e-07 0)
(0.0049398928 2.7891029e-07 0)
(0.0047695371 2.5054077e-07 0)
(0.0046141566 2.264405e-07 0)
(0.0044715668 2.0577672e-07 0)
(0.0043400181 1.8786422e-07 0)
(0.0042181124 1.722216e-07 9.6357708e-35)
(0.0041046457 1.5848226e-07 0)
(0.0039986352 1.4632532e-07 0)
(0.0038992453 1.355108e-07 0)
(0.0038057662 1.2583879e-07 0)
(0.0037175911 1.1714494e-07 0)
(0.0036341989 1.0929619e-07 0)
(0.0035551351 1.0218386e-07 0)
(0.0034800024 9.5714772e-08 0)
(0.0034084533 8.9809931e-08 0)
(0.0033401812 8.4401636e-08 0)
(0.0032749169 7.9431219e-08 0)
(0.0032124225 7.4850748e-08 0)
(0.0031524836 7.0619826e-08 0)
(0.0030949083 6.6701643e-08 0)
(0.0030395251 6.3063871e-08 0)
(0.0029861798 5.9678827e-08 0)
(0.0029347332 5.6521215e-08 0)
(0.0028850611 5.3567808e-08 0)
(0.0028370529 5.0799555e-08 0)
(0.0027906073 4.8201307e-08 0)
(0.0027456304 4.5758451e-08 0)
(0.0027020385 4.3456238e-08 0)
(0.0026597566 4.1281433e-08 0)
(0.002618718 3.9222803e-08 0)
(0.0025788625 3.7269924e-08 0)
(0.0025401377 3.5411746e-08 0)
(0.0025025 3.3638073e-08 0)
(0.0024659131 3.1940669e-08 0)
(0.002430347 3.0311692e-08 0)
(0.002395779 2.8743707e-08 0)
(0.0023621931 2.7229852e-08 0)
(0.0023295806 2.5762978e-08 0)
(0.0022979415 2.4334121e-08 0)
(0.0022672895 2.2929315e-08 0)
(0.0022376627 2.1536885e-08 0)
(0.0022091103 2.0150534e-08 0)
(0.0021816949 1.8762904e-08 0)
(0.0021554961 1.7367232e-08 0)
(0.0021306083 1.5955933e-08 0)
(0.0021071493 1.4512814e-08 0)
(0.002085283 1.3015515e-08 0)
(0.0020652245 1.1445033e-08 0)
(0.0020472354 9.76709e-09 0)
(0.0020316946 7.8919985e-09 0)
(0.0020192465 5.988233e-09 0)
(0.0020097336 3.5650093e-09 0)
(0.0020057783 1.00152e-09 0)
(0.0020058621 -1.5537746e-09 0)
(0.0020122605 -4.5790975e-09 0)
(0.0020254509 -7.7430237e-09 0)
(0.0020466029 -1.1112664e-08 0)
(0.0020766577 -1.4466257e-08 0)
(0.0021159521 -1.7487819e-08 0)
(0.0021639778 -2.0076297e-08 0)
(0.0022205087 -2.2098709e-08 0)
(0.0022841403 -2.2846125e-08 0)
(0.0023503138 -2.1602224e-08 0)
(0.0024125143 -1.880808e-08 0)
(0.0024674181 -1.4774031e-08 0)
(0.0025089137 -1.0843067e-08 -1.5179154e-24)
(0.0025418528 -7.8504184e-09 0)
(0.0025655935 -5.3942296e-09 0)
(0.0025829363 -3.7076094e-09 0)
(0.0025954194 -2.4900364e-09 0)
(0.0026041265 -1.5923583e-09 0)
(0.0026097724 -9.1307795e-10 0)
(0.0026128488 -3.9146002e-10 0)