0 	2.0014128e-06 	1.3282965e-11 	0.015034279 	0.99965983 	0 	0
0.0021021021 	2.0014584e-06 	1.3284175e-11 	0.015140785 	0.99964844 	0 	0
0.0042042042 	2.001504e-06 	1.3285386e-11 	0.015247291 	0.99963706 	0 	0
0.0063063063 	2.0015496e-06 	1.3286596e-11 	0.015353797 	0.99962568 	0 	0
0.0084084084 	2.0015951e-06 	1.3287806e-11 	0.015460303 	0.9996143 	0 	0
0.010510511 	2.0016479e-06 	1.3289207e-11 	0.015583043 	0.99960071 	0 	0
0.012612613 	2.001705e-06 	1.3290725e-11 	0.015715865 	0.99958574 	0 	0
0.014714715 	2.0017622e-06 	1.3292243e-11 	0.015848688 	0.99957078 	0 	0
0.016816817 	2.0018193e-06 	1.3293761e-11 	0.01598151 	0.99955581 	0 	0
0.018918919 	2.0018765e-06 	1.3295279e-11 	0.016114332 	0.99954084 	0 	0
0.021021021 	2.0019355e-06 	1.3296848e-11 	0.016251392 	0.99952525 	0 	0
0.023123123 	2.0020072e-06 	1.3298752e-11 	0.016416941 	0.99950549 	0 	0
0.025225225 	2.0020789e-06 	1.3300657e-11 	0.01658249 	0.99948572 	0 	0
0.027327327 	2.0021505e-06 	1.3302561e-11 	0.016748039 	0.99946595 	0 	0
0.029429429 	2.0022222e-06 	1.3304466e-11 	0.016913588 	0.99944618 	0 	0
0.031531532 	2.0022986e-06 	1.3306495e-11 	0.017089615 	0.99942475 	0 	0
0.033633634 	2.0023886e-06 	1.3308888e-11 	0.017296246 	0.99939849 	0 	0
0.035735736 	2.0024786e-06 	1.3311282e-11 	0.017502877 	0.99937223 	0 	0
0.037837838 	2.0025686e-06 	1.3313675e-11 	0.017709508 	0.99934597 	0 	0
0.03993994 	2.0026586e-06 	1.3316068e-11 	0.017916139 	0.99931971 	0 	0
0.042042042 	2.0027701e-06 	1.3319035e-11 	0.018170418 	0.9992853 	0 	0
0.044144144 	2.0028836e-06 	1.3322056e-11 	0.018429162 	0.99925012 	0 	0
0.046246246 	2.0029972e-06 	1.3325077e-11 	0.018687907 	0.99921494 	0 	0
0.048348348 	2.0031118e-06 	1.3328128e-11 	0.018949119 	0.99917931 	0 	0
0.05045045 	2.0032557e-06 	1.3331958e-11 	0.019275105 	0.9991318 	0 	0
0.052552553 	2.0033996e-06 	1.3335789e-11 	0.019601092 	0.99908428 	0 	0
0.054654655 	2.0035435e-06 	1.333962e-11 	0.019927078 	0.99903677 	0 	0
0.056756757 	2.0037102e-06 	1.3344061e-11 	0.020302204 	0.99897925 	0 	0
0.058858859 	2.0038949e-06 	1.3348982e-11 	0.02071607 	0.99891383 	0 	0
0.060960961 	2.0040796e-06 	1.3353903e-11 	0.021129936 	0.99884841 	0 	0
0.063063063 	2.0042869e-06 	1.335943e-11 	0.021594682 	0.99877232 	0 	0
0.065165165 	2.0045249e-06 	1.3365778e-11 	0.022128213 	0.99868179 	0 	0
0.067267267 	2.0047629e-06 	1.3372126e-11 	0.022661745 	0.99859126 	0 	0
0.069369369 	2.0050485e-06 	1.3379749e-11 	0.02328982 	0.99847592 	0 	0
0.071471471 	2.005368e-06 	1.3388281e-11 	0.023985304 	0.99834289 	0 	0
0.073573574 	2.0056875e-06 	1.3396813e-11 	0.024680787 	0.99820986 	0 	0
0.075675676 	2.006105e-06 	1.3407976e-11 	0.025625 	0.99802336 	0 	0
0.077777778 	2.0065236e-06 	1.3419169e-11 	0.026572037 	0.99783626 	0 	0
0.07987988 	2.0070714e-06 	1.3433837e-11 	0.02771715 	0.99756566 	0 	0
0.081981982 	2.0077061e-06 	1.3450843e-11 	0.028995433 	0.99723893 	0 	0
0.084084084 	2.0084118e-06 	1.3469768e-11 	0.030549929 	0.9968685 	0 	0
0.086186186 	2.0092371e-06 	1.3491927e-11 	0.032569702 	0.99642448 	0 	0
0.088288288 	2.0103203e-06 	1.3521077e-11 	0.034762336 	0.9957908 	0 	-3.7006075e-22
0.09039039 	2.0120792e-06 	1.356855e-11 	0.03740796 	0.9946601 	0 	-1.7098857e-21
0.092492492 	2.0136865e-06 	1.3611941e-11 	0.042493382 	0.99373954 	0 	6.3060274e-19
0.094594595 	2.0148944e-06 	1.3644568e-11 	0.054012209 	0.99337306 	0 	2.9337677e-18
0.096696697 	1.8380188e-06 	1.2461493e-11 	0.062485766 	0.9056999 	0 	4.4629447e-18
0.098798799 	1.3096249e-06 	8.8787525e-12 	0.064948274 	0.64569243 	0 	4.4643499e-18
0.1009009 	7.8140188e-07 	5.2981846e-12 	0.057433509 	0.38548527 	0 	3.4624677e-18
0.103003 	2.5340652e-07 	1.7205139e-12 	0.036615715 	0.12501183 	0 	1.1228689e-18
0.10510511 	0 	2.8055405e-15 	0.01976576 	0 	0 	0
0.10720721 	0 	1.5785078e-15 	0.0065775572 	0 	0 	0
0.10930931 	0 	9.6755197e-16 	0.0011843052 	0 	0 	0
0.11141141 	0 	7.7399794e-16 	0.0010722562 	0 	0 	0
0.11351351 	0 	6.5400053e-16 	0.0012726736 	0 	0 	0
0.11561562 	0 	5.7255055e-16 	0.0016368394 	0 	0 	0
0.11771772 	0 	5.1584572e-16 	0.0019202776 	0 	0 	0
0.11981982 	0 	4.6977047e-16 	0.0021690383 	0 	0 	0
0.12192192 	0 	4.3492081e-16 	0.0023603721 	0 	0 	0
0.12402402 	0 	4.0431664e-16 	0.0025299872 	0 	0 	0
0.12612613 	0 	3.7992717e-16 	0.0026527883 	0 	0 	0
0.12822823 	0 	3.5779341e-16 	0.0027585978 	0 	0 	0
0.13033033 	0 	3.3942309e-16 	0.0028420678 	0 	0 	0
0.13243243 	0 	3.2249345e-16 	0.0029169861 	0 	0 	0
0.13453453 	0 	3.0802516e-16 	0.0029757896 	0 	0 	0
0.13663664 	0 	2.9464573e-16 	0.0030274642 	0 	0 	0
0.13873874 	0 	2.8288997e-16 	0.0030675071 	0 	0 	0
0.14084084 	0 	2.7203425e-16 	0.0031011021 	0 	0 	0
0.14294294 	0 	2.6223945e-16 	0.0031277527 	0 	0 	0
0.14504505 	0 	2.5323646e-16 	0.0031492204 	0 	0 	0
0.14714715 	0 	2.4490716e-16 	0.0031667121 	0 	0 	0
0.14924925 	0 	2.3730682e-16 	0.0031799015 	0 	0 	0
0.15135135 	0 	2.3010961e-16 	0.0031909829 	0 	0 	0
0.15345345 	0 	2.2361195e-16 	0.0031984064 	0 	0 	0
0.15555556 	0 	2.1731934e-16 	0.0032049088 	0 	0 	0
0.15765766 	0 	2.1172222e-16 	0.0032082868 	0 	0 	0
0.15975976 	0 	2.0617255e-16 	0.0032114767 	0 	0 	0
0.16186186 	0 	2.012973e-16 	0.0032119942 	0 	0 	0
0.16396396 	0 	1.9642204e-16 	0.0032125118 	0 	0 	0
0.16606607 	0 	1.9208465e-16 	0.0032113691 	0 	0 	0
0.16816817 	0 	1.878214e-16 	0.0032099976 	0 	0 	0
0.17027027 	0 	1.8388891e-16 	0.0032078417 	0 	0 	0
0.17237237 	0 	1.801222e-16 	0.0032052925 	0 	0 	0
0.17447447 	0 	1.765277e-16 	0.0032024427 	0 	0 	0
0.17657658 	0 	1.7316464e-16 	0.0031991889 	0 	0 	0
0.17867868 	0 	1.698608e-16 	0.0031958814 	0 	0 	0
0.18078078 	0 	1.6686934e-16 	0.003192291 	0 	0 	0
0.18288288 	0 	1.6387788e-16 	0.0031887005 	0 	0 	0
0.18498498 	0 	1.6115942e-16 	0.0031850602 	0 	0 	0
0.18708709 	0 	1.584842e-16 	0.003181412 	0 	0 	0
0.18918919 	0 	1.559557e-16 	0.0031778314 	0 	0 	0
0.19129129 	0 	1.5355352e-16 	0.0031743092 	0 	0 	0
0.19339339 	0 	1.5118999e-16 	0.0031708315 	0 	0 	0
0.1954955 	0 	1.4900195e-16 	0.0031675562 	0 	0 	0
0.1975976 	0 	1.468139e-16 	0.0031642809 	0 	0 	0
0.1996997 	0 	1.4479442e-16 	0.0031612677 	0 	0 	0
0.2018018 	0 	1.4281931e-16 	0.0031583234 	0 	0 	0
0.2039039 	0 	1.4091674e-16 	0.0031555223 	0 	0 	0
0.20600601 	0 	1.3913796e-16 	0.0031529654 	0 	0 	0
0.20810811 	0 	1.3735918e-16 	0.0031504085 	0 	0 	0
0.21021021 	0 	1.3570576e-16 	0.0031482361 	0 	0 	0
0.21231231 	0 	1.3406431e-16 	0.0031461003 	0 	0 	0
0.21441441 	0 	1.324786e-16 	0.003144143 	0 	0 	0
0.21651652 	0 	1.3096972e-16 	0.0031424316 	0 	0 	0
0.21861862 	0 	1.2946085e-16 	0.0031407202 	0 	0 	0
0.22072072 	0 	1.2807497e-16 	0.0031393763 	0 	0 	0
0.22282282 	0 	1.2670416e-16 	0.0031380774 	0 	0 	0
0.22492492 	0 	1.2537483e-16 	0.0031369075 	0 	0 	0
0.22702703 	0 	1.2413252e-16 	0.0031360084 	0 	0 	0
0.22912913 	0 	1.228902e-16 	0.0031351093 	0 	0 	0
0.23123123 	0 	1.2171344e-16 	0.0031344803 	0 	0 	0
0.23333333 	0 	1.2056282e-16 	0.0031339591 	0 	0 	0
0.23543544 	0 	1.1941806e-16 	0.0031334611 	0 	0 	0
0.23753754 	0 	1.1835693e-16 	0.0031332959 	0 	0 	0
0.23963964 	0 	1.172958e-16 	0.0031331307 	0 	0 	0
0.24174174 	0 	1.1626652e-16 	0.00313309 	0 	0 	0
0.24384384 	0 	1.152908e-16 	0.0031332587 	0 	0 	0
0.24594595 	0 	1.1431507e-16 	0.0031334273 	0 	0 	0
0.24804805 	0 	1.1338607e-16 	0.003133786 	0 	0 	0
0.25015015 	0 	1.1248382e-16 	0.0031342536 	0 	0 	0
0.25225225 	0 	1.1158157e-16 	0.0031347212 	0 	0 	0
0.25435435 	0 	1.1073831e-16 	0.0031354147 	0 	0 	0
0.25645646 	0 	1.0990526e-16 	0.0031361474 	0 	0 	0
0.25855856 	0 	1.0907341e-16 	0.0031368849 	0 	0 	0
0.26066066 	0 	1.0829805e-16 	0.0031378549 	0 	0 	0
0.26276276 	0 	1.0752269e-16 	0.0031388249 	0 	0 	0
0.26486486 	0 	1.0675665e-16 	0.003139824 	0 	0 	0
0.26696697 	0 	1.0604847e-16 	0.003141004 	0 	0 	0
0.26906907 	0 	1.0534029e-16 	0.0031421841 	0 	0 	0
0.27117117 	0 	1.0464117e-16 	0.0031434017 	0 	0 	0
0.27327327 	0 	1.0397729e-16 	0.0031447654 	0 	0 	0
0.27537538 	0 	1.0331341e-16 	0.0031461291 	0 	0 	0
0.27747748 	0 	1.0266105e-16 	0.0031475272 	0 	0 	0
0.27957958 	0 	1.0205035e-16 	0.0031490494 	0 	0 	0
0.28168168 	0 	1.0143965e-16 	0.0031505716 	0 	0 	0
0.28378378 	0 	1.0083686e-16 	0.0031521174 	0 	0 	0
0.28588589 	0 	1.0027208e-16 	0.0031537766 	0 	0 	0
0.28798799 	0 	9.9707312e-17 	0.0031554358 	0 	0 	0
0.29009009 	0 	9.9144386e-17 	0.0031571031 	0 	0 	0
0.29219219 	0 	9.8606297e-17 	0.0031588787 	0 	0 	0
0.29429429 	0 	9.8068208e-17 	0.0031606543 	0 	0 	0
0.2963964 	0 	9.753012e-17 	0.0031624299 	0 	0 	0
0.2984985 	0 	9.7037249e-17 	0.0031642874 	0 	0 	0
0.3006006 	0 	9.6549116e-17 	0.0031661535 	0 	0 	0
0.3027027 	0 	9.6060983e-17 	0.0031680196 	0 	0 	0
0.3048048 	0 	9.5592912e-17 	0.0031699316 	0 	0 	0
0.30690691 	0 	9.5134387e-17 	0.0031718654 	0 	0 	0
0.30900901 	0 	9.4675862e-17 	0.0031737993 	0 	0 	0
0.31111111 	0 	9.4228102e-17 	0.0031757526 	0 	0 	0
0.31321321 	0 	9.3797619e-17 	0.0031777371 	0 	0 	0
0.31531532 	0 	9.3367136e-17 	0.0031797216 	0 	0 	0
0.31741742 	0 	9.2937409e-17 	0.0031817068 	0 	0 	0
0.31951952 	0 	9.2542572e-17 	0.003183725 	0 	0 	0
0.32162162 	0 	9.2147734e-17 	0.0031857431 	0 	0 	0
0.32372372 	0 	9.1752897e-17 	0.0031877612 	0 	0 	0
0.32582583 	0 	9.1373485e-17 	0.0031897897 	0 	0 	0
0.32792793 	0 	9.1004944e-17 	0.0031918254 	0 	0 	0
0.33003003 	0 	9.0636402e-17 	0.0031938612 	0 	0 	0
0.33213213 	0 	9.0270154e-17 	0.0031958971 	0 	0 	0
0.33423423 	0 	8.9931369e-17 	0.0031979345 	0 	0 	0
0.33633634 	0 	8.9592585e-17 	0.003199972 	0 	0 	0
0.33843844 	0 	8.9253801e-17 	0.0032020094 	0 	0 	0
0.34054054 	0 	8.8926047e-17 	0.0032040412 	0 	0 	0
0.34264264 	0 	8.8609808e-17 	0.003206067 	0 	0 	0
0.34474474 	0 	8.829357e-17 	0.0032080928 	0 	0 	0
0.34684685 	0 	8.7977331e-17 	0.0032101186 	0 	0 	0
0.34894895 	0 	8.767734e-17 	0.0032121269 	0 	0 	0
0.35105105 	0 	8.738092e-17 	0.0032141314 	0 	0 	0
0.35315315 	0 	8.7084501e-17 	0.0032161359 	0 	0 	0
0.35525526 	0 	8.6789186e-17 	0.003218138 	0 	0 	0
0.35735736 	0 	8.650978e-17 	0.0032201066 	0 	0 	0
0.35945946 	0 	8.6230373e-17 	0.0032220753 	0 	0 	0
0.36156156 	0 	8.5950966e-17 	0.0032240439 	0 	0 	0
0.36366366 	0 	8.5675968e-17 	0.0032260007 	0 	0 	0
0.36576577 	0 	8.5416517e-17 	0.0032279156 	0 	0 	0
0.36786787 	0 	8.5157065e-17 	0.0032298306 	0 	0 	0
0.36996997 	0 	8.4897614e-17 	0.0032317456 	0 	0 	0
0.37207207 	0 	8.4644588e-17 	0.0032336417 	0 	0 	0
0.37417417 	0 	8.4407784e-17 	0.0032354901 	0 	0 	0
0.37627628 	0 	8.4170981e-17 	0.0032373385 	0 	0 	0
0.37837838 	0 	8.3934178e-17 	0.0032391869 	0 	0 	0
0.38048048 	0 	8.3700613e-17 	0.0032410161 	0 	0 	0
0.38258258 	0 	8.3476822e-17 	0.0032427876 	0 	0 	0
0.38468468 	0 	8.3253031e-17 	0.003244559 	0 	0 	0
0.38678679 	0 	8.302924e-17 	0.0032463304 	0 	0 	0
0.38888889 	0 	8.2806974e-17 	0.003248092 	0 	0 	0
0.39099099 	0 	8.2596807e-17 	0.0032497752 	0 	0 	0
0.39309309 	0 	8.2386641e-17 	0.0032514585 	0 	0 	0
0.3951952 	0 	8.2176475e-17 	0.0032531417 	0 	0 	0
0.3972973 	0 	8.1966308e-17 	0.003254825 	0 	0 	0
0.3993994 	0 	8.1764214e-17 	0.0032564231 	0 	0 	0
0.4015015 	0 	8.1563347e-17 	0.0032580083 	0 	0 	0
0.4036036 	0 	8.136248e-17 	0.0032595935 	0 	0 	0
0.40570571 	0 	8.1161612e-17 	0.0032611787 	0 	0 	0
0.40780781 	0 	8.0971786e-17 	0.0032627083 	0 	0 	0
0.40990991 	0 	8.0792483e-17 	0.0032641849 	0 	0 	0
0.41201201 	0 	8.0613179e-17 	0.0032656614 	0 	0 	0
0.41411411 	0 	8.0433876e-17 	0.003267138 	0 	0 	0
0.41621622 	0 	8.0255182e-17 	0.0032686101 	0 	0 	0
0.41831832 	0 	8.0091748e-17 	0.0032699702 	0 	0 	0
0.42042042 	0 	7.9928314e-17 	0.0032713304 	0 	0 	0
0.42252252 	0 	7.9764881e-17 	0.0032726905 	0 	0 	0
0.42462462 	0 	7.9601447e-17 	0.0032740506 	0 	0 	0
0.42672673 	0 	7.9441495e-17 	0.0032753567 	0 	0 	0
0.42882883 	0 	7.9285949e-17 	0.0032765943 	0 	0 	0
0.43093093 	0 	7.9130403e-17 	0.0032778319 	0 	0 	0
0.43303303 	0 	7.8974857e-17 	0.0032790695 	0 	0 	0
0.43513514 	0 	7.8819311e-17 	0.0032803071 	0 	0 	0
0.43723724 	0 	7.8671858e-17 	0.0032814461 	0 	0 	0
0.43933934 	0 	7.8527638e-17 	0.0032825457 	0 	0 	0
0.44144144 	0 	7.8383418e-17 	0.0032836453 	0 	0 	0
0.44354354 	0 	7.8239198e-17 	0.0032847449 	0 	0 	0
0.44564565 	0 	7.8094978e-17 	0.0032858445 	0 	0 	0
0.44774775 	0 	7.7957155e-17 	0.0032868142 	0 	0 	0
0.44984985 	0 	7.7820448e-17 	0.0032877612 	0 	0 	0
0.45195195 	0 	7.7683742e-17 	0.0032887082 	0 	0 	0
0.45405405 	0 	7.7547035e-17 	0.0032896552 	0 	0 	0
0.45615616 	0 	7.7410328e-17 	0.0032906022 	0 	0 	0
0.45825826 	0 	7.7283387e-17 	0.0032914142 	0 	0 	0
0.46036036 	0 	7.7158236e-17 	0.0032922014 	0 	0 	0
0.46246246 	0 	7.7033084e-17 	0.0032929887 	0 	0 	0
0.46456456 	0 	7.6907932e-17 	0.0032937759 	0 	0 	0
0.46666667 	0 	7.6782781e-17 	0.0032945631 	0 	0 	0
0.46876877 	0 	7.6664588e-17 	0.003295235 	0 	0 	0
0.47087087 	0 	7.6549553e-17 	0.0032958546 	0 	0 	0
0.47297297 	0 	7.6434517e-17 	0.0032964741 	0 	0 	0
0.47507508 	0 	7.6319481e-17 	0.0032970937 	0 	0 	0
0.47717718 	0 	7.6204446e-17 	0.0032977133 	0 	0 	0
0.47927928 	0 	7.6091004e-17 	0.003298268 	0 	0 	0
0.48138138 	0 	7.5980258e-17 	0.0032987132 	0 	0 	0
0.48348348 	0 	7.5869512e-17 	0.0032991583 	0 	0 	0
0.48558559 	0 	7.5758765e-17 	0.0032996035 	0 	0 	0
0.48768769 	0 	7.5648019e-17 	0.0033000486 	0 	0 	0
0.48978979 	0 	7.5537272e-17 	0.0033004938 	0 	0 	0
0.49189189 	0 	7.5438366e-17 	0.003300779 	0 	0 	0
0.49399399 	0 	7.5340957e-17 	0.003301044 	0 	0 	0
0.4960961 	0 	7.5243548e-17 	0.003301309 	0 	0 	0
0.4981982 	0 	7.5146139e-17 	0.0033015741 	0 	0 	0
0.5003003 	0 	7.5048729e-17 	0.0033018391 	0 	0 	0
0.5024024 	0 	7.4953506e-17 	0.0033020606 	0 	0 	0
0.5045045 	0 	7.4865729e-17 	0.0033021338 	0 	0 	0
0.50660661 	0 	7.4777952e-17 	0.0033022071 	0 	0 	0
0.50870871 	0 	7.4690174e-17 	0.0033022803 	0 	0 	0
0.51081081 	0 	7.4602397e-17 	0.0033023535 	0 	0 	0
0.51291291 	0 	7.451462e-17 	0.0033024268 	0 	0 	0
0.51501502 	0 	7.4426337e-17 	0.0033024263 	0 	0 	0
0.51711712 	0 	7.4337226e-17 	0.0033023052 	0 	0 	0
0.51921922 	0 	7.4248116e-17 	0.0033021841 	0 	0 	0
0.52132132 	0 	7.4159005e-17 	0.003302063 	0 	0 	0
0.52342342 	0 	7.4069894e-17 	0.0033019419 	0 	0 	0
0.52552553 	0 	7.3980784e-17 	0.0033018208 	0 	0 	0
0.52762763 	0 	7.389538e-17 	0.0033016345 	0 	0 	0
0.52972973 	0 	7.3817375e-17 	0.0033013179 	0 	0 	0
0.53183183 	0 	7.3739371e-17 	0.0033010014 	0 	0 	0
0.53393393 	0 	7.3661367e-17 	0.0033006848 	0 	0 	0
0.53603604 	0 	7.3583362e-17 	0.0033003683 	0 	0 	0
0.53813814 	0 	7.3505358e-17 	0.0033000518 	0 	0 	0
0.54024024 	0 	7.3427917e-17 	0.0032997184 	0 	0 	0
0.54234234 	0 	7.3357029e-17 	0.0032991894 	0 	0 	0
0.54444444 	0 	7.3286142e-17 	0.0032986603 	0 	0 	0
0.54654655 	0 	7.3215255e-17 	0.0032981312 	0 	0 	0
0.54864865 	0 	7.3144367e-17 	0.0032976022 	0 	0 	0
0.55075075 	0 	7.307348e-17 	0.0032970731 	0 	0 	0
0.55285285 	0 	7.3002593e-17 	0.003296544 	0 	0 	0
0.55495495 	0 	7.2935104e-17 	0.0032958823 	0 	0 	0
0.55705706 	0 	7.2869856e-17 	0.003295133 	0 	0 	0
0.55915916 	0 	7.2804607e-17 	0.0032943838 	0 	0 	0
0.56126126 	0 	7.2739359e-17 	0.0032936346 	0 	0 	0
0.56336336 	0 	7.2674111e-17 	0.0032928853 	0 	0 	0
0.56546547 	0 	7.2608862e-17 	0.0032921361 	0 	0 	0
0.56756757 	0 	7.2543614e-17 	0.0032913868 	0 	0 	0
0.56966967 	0 	7.2480126e-17 	0.0032904425 	0 	0 	0
0.57177177 	0 	7.2416854e-17 	0.0032894742 	0 	0 	0
0.57387387 	0 	7.2353581e-17 	0.003288506 	0 	0 	0
0.57597598 	0 	7.2290309e-17 	0.0032875378 	0 	0 	0
0.57807808 	0 	7.2227036e-17 	0.0032865696 	0 	0 	0
0.58018018 	0 	7.2163763e-17 	0.0032856014 	0 	0 	0
0.58228228 	0 	7.2100491e-17 	0.0032846332 	0 	0 	0
0.58438438 	0 	7.2042759e-17 	0.0032834605 	0 	0 	0
0.58648649 	0 	7.1985444e-17 	0.0032822725 	0 	0 	0
0.58858859 	0 	7.192813e-17 	0.0032810844 	0 	0 	0
0.59069069 	0 	7.1870815e-17 	0.0032798963 	0 	0 	0
0.59279279 	0 	7.1813501e-17 	0.0032787082 	0 	0 	0
0.59489489 	0 	7.1756186e-17 	0.0032775202 	0 	0 	0
0.596997 	0 	7.1698871e-17 	0.0032763321 	0 	0 	0
0.5990991 	0 	7.1647198e-17 	0.0032749916 	0 	0 	0
0.6012012 	0 	7.1597906e-17 	0.0032735868 	0 	0 	0
0.6033033 	0 	7.1548614e-17 	0.003272182 	0 	0 	0
0.60540541 	0 	7.1499323e-17 	0.0032707772 	0 	0 	0
0.60750751 	0 	7.1450031e-17 	0.0032693724 	0 	0 	0
0.60960961 	0 	7.1400739e-17 	0.0032679676 	0 	0 	0
0.61171171 	0 	7.1351447e-17 	0.0032665628 	0 	0 	0
0.61381381 	0 	7.1301284e-17 	0.0032651151 	0 	0 	0
0.61591592 	0 	7.1247495e-17 	0.0032634887 	0 	0 	0
0.61801802 	0 	7.1193707e-17 	0.0032618624 	0 	0 	0
0.62012012 	0 	7.1139918e-17 	0.003260236 	0 	0 	0
0.62222222 	0 	7.1086129e-17 	0.0032586097 	0 	0 	0
0.62432432 	0 	7.1032341e-17 	0.0032569833 	0 	0 	0
0.62642643 	0 	7.0978552e-17 	0.003255357 	0 	0 	0
0.62852853 	0 	7.0924763e-17 	0.0032537307 	0 	0 	0
0.63063063 	0 	7.0872547e-17 	0.0032520148 	0 	0 	0
0.63273273 	0 	7.0822864e-17 	0.0032501546 	0 	0 	0
0.63483483 	0 	7.0773181e-17 	0.0032482944 	0 	0 	0
0.63693694 	0 	7.0723498e-17 	0.0032464342 	0 	0 	0
0.63903904 	0 	7.0673815e-17 	0.0032445741 	0 	0 	0
0.64114114 	0 	7.0624133e-17 	0.0032427139 	0 	0 	0
0.64324324 	0 	7.057445e-17 	0.0032408537 	0 	0 	0
0.64534535 	0 	7.0524767e-17 	0.0032389936 	0 	0 	0
0.64744745 	0 	7.0477393e-17 	0.0032370746 	0 	0 	0
0.64954955 	0 	7.043692e-17 	0.0032349798 	0 	0 	0
0.65165165 	0 	7.0396447e-17 	0.003232885 	0 	0 	0
0.65375375 	0 	7.0355974e-17 	0.0032307903 	0 	0 	0
0.65585586 	0 	7.0315501e-17 	0.0032286955 	0 	0 	0
0.65795796 	0 	7.0275028e-17 	0.0032266007 	0 	0 	0
0.66006006 	0 	7.0234555e-17 	0.003224506 	0 	0 	0
0.66216216 	0 	7.0194081e-17 	0.0032224112 	0 	0 	0
0.66426426 	0 	7.0153608e-17 	0.0032203164 	0 	0 	0
0.66636637 	0 	7.0116592e-17 	0.0032180428 	0 	0 	0
0.66846847 	0 	7.008058e-17 	0.0032157172 	0 	0 	0
0.67057057 	0 	7.0044568e-17 	0.0032133916 	0 	0 	0
0.67267267 	0 	7.0008556e-17 	0.003211066 	0 	0 	0
0.67477477 	0 	6.9972544e-17 	0.0032087403 	0 	0 	0
0.67687688 	0 	6.9936532e-17 	0.0032064147 	0 	0 	0
0.67897898 	0 	6.990052e-17 	0.0032040891 	0 	0 	0
0.68108108 	0 	6.9864508e-17 	0.0032017635 	0 	0 	0
0.68318318 	0 	6.9828496e-17 	0.0031994379 	0 	0 	0
0.68528529 	0 	6.9791782e-17 	0.0031969047 	0 	0 	0
0.68738739 	0 	6.9755015e-17 	0.0031943562 	0 	0 	0
0.68948949 	0 	6.9718249e-17 	0.0031918077 	0 	0 	0
0.69159159 	0 	6.9681482e-17 	0.0031892591 	0 	0 	0
0.69369369 	0 	6.9644715e-17 	0.0031867106 	0 	0 	0
0.6957958 	0 	6.9607949e-17 	0.003184162 	0 	0 	0
0.6978979 	0 	6.9571182e-17 	0.0031816135 	0 	0 	0
0.7 	0 	6.9534416e-17 	0.0031790649 	0 	0 	0
0.7021021 	0 	6.9497649e-17 	0.0031765164 	0 	0 	0
0.7042042 	0 	6.9461634e-17 	0.0031738224 	0 	0 	0
0.70630631 	0 	6.9425953e-17 	0.0031710638 	0 	0 	0
0.70840841 	0 	6.9390272e-17 	0.0031683052 	0 	0 	0
0.71051051 	0 	6.9354591e-17 	0.0031655466 	0 	0 	0
0.71261261 	0 	6.931891e-17 	0.003162788 	0 	0 	0
0.71471471 	0 	6.9283229e-17 	0.0031600294 	0 	0 	0
0.71681682 	0 	6.9247548e-17 	0.0031572708 	0 	0 	0
0.71891892 	0 	6.9211867e-17 	0.0031545123 	0 	0 	0
0.72102102 	0 	6.9176186e-17 	0.0031517537 	0 	0 	0
0.72312312 	0 	6.9140694e-17 	0.0031489885 	0 	0 	0
0.72522523 	0 	6.9111141e-17 	0.003146017 	0 	0 	0
0.72732733 	0 	6.9081587e-17 	0.0031430454 	0 	0 	0
0.72942943 	0 	6.9052034e-17 	0.0031400739 	0 	0 	0
0.73153153 	0 	6.902248e-17 	0.0031371023 	0 	0 	0
0.73363363 	0 	6.8992927e-17 	0.0031341308 	0 	0 	0
0.73573574 	0 	6.8963373e-17 	0.0031311592 	0 	0 	0
0.73783784 	0 	6.893382e-17 	0.0031281877 	0 	0 	0
0.73993994 	0 	6.8904266e-17 	0.0031252161 	0 	0 	0
0.74204204 	0 	6.8874713e-17 	0.0031222446 	0 	0 	0
0.74414414 	0 	6.8845159e-17 	0.003119273 	0 	0 	0
0.74624625 	0 	6.8819116e-17 	0.0031161046 	0 	0 	0
0.74834835 	0 	6.8793406e-17 	0.0031129176 	0 	0 	0
0.75045045 	0 	6.8767695e-17 	0.0031097305 	0 	0 	0
0.75255255 	0 	6.8741984e-17 	0.0031065435 	0 	0 	0
0.75465465 	0 	6.8716274e-17 	0.0031033564 	0 	0 	0
0.75675676 	0 	6.8690563e-17 	0.0031001694 	0 	0 	0
0.75885886 	0 	6.8664852e-17 	0.0030969823 	0 	0 	0
0.76096096 	0 	6.8639142e-17 	0.0030937953 	0 	0 	0
0.76306306 	0 	6.8613431e-17 	0.0030906082 	0 	0 	0
0.76516517 	0 	6.858772e-17 	0.0030874212 	0 	0 	0
0.76726727 	0 	6.8561431e-17 	0.0030841706 	0 	0 	0
0.76936937 	0 	6.8533826e-17 	0.0030807753 	0 	0 	0
0.77147147 	0 	6.8506221e-17 	0.00307738 	0 	0 	0
0.77357357 	0 	6.8478615e-17 	0.0030739848 	0 	0 	0
0.77567568 	0 	6.845101e-17 	0.0030705895 	0 	0 	0
0.77777778 	0 	6.8423405e-17 	0.0030671942 	0 	0 	0
0.77987988 	0 	6.83958e-17 	0.0030637989 	0 	0 	0
0.78198198 	0 	6.8368194e-17 	0.0030604037 	0 	0 	0
0.78408408 	0 	6.8340589e-17 	0.0030570084 	0 	0 	0
0.78618619 	0 	6.8312984e-17 	0.0030536131 	0 	0 	0
0.78828829 	0 	6.8285379e-17 	0.0030502178 	0 	0 	0
0.79039039 	0 	6.8257769e-17 	0.0030467903 	0 	0 	0
0.79249249 	0 	6.8230141e-17 	0.0030432018 	0 	0 	0
0.79459459 	0 	6.8202513e-17 	0.0030396133 	0 	0 	0
0.7966967 	0 	6.8174885e-17 	0.0030360249 	0 	0 	0
0.7987988 	0 	6.8147256e-17 	0.0030324364 	0 	0 	0
0.8009009 	0 	6.8119628e-17 	0.0030288479 	0 	0 	0
0.803003 	0 	6.8092e-17 	0.0030252595 	0 	0 	0
0.80510511 	0 	6.8064372e-17 	0.003021671 	0 	0 	0
0.80720721 	0 	6.8036743e-17 	0.0030180825 	0 	0 	0
0.80930931 	0 	6.8009115e-17 	0.0030144941 	0 	0 	0
0.81141141 	0 	6.7981487e-17 	0.0030109056 	0 	0 	0
0.81351351 	0 	6.7953859e-17 	0.0030073171 	0 	0 	0
0.81561562 	0 	6.7928524e-17 	0.0030036491 	0 	0 	0
0.81771772 	0 	6.7905928e-17 	0.0029998861 	0 	0 	0
0.81981982 	0 	6.7883332e-17 	0.0029961231 	0 	0 	0
0.82192192 	0 	6.7860736e-17 	0.0029923601 	0 	0 	0
0.82402402 	0 	6.7838139e-17 	0.0029885971 	0 	0 	0
0.82612613 	0 	6.7815543e-17 	0.0029848341 	0 	0 	0
0.82822823 	0 	6.7792947e-17 	0.0029810711 	0 	0 	0
0.83033033 	0 	6.7770351e-17 	0.0029773081 	0 	0 	0
0.83243243 	0 	6.7747755e-17 	0.0029735451 	0 	0 	0
0.83453453 	0 	6.7725159e-17 	0.0029697821 	0 	0 	0
0.83663664 	0 	6.7702563e-17 	0.0029660191 	0 	0 	0
0.83873874 	0 	6.7679967e-17 	0.0029622561 	0 	0 	0
0.84084084 	0 	6.7657691e-17 	0.0029584719 	0 	0 	0
0.84294294 	0 	6.76377e-17 	0.0029545363 	0 	0 	0
0.84504505 	0 	6.761771e-17 	0.0029506007 	0 	0 	0
0.84714715 	0 	6.7597719e-17 	0.0029466652 	0 	0 	0
0.84924925 	0 	6.7577728e-17 	0.0029427296 	0 	0 	0
0.85135135 	0 	6.7557737e-17 	0.002938794 	0 	0 	0
0.85345345 	0 	6.7537747e-17 	0.0029348584 	0 	0 	0
0.85555556 	0 	6.7517756e-17 	0.0029309228 	0 	0 	0
0.85765766 	0 	6.7497765e-17 	0.0029269872 	0 	0 	0
0.85975976 	0 	6.7477774e-17 	0.0029230517 	0 	0 	0
0.86186186 	0 	6.7457783e-17 	0.0029191161 	0 	0 	0
0.86396396 	0 	6.7437793e-17 	0.0029151805 	0 	0 	0
0.86606607 	0 	6.7417802e-17 	0.0029112449 	0 	0 	0
0.86816817 	0 	6.7397417e-17 	0.0029072898 	0 	0 	0
0.87027027 	0 	6.7373996e-17 	0.0029031843 	0 	0 	0
0.87237237 	0 	6.7350576e-17 	0.0028990788 	0 	0 	0
0.87447447 	0 	6.7327155e-17 	0.0028949733 	0 	0 	0
0.87657658 	0 	6.7303734e-17 	0.0028908678 	0 	0 	0
0.87867868 	0 	6.7280314e-17 	0.0028867623 	0 	0 	0
0.88078078 	0 	6.7256893e-17 	0.0028826568 	0 	0 	0
0.88288288 	0 	6.7233473e-17 	0.0028785513 	0 	0 	0
0.88498498 	0 	6.7210052e-17 	0.0028744458 	0 	0 	0
0.88708709 	0 	6.7186631e-17 	0.0028703403 	0 	0 	0
0.88918919 	0 	6.7163211e-17 	0.0028662349 	0 	0 	0
0.89129129 	0 	6.713979e-17 	0.0028621294 	0 	0 	0
0.89339339 	0 	6.7116369e-17 	0.0028580239 	0 	0 	0
0.8954955 	0 	6.7092949e-17 	0.0028539184 	0 	0 	0
0.8975976 	0 	6.7070528e-17 	0.002849756 	0 	0 	0
0.8996997 	0 	6.7049797e-17 	0.0028454977 	0 	0 	0
0.9018018 	0 	6.7029066e-17 	0.0028412393 	0 	0 	0
0.9039039 	0 	6.7008335e-17 	0.002836981 	0 	0 	0
0.90600601 	0 	6.6987604e-17 	0.0028327226 	0 	0 	0
0.90810811 	0 	6.6966872e-17 	0.0028284643 	0 	0 	0
0.91021021 	0 	6.6946141e-17 	0.0028242059 	0 	0 	0
0.91231231 	0 	6.692541e-17 	0.0028199476 	0 	0 	0
0.91441441 	0 	6.6904679e-17 	0.0028156892 	0 	0 	0
0.91651652 	0 	6.6883948e-17 	0.0028114309 	0 	0 	0
0.91861862 	0 	6.6863216e-17 	0.0028071725 	0 	0 	0
0.92072072 	0 	6.6842485e-17 	0.0028029142 	0 	0 	0
0.92282282 	0 	6.6821754e-17 	0.0027986558 	0 	0 	0
0.92492492 	0 	6.6801023e-17 	0.0027943975 	0 	0 	0
0.92702703 	0 	6.6780292e-17 	0.0027901392 	0 	0 	0
0.92912913 	0 	6.6762669e-17 	0.0027857725 	0 	0 	0
0.93123123 	0 	6.67457e-17 	0.0027813831 	0 	0 	0
0.93333333 	0 	6.6728731e-17 	0.0027769936 	0 	0 	0
0.93543544 	0 	6.6711761e-17 	0.0027726042 	0 	0 	0
0.93753754 	0 	6.6694792e-17 	0.0027682148 	0 	0 	0
0.93963964 	0 	6.6677822e-17 	0.0027638253 	0 	0 	0
0.94174174 	0 	6.6660853e-17 	0.0027594359 	0 	0 	0
0.94384384 	0 	6.6643884e-17 	0.0027550465 	0 	0 	0
0.94594595 	0 	6.6626914e-17 	0.0027506571 	0 	0 	0
0.94804805 	0 	6.6609945e-17 	0.0027462676 	0 	0 	0
0.95015015 	0 	6.6592976e-17 	0.0027418782 	0 	0 	0
0.95225225 	0 	6.6576006e-17 	0.0027374888 	0 	0 	0
0.95435435 	0 	6.6559037e-17 	0.0027330994 	0 	0 	0
0.95645646 	0 	6.6542067e-17 	0.0027287099 	0 	0 	0
0.95855856 	0 	6.6525098e-17 	0.0027243205 	0 	0 	0
0.96066066 	0 	6.6507407e-17 	0.0027198829 	0 	0 	0
0.96276276 	0 	6.6488644e-17 	0.0027153739 	0 	0 	0
0.96486486 	0 	6.6469882e-17 	0.002710865 	0 	0 	0
0.96696697 	0 	6.645112e-17 	0.002706356 	0 	0 	0
0.96906907 	0 	6.6432357e-17 	0.002701847 	0 	0 	0
0.97117117 	0 	6.6413595e-17 	0.002697338 	0 	0 	0
0.97327327 	0 	6.6394833e-17 	0.002692829 	0 	0 	0
0.97537538 	0 	6.637607e-17 	0.00268832 	0 	0 	0
0.97747748 	0 	6.6357308e-17 	0.002683811 	0 	0 	0
0.97957958 	0 	6.6338545e-17 	0.0026793021 	0 	0 	0
0.98168168 	0 	6.6319783e-17 	0.0026747931 	0 	0 	0
0.98378378 	0 	6.6301021e-17 	0.0026702841 	0 	0 	0
0.98588589 	0 	6.6282258e-17 	0.0026657751 	0 	0 	0
0.98798799 	0 	6.6263496e-17 	0.0026612661 	0 	0 	0
0.99009009 	0 	6.6244734e-17 	0.0026567571 	0 	0 	0
0.99219219 	0 	6.6225971e-17 	0.0026522481 	0 	0 	0
0.99429429 	0 	6.6207223e-17 	0.0026477373 	0 	0 	0
0.9963964 	0 	6.6189407e-17 	0.0026431072 	0 	0 	0
0.9984985 	0 	6.6171592e-17 	0.0026384771 	0 	0 	0
1.0006006 	0 	6.6153776e-17 	0.002633847 	0 	0 	0
1.0027027 	0 	6.6135961e-17 	0.0026292169 	0 	0 	0
1.0048048 	0 	6.6118145e-17 	0.0026245869 	0 	0 	0
1.0069069 	0 	6.6100329e-17 	0.0026199568 	0 	0 	0
1.009009 	0 	6.6082514e-17 	0.0026153267 	0 	0 	0
1.0111111 	0 	6.6064698e-17 	0.0026106966 	0 	0 	0
1.0132132 	0 	6.6046883e-17 	0.0026060665 	0 	0 	0
1.0153153 	0 	6.6029067e-17 	0.0026014364 	0 	0 	0
1.0174174 	0 	6.6011251e-17 	0.0025968063 	0 	0 	0
1.0195195 	0 	6.5993436e-17 	0.0025921762 	0 	0 	0
1.0216216 	0 	6.597562e-17 	0.0025875461 	0 	0 	0
1.0237237 	0 	6.5957805e-17 	0.002582916 	0 	0 	0
1.0258258 	0 	6.5939989e-17 	0.0025782859 	0 	0 	0
1.0279279 	0 	6.5922173e-17 	0.0025736558 	0 	0 	0
1.03003 	0 	6.5904358e-17 	0.0025690257 	0 	0 	0
1.0321321 	0 	6.5888465e-17 	0.0025643402 	0 	0 	0
1.0342342 	0 	6.5874044e-17 	0.0025596124 	0 	0 	0
1.0363363 	0 	6.5859624e-17 	0.0025548845 	0 	0 	0
1.0384384 	0 	6.5845204e-17 	0.0025501566 	0 	0 	0
1.0405405 	0 	6.5830784e-17 	0.0025454287 	0 	0 	0
1.0426426 	0 	6.5816364e-17 	0.0025407009 	0 	0 	0
1.0447447 	0 	6.5801944e-17 	0.002535973 	0 	0 	0
1.0468468 	0 	6.5787523e-17 	0.0025312451 	0 	0 	0
1.0489489 	0 	6.5773103e-17 	0.0025265172 	0 	0 	0
1.0510511 	0 	6.5758683e-17 	0.0025217894 	0 	0 	0
1.0531532 	0 	6.5744263e-17 	0.0025170615 	0 	0 	0
1.0552553 	0 	6.5729843e-17 	0.0025123336 	0 	0 	0
1.0573574 	0 	6.5715422e-17 	0.0025076058 	0 	0 	0
1.0594595 	0 	6.5701002e-17 	0.0025028779 	0 	0 	0
1.0615616 	0 	6.5686582e-17 	0.00249815 	0 	0 	0
1.0636637 	0 	6.5672162e-17 	0.0024934221 	0 	0 	0
1.0657658 	0 	6.5657742e-17 	0.0024886943 	0 	0 	0
1.0678679 	0 	6.5643322e-17 	0.0024839664 	0 	0 	0
1.06997 	0 	6.5628901e-17 	0.0024792385 	0 	0 	0
1.0720721 	0 	6.5615491e-17 	0.0024744846 	0 	0 	0
1.0741742 	0 	6.5602138e-17 	0.0024697291 	0 	0 	0
1.0762763 	0 	6.5588785e-17 	0.0024649737 	0 	0 	0
1.0783784 	0 	6.5575432e-17 	0.0024602183 	0 	0 	0
1.0804805 	0 	6.5562079e-17 	0.0024554629 	0 	0 	0
1.0825826 	0 	6.5548726e-17 	0.0024507074 	0 	0 	0
1.0846847 	0 	6.5535374e-17 	0.002445952 	0 	0 	0
1.0867868 	0 	6.5522021e-17 	0.0024411966 	0 	0 	0
1.0888889 	0 	6.5508668e-17 	0.0024364412 	0 	0 	0
1.090991 	0 	6.5495315e-17 	0.0024316857 	0 	0 	0
1.0930931 	0 	6.5481962e-17 	0.0024269303 	0 	0 	0
1.0951952 	0 	6.5468609e-17 	0.0024221749 	0 	0 	0
1.0972973 	0 	6.5455257e-17 	0.0024174195 	0 	0 	0
1.0993994 	0 	6.5441904e-17 	0.002412664 	0 	0 	0
1.1015015 	0 	6.5428551e-17 	0.0024079086 	0 	0 	0
1.1036036 	0 	6.5415198e-17 	0.0024031532 	0 	0 	0
1.1057057 	0 	6.5401845e-17 	0.0023983978 	0 	0 	0
1.1078078 	0 	6.5388492e-17 	0.0023936423 	0 	0 	0
1.1099099 	0 	6.537514e-17 	0.0023888869 	0 	0 	0
1.112012 	0 	6.5361713e-17 	0.0023841282 	0 	0 	0
1.1141141 	0 	6.5345631e-17 	0.0023792515 	0 	0 	0
1.1162162 	0 	6.5329549e-17 	0.0023743747 	0 	0 	0
1.1183183 	0 	6.5313467e-17 	0.0023694979 	0 	0 	0
1.1204204 	0 	6.5297385e-17 	0.0023646211 	0 	0 	0
1.1225225 	0 	6.5281303e-17 	0.0023597444 	0 	0 	0
1.1246246 	0 	6.5265221e-17 	0.0023548676 	0 	0 	0
1.1267267 	0 	6.5249139e-17 	0.0023499908 	0 	0 	0
1.1288288 	0 	6.5233057e-17 	0.0023451141 	0 	0 	0
1.1309309 	0 	6.5216975e-17 	0.0023402373 	0 	0 	0
1.133033 	0 	6.5200893e-17 	0.0023353605 	0 	0 	0
1.1351351 	0 	6.5184811e-17 	0.0023304837 	0 	0 	0
1.1372372 	0 	6.5168728e-17 	0.002325607 	0 	0 	0
1.1393393 	0 	6.5152646e-17 	0.0023207302 	0 	0 	0
1.1414414 	0 	6.5136564e-17 	0.0023158534 	0 	0 	0
1.1435435 	0 	6.5120482e-17 	0.0023109767 	0 	0 	0
1.1456456 	0 	6.51044e-17 	0.0023060999 	0 	0 	0
1.1477477 	0 	6.5088318e-17 	0.0023012231 	0 	0 	0
1.1498498 	0 	6.5072236e-17 	0.0022963464 	0 	0 	0
1.151952 	0 	6.5056154e-17 	0.0022914696 	0 	0 	0
1.1540541 	0 	6.5040072e-17 	0.0022865928 	0 	0 	0
1.1561562 	0 	6.5024676e-17 	0.0022816425 	0 	0 	0
1.1582583 	0 	6.5009755e-17 	0.0022766413 	0 	0 	0
1.1603604 	0 	6.4994833e-17 	0.0022716401 	0 	0 	0
1.1624625 	0 	6.4979912e-17 	0.0022666389 	0 	0 	0
1.1645646 	0 	6.4964991e-17 	0.0022616377 	0 	0 	0
1.1666667 	0 	6.495007e-17 	0.0022566365 	0 	0 	0
1.1687688 	0 	6.4935148e-17 	0.0022516353 	0 	0 	0
1.1708709 	0 	6.4920227e-17 	0.0022466341 	0 	0 	0
1.172973 	0 	6.4905306e-17 	0.0022416329 	0 	0 	0
1.1750751 	0 	6.4890384e-17 	0.0022366317 	0 	0 	0