/*--------------------------------*- C++ -*----------------------------------*\
| =========                 |                                                 |
| \\      /  F ield         | OpenFOAM: The Open Source CFD Toolbox           |
|  \\    /   O peration     | Version:  2206                                  |
|   \\  /    A nd           | Website:  www.openfoam.com                      |
|    \\/     M anipulation  |                                                 |
\*---------------------------------------------------------------------------*/
FoamFile
{
    version     2.0;
    format      ascii;
    arch        "LSB;label=32;scalar=64";
    class       volScalarField;
    location    "400";
    object      epsilon;
}
// * * * * * * * * * * * * * * * * * * * * * * * * * * * * * * * * * * * * * //

dimensions      [0 2 -3 0 0 0 0];

internalField   nonuniform List<scalar> 
13056
(
0.0095438381
0.0095299881
0.0095239879
0.0095216397
0.009520448
0.0095196991
0.0095191887
0.0095188358
0.0095185959
0.0095184419
0.0095183565
0.0095183292
0.0095183542
0.0095184303
0.0095185614
0.0095187574
0.0095190448
0.009519459
0.0095201481
0.0095211701
0.0095237729
0.0095275649
0.0095384042
0.013073338
0.038719035
0.0048267611
0.02643066
0.021431568
0.019798345
0.018475032
0.017536767
0.016838848
0.016295229
0.01585832
0.015498766
0.015197229
0.014940443
0.014718915
0.014525664
0.014355451
0.014204268
0.014068992
0.013947147
0.013836743
0.013736167
0.013644091
0.013559419
0.013481229
0.013408748
0.013341319
0.013278379
0.013219447
0.013164104
0.013111988
0.013062782
0.013016208
0.012972022
0.012930006
0.012889968
0.012851738
0.012815162
0.012780104
0.012746439
0.012714058
0.01268286
0.012652754
0.012623658
0.012595497
0.012568203
0.012541713
0.012515969
0.012490921
0.01246652
0.012442722
0.012419486
0.012396776
0.012374556
0.012352795
0.012331464
0.012310536
0.012289986
0.01226979
0.012249926
0.012230376
0.01221112
0.012192141
0.012173426
0.012154953
0.012136718
0.012118702
0.012100895
0.012083287
0.012065867
0.012048627
0.012031557
0.012014651
0.011997902
0.011981302
0.011964847
0.011948531
0.011932349
0.011916298
0.011900374
0.011884574
0.011868896
0.011853337
0.011837897
0.011822574
0.011807371
0.01179229
0.011777333
0.011762541
0.011747818
0.011734312
0.011722613
0.011712402
0.011703366
0.011695272
0.011687953
0.01168129
0.011675194
0.011669592
0.011664423
0.011659639
0.011655196
0.011651058
0.011647194
0.011643575
0.011640177
0.01163697
0.011633943
0.011631019
0.011628309
0.011625328
0.011623051
0.011619457
0.0095422354
0.0095282964
0.0095222504
0.009519881
0.0095186774
0.0095179203
0.009517404
0.0095170464
0.0095168027
0.0095166454
0.009516557
0.0095165265
0.0095165481
0.0095166199
0.0095167453
0.0095169332
0.0095172081
0.0095176033
0.0095182575
0.0095192262
0.0095216788
0.0095252925
0.0095348671
0.01306979
0.057394835
0.010094811
0.038980178
0.034110815
0.032345377
0.031015578
0.030067339
0.029361631
0.028812339
0.028371082
0.028008169
0.027704057
0.027445313
0.027222293
0.027027907
0.02685683
0.026704994
0.026569225
0.02644701
0.02633633
0.026235549
0.026143322
0.026058535
0.025980258
0.025907707
0.025840217
0.02577722
0.025718228
0.025662821
0.025610631
0.025561341
0.025514669
0.025470369
0.025428224
0.025388041
0.025349647
0.025312889
0.025277631
0.025243748
0.02521113
0.025179677
0.025149298
0.025119912
0.025091443
0.025063824
0.025036993
0.025010893
0.024985473
0.024960685
0.024936487
0.024912837
0.024889701
0.024867043
0.024844833
0.024823043
0.024801645
0.024780616
0.024759933
0.024739576
0.024719524
0.024699761
0.024680271
0.024661039
0.024642045
0.024623287
0.024604746
0.024586413
0.024568279
0.024550333
0.024532569
0.024514978
0.024497553
0.02448029
0.024463182
0.024446224
0.024429413
0.024412744
0.024396214
0.024379821
0.024363563
0.024347438
0.024331445
0.024315584
0.024299855
0.02428426
0.024268803
0.024253487
0.02423836
0.024223309
0.024209717
0.024198155
0.024188161
0.024179372
0.024171536
0.024164476
0.02415807
0.024152224
0.024146865
0.024141932
0.024137374
0.02413315
0.024129223
0.024125561
0.024122138
0.024118927
0.024115902
0.024113049
0.024110294
0.024107748
0.024104918
0.02410278
0.024099405
0.0095371284
0.0095229169
0.0095167312
0.0095142972
0.009513057
0.0095122754
0.0095117414
0.0095113702
0.0095111159
0.00951095
0.0095108543
0.0095108174
0.0095108327
0.0095108979
0.0095110155
0.0095111934
0.0095114538
0.0095118273
0.0095124421
0.0095133515
0.0095156344
0.009519059
0.0095270869
0.013058351
0.075663599
0.015202856
0.05082029
0.046079252
0.044232927
0.042907483
0.041957737
0.041250687
0.040700785
0.040259275
0.039896377
0.039592517
0.039334208
0.03911175
0.038918004
0.038747617
0.038596494
0.038461447
0.038339948
0.038229969
0.038129866
0.03803829
0.037954123
0.037876433
0.037804433
0.037737458
0.037674939
0.037616388
0.037561384
0.037509562
0.037460602
0.037414226
0.037370187
0.037328269
0.03728828
0.037250048
0.037213421
0.037178263
0.037144453
0.037111879
0.037080444
0.037050057
0.037020638
0.036992112
0.036964414
0.036937482
0.036911261
0.0368857
0.036860753
0.036836377
0.036812534
0.036789188
0.036766306
0.036743859
0.036721817
0.036700157
0.036678854
0.036657887
0.036637236
0.036616883
0.036596811
0.036577004
0.036557451
0.036538128
0.036519039
0.036500164
0.036481494
0.036463021
0.036444737
0.036426633
0.036408704
0.036390944
0.036373348
0.036355911
0.036338629
0.036321499
0.036304518
0.036287683
0.036270994
0.036254447
0.036238044
0.036221783
0.036205664
0.03618969
0.036173862
0.036158186
0.036142667
0.036127353
0.036112123
0.036098565
0.036087222
0.036077504
0.036069009
0.036061467
0.036054695
0.036048568
0.03604299
0.036037888
0.036033202
0.03602888
0.036024882
0.036021171
0.036017717
0.036014491
0.036011471
0.036008627
0.03600595
0.036003364
0.03600098
0.035998305
0.035996305
0.035993145
0.0095283509
0.0095136733
0.0095072485
0.0095047037
0.0095034008
0.0095025774
0.0095020129
0.0095016188
0.0095013467
0.0095011667
0.0095010594
0.0095010127
0.0095010193
0.0095010761
0.0095011847
0.009501352
0.0095015981
0.009501951
0.0095025289
0.0095033834
0.0095055066
0.0095087679
0.0095151968
0.013039027
0.093141685
0.020031747
0.061747639
0.057140189
0.055254349
0.053943301
0.052999904
0.052297478
0.051751621
0.051313611
0.050953809
0.050652775
0.050397077
0.050177039
0.04998554
0.049817243
0.049668067
0.049534832
0.049415024
0.049306621
0.049207988
0.049117782
0.049034892
0.048958391
0.048887499
0.048821554
0.048759992
0.04870233
0.04864815
0.048597089
0.048548834
0.048503106
0.048459665
0.048418294
0.048378806
0.04834103
0.048304818
0.048270034
0.04823656
0.048204287
0.048173118
0.048142964
0.048113748
0.048085397
0.048057845
0.048031033
0.048004908
0.04797942
0.047954523
0.047930177
0.047906344
0.04788299
0.047860083
0.047837595
0.047815497
0.047793767
0.047772382
0.047751321
0.047730564
0.047710096
0.047689899
0.04766996
0.047650268
0.047630799
0.047611559
0.047592528
0.047573699
0.047555064
0.047536615
0.047518347
0.047500253
0.047482329
0.04746457
0.047446973
0.047429534
0.047412251
0.047395122
0.047378146
0.04736132
0.047344645
0.047328121
0.047311747
0.047295524
0.047279456
0.047263544
0.047247795
0.047232214
0.047216856
0.047201585
0.047188167
0.047177115
0.047167725
0.047159561
0.047152341
0.047145879
0.047140048
0.047134752
0.047129919
0.047125487
0.047121408
0.04711764
0.047114149
0.047110903
0.047107876
0.047105046
0.047102384
0.047099881
0.047097463
0.047095239
0.04709272
0.047090856
0.047087907
0.0095156416
0.0095002881
0.0094935159
0.0094908098
0.0094894157
0.0094885312
0.0094879225
0.0094874951
0.0094871973
0.0094869969
0.0094868733
0.0094868131
0.009486808
0.0094868543
0.0094869526
0.0094871085
0.00948734
0.009487673
0.0094882159
0.0094890191
0.0094909907
0.0094941138
0.0094988664
0.013011295
0.10943881
0.024461144
0.071554971
0.067091705
0.065199845
0.063912627
0.062982979
0.062290774
0.061753312
0.061322292
0.060968447
0.060672619
0.060421539
0.060205631
0.060017856
0.059852933
0.059706831
0.059576408
0.059459181
0.059353154
0.059256712
0.059168532
0.059087518
0.059012756
0.058943479
0.058879033
0.058818867
0.058762502
0.058709529
0.058659592
0.058612383
0.058567629
0.058525094
0.058484567
0.058445862
0.058408815
0.058373279
0.058339123
0.05830623
0.058274495
0.058243824
0.058214131
0.058185339
0.058157377
0.058130184
0.058103701
0.058077876
0.058052661
0.058028014
0.058003893
0.057980264
0.057957094
0.057934351
0.057912009
0.057890041
0.057868426
0.05784714
0.057826166
0.057805484
0.057785079
0.057764935
0.057745039
0.057725383
0.057705941
0.057686723
0.057667708
0.05764889
0.057630262
0.057611817
0.057593551
0.057575458
0.057557534
0.057539776
0.05752218
0.057504745
0.057487468
0.057470349
0.057453386
0.057436579
0.057419927
0.057403432
0.057387093
0.057370913
0.057354894
0.057339039
0.057323357
0.057307852
0.05729258
0.057277401
0.057264222
0.057253524
0.057244505
0.057236703
0.05722983
0.057223696
0.057218175
0.057213172
0.057208615
0.057204443
0.05720061
0.057197075
0.057193804
0.057190768
0.05718794
0.057185298
0.057182817
0.057180485
0.057178233
0.057176166
0.057173804
0.057172073
0.057169331
0.0094986455
0.0094823842
0.0094751441
0.0094722202
0.0094707027
0.0094697356
0.0094690671
0.0094685946
0.009468262
0.0094680344
0.009467889
0.009467811
0.0094677911
0.0094678243
0.0094679104
0.0094680537
0.0094682702
0.0094685835
0.0094690929
0.0094698481
0.0094716746
0.0094746845
0.0094776583
0.01297445
0.12416075
0.028370757
0.080032658
0.075728249
0.073857708
0.072603277
0.071694416
0.071017742
0.070492779
0.070072031
0.069726823
0.069438427
0.069193837
0.068983654
0.068800973
0.068640616
0.068498634
0.068371948
0.068258125
0.068155212
0.068061629
0.06797608
0.067897495
0.06782498
0.067757786
0.067695276
0.067636909
0.06758222
0.067530811
0.067482335
0.067436489
0.067393012
0.067351672
0.067312264
0.067274608
0.067238545
0.067203932
0.067170643
0.067138563
0.067107593
0.06707764
0.067048621
0.067020463
0.066993097
0.066966465
0.066940509
0.06691518
0.066890433
0.066866225
0.066842519
0.06681928
0.066796477
0.066774082
0.066752067
0.066730408
0.066709085
0.066688077
0.066667364
0.066646931
0.066626763
0.066606844
0.066587163
0.066567712
0.066548466
0.066529437
0.066510604
0.066491963
0.066473506
0.066455229
0.066437127
0.066419196
0.066401432
0.066383833
0.066366396
0.06634912
0.066332004
0.066315047
0.066298248
0.066281609
0.066265128
0.066248808
0.066232648
0.066216652
0.066200821
0.06618516
0.066169678
0.06615438
0.066139323
0.066124362
0.066111515
0.066101229
0.066092618
0.066085206
0.066078699
0.066072909
0.066067708
0.066063006
0.06605873
0.066054823
0.066051239
0.066047938
0.066044887
0.06604206
0.066039429
0.066036974
0.066034671
0.066032509
0.06603042
0.066028508
0.066026301
0.066024701
0.066022162
0.0094769163
0.0094594867
0.0094516426
0.0094484366
0.0094467589
0.0094456845
0.0094449382
0.0094444072
0.0094440295
0.0094437665
0.0094435929
0.0094434921
0.0094434534
0.0094434706
0.0094435423
0.0094436715
0.0094438721
0.0094441657
0.0094446426
0.0094453525
0.0094470393
0.0094499622
0.0094510287
0.012927621
0.13691839
0.031643583
0.08697422
0.082846252
0.081019611
0.079806513
0.07892517
0.078269094
0.077760524
0.077353155
0.077019115
0.076740245
0.076503902
0.076300938
0.076124634
0.075969957
0.075833071
0.075710984
0.075601334
0.075502224
0.07541212
0.075329767
0.075254127
0.075184334
0.07511966
0.075059491
0.075003303
0.074950646
0.074901134
0.074854433
0.074810252
0.074768336
0.074728463
0.074690436
0.074654081
0.074619244
0.074585789
0.074553593
0.074522549
0.074492558
0.074463533
0.074435396
0.074408074
0.074381503
0.074355626
0.07433039
0.074305748
0.074281654
0.074258071
0.074234962
0.074212295
0.074190039
0.074168169
0.074146658
0.074125484
0.074104628
0.074084069
0.07406379
0.074043776
0.074024013
0.074004488
0.073985189
0.073966109
0.073947225
0.07392855
0.073910063
0.07389176
0.073873636
0.073855687
0.073837908
0.073820296
0.073802849
0.073785564
0.07376844
0.073751476
0.073734671
0.073718026
0.07370154
0.073685214
0.073669049
0.073653045
0.073637205
0.073621529
0.073606022
0.073590689
0.073575537
0.073560573
0.073545856
0.073531236
0.073518809
0.073508985
0.073500818
0.07349382
0.073487696
0.07348226
0.073477389
0.073472994
0.073469004
0.073465364
0.073462029
0.073458962
0.073456131
0.073453511
0.073451076
0.073448806
0.073446678
0.073444682
0.073442754
0.073440992
0.073438942
0.073437469
0.073435128
0.0094499179
0.0094310245
0.0094224208
0.0094188586
0.0094169782
0.0094157679
0.0094149229
0.0094143176
0.0094138827
0.0094135749
0.0094133657
0.0094132362
0.009413174
0.0094131715
0.0094132259
0.009413339
0.0094135226
0.0094137961
0.0094142411
0.0094149081
0.0094164599
0.0094193238
0.009418326
0.012869777
0.14734291
0.034171117
0.092185641
0.08825353
0.086489695
0.085326092
0.084478714
0.083848071
0.0833596
0.082968553
0.082648075
0.082380704
0.082154259
0.081959915
0.081791192
0.081643241
0.081512366
0.081395685
0.081290926
0.081196263
0.081110221
0.081031593
0.08095938
0.080892751
0.080831009
0.080773562
0.080719909
0.080669618
0.080622319
0.080577691
0.080535457
0.080495373
0.080457226
0.080420828
0.080386013
0.080352634
0.080320561
0.080289678
0.080259881
0.080231077
0.080203184
0.080176126
0.080149836
0.080124252
0.080099321
0.080074992
0.080051219
0.080027963
0.080005185
0.079982852
0.079960933
0.0799394
0.079918228
0.079897395
0.079876877
0.079856657
0.079836717
0.079817041
0.079797614
0.079778423
0.079759457
0.079740704
0.07972216
0.079703799
0.079685639
0.079667658
0.079649854
0.079632221
0.079614757
0.079597457
0.07958032
0.079563343
0.079546525
0.079529865
0.079513362
0.079497017
0.079480831
0.079464802
0.079448933
0.079433224
0.079417677
0.079402293
0.079387073
0.079372023
0.079357146
0.079342452
0.079327948
0.079313691
0.079299531
0.079287609
0.079278295
0.079270601
0.079264037
0.07925831
0.07925324
0.079248706
0.079244621
0.07924092
0.079237548
0.079234462
0.079231629
0.079229017
0.079226601
0.079224359
0.079222271
0.079220316
0.079218484
0.079216713
0.079215098
0.079213203
0.079211854
0.079209706
0.0094170261
0.0093963317
0.0093867892
0.0093827851
0.0093806523
0.0093792726
0.0093783046
0.0093776066
0.0093771002
0.0093767363
0.0093764826
0.0093763174
0.0093762261
0.0093761995
0.0093762333
0.0093763277
0.0093764925
0.0093767449
0.0093771583
0.0093777848
0.0093792053
0.0093820408
0.0093787905
0.012799737
0.15510622
0.035860222
0.095497917
0.091781913
0.090096922
0.088990569
0.088183298
0.087582688
0.087117824
0.08674588
0.086441219
0.086187203
0.085972208
0.085787797
0.085627783
0.085487534
0.085363524
0.085253004
0.085153807
0.085064193
0.084982755
0.084908345
0.084840011
0.084776963
0.084718536
0.084664169
0.084613385
0.084565773
0.084520983
0.08447871
0.084438691
0.084400695
0.084364519
0.084329986
0.08429694
0.084265239
0.084234763
0.0842054
0.084177054
0.084149637
0.084123071
0.084097285
0.084072215
0.084047805
0.084024002
0.08400076
0.083978037
0.083955794
0.083933997
0.083912614
0.083891616
0.083870977
0.083850675
0.083830686
0.083810993
0.083791577
0.083772421
0.083753512
0.083734835
0.08371638
0.083698134
0.083680088
0.083662239
0.083644562
0.083627075
0.083609757
0.083592607
0.083575621
0.083558796
0.083542129
0.083525618
0.083509262
0.08349306
0.083477012
0.083461118
0.083445377
0.083429793
0.083414364
0.083399091
0.083383977
0.083369022
0.083354227
0.083339595
0.083325129
0.083310836
0.083296724
0.0832828
0.083269122
0.083255539
0.0832442
0.08323544
0.083228247
0.083222133
0.083216816
0.083212119
0.083207927
0.083204156
0.083200745
0.083197641
0.083194805
0.083192203
0.083189808
0.083187594
0.083185542
0.083183634
0.083181847
0.083180175
0.083178559
0.083177088
0.083175346
0.083174118
0.08317216
0.0093775303
0.0093546482
0.0093439602
0.0093394141
0.009336971
0.0093353825
0.0093342628
0.0093334503
0.0093328556
0.0093324225
0.0093321138
0.0093319045
0.0093317773
0.0093317213
0.0093317301
0.0093318026
0.0093319463
0.0093321765
0.0093325581
0.0093331458
0.0093344381
0.0093372793
0.0093315525
0.01271618
0.15994494
0.036641153
0.09678197
0.093302219
0.091709789
0.090667969
0.089906595
0.089340344
0.088902376
0.088552134
0.088265397
0.088026465
0.087824362
0.087651104
0.087500844
0.087369202
0.087252849
0.087149189
0.087056175
0.086972166
0.086895836
0.0868261
0.086762064
0.086702982
0.086648228
0.086597273
0.086549669
0.08650503
0.086463026
0.086423371
0.086385818
0.086350149
0.086316176
0.086283731
0.086252667
0.086222855
0.086194179
0.086166535
0.086139834
0.086113994
0.086088942
0.086064611
0.086040942
0.086017882
0.085995384
0.085973404
0.085951902
0.085930844
0.085910196
0.08588993
0.085870019
0.08585044
0.085831171
0.085812191
0.085793484
0.085775033
0.085756823
0.08573884
0.085721072
0.085703509
0.085686141
0.085668959
0.085651959
0.08563512
0.08561846
0.085601958
0.085585613
0.085569424
0.085553387
0.085537501
0.085521764
0.085506175
0.085490734
0.085475441
0.085460296
0.085445301
0.085430457
0.085415764
0.085401224
0.085386837
0.085372605
0.085358529
0.085344611
0.085330855
0.085317267
0.085303856
0.085290629
0.085277642
0.085264749
0.085254068
0.085245901
0.085239231
0.085233583
0.085228685
0.085224368
0.085220521
0.085217067
0.085213946
0.08521111
0.08520852
0.085206148
0.085203967
0.085201953
0.085200088
0.085198355
0.085196734
0.085195219
0.085193753
0.085192422
0.085190833
0.085189723
0.085187948
0.0093306346
0.0093051217
0.0092930487
0.009287844
0.0092850224
0.009283179
0.0092818737
0.0092809211
0.0092802182
0.0092797001
0.0092793239
0.0092790604
0.0092788893
0.0092787973
0.009278776
0.0092788226
0.0092789421
0.0092791481
0.0092794972
0.0092800478
0.0092812141
0.009284099
0.0092756323
0.012617664
0.16168585
0.036476024
0.095964793
0.092740421
0.091252277
0.090281691
0.089571565
0.089043665
0.088635617
0.088309465
0.08804258
0.087820317
0.087632423
0.087471433
0.087331878
0.087209668
0.087101692
0.087005526
0.086919261
0.086841364
0.086770599
0.086705955
0.086646598
0.086591833
0.086541077
0.086493839
0.086449701
0.086408303
0.08636934
0.086332545
0.086297688
0.086264569
0.086233012
0.086202862
0.086173982
0.086146252
0.086119565
0.086093827
0.086068952
0.086044867
0.086021503
0.085998799
0.085976702
0.085955161
0.085934133
0.085913579
0.085893462
0.085873749
0.08585441
0.085835421
0.085816755
0.085798392
0.085780312
0.085762496
0.085744929
0.085727596
0.085710483
0.085693579
0.085676871
0.085660351
0.085644009
0.085627839
0.085611838
0.085595983
0.085580295
0.085564754
0.08554936
0.08553411
0.085519004
0.08550404
0.085489216
0.085474533
0.085459991
0.085445589
0.08543133
0.085417214
0.085403242
0.085389416
0.085375736
0.085362203
0.085348818
0.085335583
0.085322498
0.085309569
0.085296802
0.085284204
0.085271784
0.085259596
0.085247499
0.085237546
0.085230005
0.085223879
0.085218709
0.085214238
0.085210304
0.085206806
0.085203668
0.085200837
0.085198266
0.085195922
0.085193776
0.085191805
0.085189988
0.085188306
0.085186745
0.085185286
0.085183923
0.085182604
0.085181409
0.085179973
0.085178976
0.085177381
0.0092754602
0.0092468079
0.009233073
0.0092270735
0.0092237937
0.009221641
0.0092201103
0.0092189872
0.0092181525
0.0092175309
0.0092170723
0.0092167425
0.0092165179
0.0092163819
0.0092163242
0.0092163398
0.0092164313
0.0092166106
0.0092169258
0.0092174406
0.009218482
0.0092214536
0.0092099385
0.012502633
0.16027002
0.03536675
0.09304547
0.090093621
0.088719636
0.087826252
0.087172169
0.08668619
0.086310761
0.086010823
0.085765507
0.085561318
0.085388801
0.085241063
0.085113056
0.085001006
0.084902043
0.084813932
0.084734913
0.084663576
0.08459878
0.084539595
0.084485254
0.084435118
0.08438865
0.084345398
0.084304978
0.084267061
0.084231366
0.084197647
0.084165695
0.084135324
0.084106375
0.084078706
0.08405219
0.084026718
0.084002193
0.083978527
0.083955644
0.083933476
0.08391196
0.083891042
0.083870671
0.083850802
0.083831398
0.08381242
0.083793836
0.083775617
0.083757736
0.083740169
0.083722894
0.083705892
0.083689144
0.083672636
0.083656351
0.083640278
0.083624404
0.083608718
0.083593209
0.083577871
0.083562695
0.083547674
0.083532807
0.083518073
0.083503492
0.083489046
0.083474736
0.083460559
0.083446516
0.083432604
0.083418824
0.083405175
0.083391659
0.083378275
0.083365026
0.083351911
0.083338934
0.083326094
0.083313392
0.08330083
0.083288407
0.083276124
0.083263983
0.083251989
0.083240147
0.083228467
0.083216956
0.083205664
0.08319446
0.083185298
0.083178412
0.083172845
0.083168162
0.083164122
0.083160575
0.083157425
0.083154603
0.083152059
0.083149751
0.083147648
0.083145726
0.083143962
0.083142336
0.083140833
0.08313944
0.083138139
0.083136924
0.08313575
0.083134687
0.0831334
0.083132514
0.083131094
0.0092110482
0.009178674
0.0091629567
0.0091560037
0.0091521721
0.0091496462
0.0091478431
0.0091465139
0.0091455195
0.0091447723
0.0091442136
0.0091438033
0.0091435133
0.009143324
0.0091432222
0.0091432006
0.0091432593
0.0091434083
0.0091436876
0.0091441674
0.0091450841
0.0091481906
0.0091332689
0.012369441
0.15577319
0.033361473
0.088109396
0.085444222
0.084192409
0.083381265
0.082787307
0.082346286
0.082005765
0.081733841
0.081511544
0.081326615
0.081170459
0.081036802
0.080921049
0.080819769
0.08073035
0.080650763
0.080579409
0.080515004
0.080456515
0.080403098
0.080354056
0.080308808
0.080266871
0.080227832
0.080191345
0.080157111
0.080124875
0.080094416
0.080065545
0.080038093
0.080011917
0.079986887
0.079962891
0.079939829
0.079917613
0.079896166
0.079875418
0.079855307
0.079835779
0.079816782
0.079798274
0.079780213
0.079762564
0.079745295
0.079728377
0.079711782
0.079695488
0.079679472
0.079663716
0.079648202
0.079632915
0.07961784
0.079602964
0.079588276
0.079573765
0.079559421
0.079545236
0.079531203
0.079517314
0.079503564
0.079489953
0.079476461
0.079463107
0.079449876
0.079436767
0.079423781
0.079410916
0.079398173
0.079385551
0.079373051
0.079360673
0.079348418
0.079336289
0.079324286
0.07931241
0.079300662
0.079289043
0.079277552
0.079266192
0.07925496
0.07924386
0.079232895
0.079222072
0.079211399
0.079200885
0.079190575
0.079180349
0.07917203
0.079165824
0.079160827
0.079156636
0.079153029
0.079149868
0.079147065
0.079144555
0.079142296
0.079140247
0.079138381
0.079136677
0.079135114
0.079133676
0.079132348
0.079131117
0.079129969
0.079128899
0.079127864
0.079126929
0.07912579
0.079125011
0.079123761
0.0091363635
0.0090996016
0.009081532
0.0090734405
0.0090689476
0.0090659735
0.009063843
0.0090622655
0.0090610786
0.0090601796
0.0090594999
0.0090589921
0.0090586229
0.0090583688
0.0090582134
0.0090581471
0.009058167
0.0090582813
0.0090585218
0.0090589668
0.0090597576
0.0090630531
0.0090443119
0.01221637
0.14841749
0.030558415
0.081338852
0.078970463
0.077846828
0.077121789
0.076591145
0.076197449
0.075893616
0.075651099
0.075452944
0.075288189
0.07514915
0.075030207
0.074927249
0.074837202
0.074757734
0.074687026
0.074623652
0.074566463
0.074514538
0.074467122
0.074423593
0.074383433
0.074346211
0.074311559
0.074279168
0.074248772
0.074220145
0.074193088
0.074167434
0.074143034
0.074119759
0.074097494
0.07407614
0.074055608
0.07403582
0.074016707
0.073998207
0.073980268
0.073962838
0.073945875
0.073929339
0.073913194
0.07389741
0.073881957
0.073866811
0.073851948
0.073837346
0.073822988
0.073808856
0.073794935
0.073781213
0.073767675
0.073754311
0.073741112
0.073728067
0.073715168
0.073702409
0.073689781
0.073677281
0.073664903
0.073652647
0.073640497
0.07362847
0.073616551
0.073604742
0.073593044
0.073581455
0.073569976
0.073558607
0.073547349
0.073536203
0.073525169
0.07351425
0.073503447
0.073492761
0.073482191
0.07347174
0.073461405
0.073451188
0.073441088
0.073431106
0.073421247
0.073411518
0.073401926
0.073392481
0.073383224
0.073374045
0.07336661
0.073361097
0.073356675
0.073352977
0.073349802
0.073347024
0.073344563
0.073342361
0.073340381
0.073338584
0.073336949
0.073335457
0.073334091
0.073332834
0.073331674
0.073330601
0.073329602
0.073328671
0.07332777
0.073326958
0.073325964
0.073325288
0.073324202
0.0090503018
0.0090083928
0.0089875449
0.0089781001
0.008972818
0.008969308
0.0089667854
0.0089649101
0.008963492
0.0089624105
0.0089615849
0.0089609594
0.0089604944
0.0089601619
0.0089599418
0.0089598215
0.0089597952
0.0089598691
0.0089600666
0.0089604766
0.0089611386
0.0089646843
0.0089416515
0.012041661
0.13857304
0.027106101
0.073017855
0.070951234
0.069959535
0.069323027
0.06885778
0.068512953
0.068246958
0.068034748
0.067861451
0.067717453
0.067596007
0.067492175
0.067402346
0.06732382
0.067254549
0.067192939
0.067137737
0.067087937
0.06704273
0.067001457
0.066963571
0.066928621
0.066896227
0.066866069
0.066837876
0.066811416
0.066786489
0.066762925
0.066740576
0.066719313
0.066699022
0.066679605
0.066660973
0.06664305
0.066625769
0.066609069
0.066592896
0.066577205
0.066561951
0.066547098
0.06653261
0.066518458
0.066504615
0.066491055
0.066477756
0.0664647
0.066451867
0.066439241
0.066426809
0.066414557
0.066402475
0.06639055
0.066378773
0.066367137
0.066355633
0.066344254
0.066332994
0.066321847
0.06631081
0.066299877
0.06628905
0.066278314
0.066267686
0.066257152
0.066246715
0.066236375
0.066226132
0.066215987
0.06620594
0.066195993
0.066186145
0.066176399
0.066166756
0.066157217
0.066147783
0.066138454
0.06612923
0.066120111
0.066111095
0.066102183
0.066093374
0.066084675
0.066076092
0.066067634
0.066059307
0.066051151
0.066043069
0.066036544
0.066031729
0.06602788
0.06602467
0.06602192
0.066019518
0.066017393
0.06601549
0.066013781
0.066012228
0.066010816
0.066009529
0.066008351
0.066007268
0.06600627
0.066005348
0.066004491
0.066003693
0.066002922
0.066002228
0.066001375
0.066000798
0.06599987
0.0089516987
0.0089037801
0.008879664
0.0088686171
0.0088623969
0.0088582485
0.008855258
0.008853027
0.0088513323
0.0088500322
0.0088490314
0.0088482643
0.0088476839
0.0088472567
0.0088469584
0.008846773
0.0088466913
0.0088467179
0.0088468672
0.008847241
0.0088477693
0.0088516336
0.0088237746
0.011843545
0.12674523
0.023198562
0.063529043
0.06176297
0.060904437
0.060357156
0.05995806
0.059662659
0.059434904
0.059253303
0.059105099
0.058982039
0.058878326
0.058789717
0.058713105
0.058646171
0.058587157
0.058534694
0.058487707
0.058445333
0.058406879
0.058371779
0.058339566
0.058309852
0.058282312
0.058256674
0.058232704
0.058210205
0.058189006
0.05816896
0.058149944
0.058131844
0.058114566
0.058098025
0.058082145
0.058066863
0.058052119
0.058037863
0.05802405
0.05801064
0.057997597
0.057984888
0.057972484
0.05796036
0.057948494
0.057936863
0.057925451
0.057914239
0.057903212
0.057892358
0.057881665
0.057871121
0.057860717
0.057850445
0.057840295
0.057830263
0.057820339
0.05781052
0.057800799
0.057791173
0.057781638
0.057772191
0.057762833
0.057753551
0.057744361
0.057735251
0.057726225
0.057717282
0.057708423
0.05769965
0.057690962
0.057682362
0.057673849
0.057665425
0.057657092
0.057648851
0.057640701
0.057632644
0.057624678
0.057616803
0.057609017
0.057601319
0.057593711
0.057586198
0.057578787
0.057571485
0.057564302
0.057557271
0.057550308
0.0575447
0.057540577
0.057537291
0.057534557
0.05753222
0.057530183
0.05752838
0.057526766
0.057525316
0.057523997
0.057522797
0.057521705
0.057520706
0.057519789
0.057518944
0.057518165
0.057517442
0.057516771
0.057516123
0.057515541
0.057514823
0.05751434
0.057513562
0.0088393437
0.0087844391
0.008756494
0.0087435572
0.0087362259
0.0087313198
0.0087277732
0.0087251189
0.0087230945
0.0087215332
0.008720323
0.0087193861
0.0087186671
0.008718126
0.0087177334
0.0087174697
0.0087173216
0.008717292
0.0087173863
0.0087177218
0.0087181095
0.0087223689
0.0086890853
0.011620289
0.11354609
0.019064753
0.053340386
0.051866475
0.05113953
0.050680166
0.050346441
0.050099876
0.04990989
0.049758509
0.04963507
0.049532663
0.049446432
0.049372821
0.049309227
0.049253706
0.049204787
0.049161325
0.04912242
0.049087351
0.049055539
0.049026512
0.048999879
0.048975317
0.048952556
0.048931366
0.048911556
0.048892958
0.048875432
0.048858857
0.048843126
0.048828149
0.048813846
0.048800147
0.048786989
0.048774318
0.048762086
0.048750251
0.048738777
0.048727629
0.048716778
0.048706198
0.048695865
0.048685758
0.048675857
0.048666147
0.048656611
0.048647237
0.048638011
0.048628923
0.048619964
0.048611124
0.048602397
0.048593774
0.04858525
0.048576819
0.048568476
0.048560215
0.048552034
0.048543929
0.048535897
0.048527936
0.048520047
0.04851222
0.048504469
0.048496785
0.048489169
0.048481624
0.04847415
0.048466748
0.04845942
0.048452165
0.048444985
0.048437882
0.048430856
0.048423908
0.04841704
0.048410249
0.048403536
0.048396899
0.048390336
0.048383847
0.048377433
0.048371099
0.048364853
0.048358702
0.048352656
0.048346742
0.048340893
0.048336187
0.048332736
0.048329992
0.048327714
0.048325773
0.048324082
0.048322586
0.048321244
0.048320037
0.048318937
0.048317937
0.048317027
0.048316195
0.048315432
0.04831473
0.048314085
0.048313488
0.048312935
0.048312402
0.048311924
0.048311334
0.048310939
0.048310303
0.0087119982
0.008649008
0.0086165937
0.0086014356
0.0085927931
0.0085869911
0.0085827858
0.0085796294
0.0085772133
0.0085753413
0.0085738814
0.0085727418
0.0085718569
0.0085711791
0.0085706733
0.0085703152
0.0085700875
0.0085699912
0.0085700219
0.008570316
0.0085705534
0.008575293
0.0085359236
0.011370243
0.09964954
0.014951802
0.042979697
0.041782007
0.041181918
0.040806938
0.040536101
0.040336514
0.040182854
0.040060533
0.039960899
0.039878338
0.039808897
0.039749685
0.039698583
0.039654013
0.039614777
0.039579947
0.039548792
0.039520729
0.039495286
0.039472083
0.039450802
0.039431182
0.039413004
0.039396084
0.039380266
0.039365415
0.039351417
0.039338176
0.039325605
0.039313631
0.039302191
0.039291227
0.039280689
0.039270534
0.039260724
0.039251225
0.039242006
0.039233043
0.03922431
0.039215788
0.039207456
0.039199298
0.0391913
0.039183448
0.03917573
0.039168135
0.039160654
0.039153278
0.039145999
0.039138812
0.03913171
0.039124687
0.03911774
0.039110863
0.039104053
0.039097306
0.039090619
0.03908399
0.039077417
0.039070899
0.039064436
0.039058022
0.039051667
0.039045366
0.03903912
0.03903293
0.039026799
0.039020726
0.039014714
0.039008762
0.039002872
0.038997046
0.038991284
0.038985586