/*--------------------------------*- C++ -*----------------------------------*\
| =========                 |                                                 |
| \\      /  F ield         | OpenFOAM: The Open Source CFD Toolbox           |
|  \\    /   O peration     | Version:  2206                                  |
|   \\  /    A nd           | Website:  www.openfoam.com                      |
|    \\/     M anipulation  |                                                 |
\*---------------------------------------------------------------------------*/
FoamFile
{
    version     2.0;
    format      ascii;
    arch        "LSB;label=32;scalar=64";
    class       volScalarField;
    location    "400";
    object      k;
}
// * * * * * * * * * * * * * * * * * * * * * * * * * * * * * * * * * * * * * //

dimensions      [0 2 -2 0 0 0 0];

internalField   nonuniform List<scalar> 
13056
(
0.00014511959
0.00014395717
0.00014363573
0.00014350821
0.00014343722
0.00014339079
0.00014335833
0.00014333492
0.00014331779
0.00014330522
0.00014329606
0.00014328955
0.00014328513
0.00014328239
0.00014328103
0.00014328081
0.00014328152
0.00014328305
0.00014328509
0.00014328821
0.00014328903
0.00014330731
0.00014321244
0.00014364409
2.1052844e-05
5.2328475e-06
1.6223035e-05
1.4079661e-05
1.3359428e-05
1.2751751e-05
1.2312189e-05
1.1980121e-05
1.1718264e-05
1.1505682e-05
1.1329258e-05
1.1180237e-05
1.1052543e-05
1.0941784e-05
1.08447e-05
1.0758826e-05
1.0682262e-05
1.0613518e-05
1.0551407e-05
1.0494967e-05
1.0443418e-05
1.0396112e-05
1.0352513e-05
1.031217e-05
1.0274701e-05
1.0239781e-05
1.0207132e-05
1.0176514e-05
1.0147718e-05
1.0120564e-05
1.0094892e-05
1.0070564e-05
1.0047455e-05
1.0025457e-05
1.0004472e-05
9.9844144e-06
9.9652059e-06
9.9467772e-06
9.9290657e-06
9.9120148e-06
9.8955734e-06
9.879695e-06
9.8643376e-06
9.8494626e-06
9.8350352e-06
9.8210232e-06
9.8073973e-06
9.7941306e-06
9.7811985e-06
9.7685782e-06
9.7562489e-06
9.7441913e-06
9.7323873e-06
9.720821e-06
9.7094769e-06
9.6983409e-06
9.6874001e-06
9.6766423e-06
9.6660564e-06
9.655632e-06
9.6453595e-06
9.63523e-06
9.6252359e-06
9.6153669e-06
9.6056197e-06
9.5959856e-06
9.5864587e-06
9.5770336e-06
9.5677049e-06
9.5584681e-06
9.5493185e-06
9.5402524e-06
9.531266e-06
9.522356e-06
9.5135194e-06
9.5047535e-06
9.4960558e-06
9.4874243e-06
9.4788571e-06
9.4703526e-06
9.4619097e-06
9.4535274e-06
9.445205e-06
9.4369424e-06
9.42874e-06
9.4205996e-06
9.4125223e-06
9.4045303e-06
9.3965721e-06
9.389264e-06
9.3829252e-06
9.3773882e-06
9.3724847e-06
9.3680894e-06
9.3641131e-06
9.3604919e-06
9.3571772e-06
9.3541297e-06
9.3513172e-06
9.3487127e-06
9.3462934e-06
9.3440398e-06
9.3419346e-06
9.3399624e-06
9.3381099e-06
9.3363614e-06
9.3347107e-06
9.333116e-06
9.3316375e-06
9.3300117e-06
9.3287691e-06
9.3268077e-06
0.00014510366
0.00014393378
0.00014360985
0.00014348118
0.00014340952
0.00014336263
0.00014332983
0.00014330617
0.00014328885
0.00014327613
0.00014326686
0.00014326025
0.00014325575
0.00014325295
0.00014325154
0.00014325128
0.00014325197
0.00014325347
0.00014325549
0.0001432586
0.00014325939
0.00014327779
0.00014318218
0.00014361881
2.2528692e-05
5.5868495e-06
1.7600896e-05
1.558639e-05
1.4845515e-05
1.4259577e-05
1.3834377e-05
1.3513004e-05
1.3259571e-05
1.3053823e-05
1.2883096e-05
1.2738981e-05
1.2615561e-05
1.2508541e-05
1.2414758e-05
1.2331826e-05
1.2257907e-05
1.2191558e-05
1.2131628e-05
1.2077186e-05
1.2027474e-05
1.1981865e-05
1.1939839e-05
1.1900959e-05
1.1864853e-05
1.1831209e-05
1.1799755e-05
1.1770259e-05
1.1742519e-05
1.171636e-05
1.1691628e-05
1.1668189e-05
1.1645922e-05
1.1624723e-05
1.1604497e-05
1.158516e-05
1.1566639e-05
1.1548864e-05
1.1531777e-05
1.1515322e-05
1.149945e-05
1.1484117e-05
1.1469281e-05
1.1454907e-05
1.1440959e-05
1.1427408e-05
1.1414225e-05
1.1401384e-05
1.1388862e-05
1.1376637e-05
1.1364689e-05
1.1352999e-05
1.1341551e-05
1.1330328e-05
1.1319316e-05
1.1308503e-05
1.1297874e-05
1.128742e-05
1.1277129e-05
1.1266991e-05
1.1256998e-05
1.1247141e-05
1.1237413e-05
1.1227803e-05
1.121831e-05
1.1208925e-05
1.1199643e-05
1.1190457e-05
1.1181365e-05
1.117236e-05
1.116344e-05
1.1154601e-05
1.1145838e-05
1.113715e-05
1.1128534e-05
1.1119987e-05
1.1111507e-05
1.1103093e-05
1.1094742e-05
1.1086454e-05
1.1078228e-05
1.1070063e-05
1.1061958e-05
1.1053913e-05
1.1045931e-05
1.1038011e-05
1.1030156e-05
1.1022389e-05
1.1014656e-05
1.1007601e-05
1.1001531e-05
1.0996255e-05
1.0991598e-05
1.0987435e-05
1.0983677e-05
1.0980261e-05
1.0977139e-05
1.0974272e-05
1.0971631e-05
1.0969187e-05
1.0966921e-05
1.0964811e-05
1.0962843e-05
1.0961001e-05
1.0959272e-05
1.0957641e-05
1.0956103e-05
1.0954618e-05
1.0953243e-05
1.0951722e-05
1.0950567e-05
1.0948745e-05
0.00014505267
0.00014386003
0.00014352848
0.00014339634
0.0001433226
0.00014327431
0.0001432405
0.00014321608
0.00014319818
0.000143185
0.00014317536
0.00014316847
0.00014316373
0.00014316075
0.00014315919
0.00014315881
0.0001431594
0.00014316082
0.00014316279
0.00014316586
0.00014316657
0.00014318534
0.00014308747
0.00014353828
2.3968273e-05
5.8894759e-06
1.8779118e-05
1.6893512e-05
1.6151929e-05
1.5592746e-05
1.5185901e-05
1.487838e-05
1.4635933e-05
1.4439155e-05
1.4275929e-05
1.4138283e-05
1.4020491e-05
1.3918392e-05
1.382895e-05
1.3749881e-05
1.3679432e-05
1.361622e-05
1.3559144e-05
1.3507313e-05
1.3459999e-05
1.3416603e-05
1.3376626e-05
1.3339648e-05
1.3305317e-05
1.327333e-05
1.3243428e-05
1.3215391e-05
1.3189023e-05
1.3164159e-05
1.314065e-05
1.3118368e-05
1.3097198e-05
1.3077041e-05
1.3057806e-05
1.3039413e-05
1.3021792e-05
1.3004877e-05
1.2988611e-05
1.2972943e-05
1.2957826e-05
1.2943216e-05
1.2929076e-05
1.291537e-05
1.2902067e-05
1.2889136e-05
1.2876552e-05
1.2864289e-05
1.2852326e-05
1.2840642e-05
1.2829217e-05
1.2818035e-05
1.280708e-05
1.2796337e-05
1.2785791e-05
1.2775431e-05
1.2765245e-05
1.2755222e-05
1.2745352e-05
1.2735626e-05
1.2726036e-05
1.2716573e-05
1.2707232e-05
1.2698001e-05
1.2688881e-05
1.2679863e-05
1.2670941e-05
1.2662111e-05
1.265337e-05
1.2644712e-05
1.2636134e-05
1.2627633e-05
1.2619207e-05
1.2610852e-05
1.2602566e-05
1.2594347e-05
1.2586194e-05
1.2578104e-05
1.2570078e-05
1.2562113e-05
1.2554208e-05
1.2546365e-05
1.2538581e-05
1.2530859e-05
1.2523197e-05
1.25156e-05
1.2508068e-05
1.2500625e-05
1.2493215e-05
1.24865e-05
1.248077e-05
1.2475814e-05
1.2471455e-05
1.2467568e-05
1.2464067e-05
1.246089e-05
1.2457991e-05
1.2455334e-05
1.2452888e-05
1.2450628e-05
1.2448534e-05
1.2446588e-05
1.2444773e-05
1.2443077e-05
1.2441486e-05
1.2439987e-05
1.2438575e-05
1.243721e-05
1.2435949e-05
1.2434547e-05
1.2433489e-05
1.2431818e-05
0.00014496502
0.0001437335
0.00014338892
0.00014325081
0.00014317353
0.00014312283
0.00014308728
0.00014306156
0.00014304265
0.00014302869
0.00014301843
0.00014301104
0.00014300591
0.0001430026
0.00014300078
0.00014300019
0.00014300061
0.00014300191
0.00014300377
0.0001430068
0.00014300736
0.00014302676
0.00014292502
0.00014339979
2.5329681e-05
6.13028e-06
1.9726468e-05
1.7969498e-05
1.7243426e-05
1.6714896e-05
1.6329531e-05
1.6038318e-05
1.5808839e-05
1.5622667e-05
1.5468317e-05
1.5338336e-05
1.5227204e-05
1.5130918e-05
1.5046588e-05
1.4972064e-05
1.4905691e-05
1.484616e-05
1.4792429e-05
1.4743653e-05
1.4699143e-05
1.4658331e-05
1.4620744e-05
1.4585986e-05
1.455372e-05
1.4523663e-05
1.4495569e-05
1.4469228e-05
1.4444456e-05
1.4421097e-05
1.439901e-05
1.4378075e-05
1.4358183e-05
1.4339239e-05
1.4321159e-05
1.4303866e-05
1.4287295e-05
1.4271385e-05
1.4256081e-05
1.4241335e-05
1.4227102e-05
1.4213342e-05
1.420002e-05
1.4187102e-05
1.4174559e-05
1.4162362e-05
1.4150488e-05
1.4138912e-05
1.4127614e-05
1.4116575e-05
1.4105777e-05
1.4095205e-05
1.4084842e-05
1.4074675e-05
1.4064692e-05
1.4054882e-05
1.4045232e-05
1.4035733e-05
1.4026376e-05
1.4017153e-05
1.4008056e-05
1.3999077e-05
1.3990211e-05
1.3981448e-05
1.3972788e-05
1.3964223e-05
1.3955748e-05
1.3947359e-05
1.3939053e-05
1.3930826e-05
1.3922674e-05
1.3914595e-05
1.3906587e-05
1.3898646e-05
1.3890772e-05
1.3882962e-05
1.3875216e-05
1.3867531e-05
1.3859907e-05
1.3852343e-05
1.3844839e-05
1.3837394e-05
1.3830008e-05
1.3822682e-05
1.3815417e-05
1.3808216e-05
1.380108e-05
1.3794032e-05
1.3787017e-05
1.3780703e-05
1.3775359e-05
1.3770761e-05
1.376673e-05
1.3763146e-05
1.3759924e-05
1.3757005e-05
1.3754346e-05
1.3751912e-05
1.3749675e-05
1.3747611e-05
1.37457e-05
1.3743926e-05
1.3742273e-05
1.374073e-05
1.3739284e-05
1.3737923e-05
1.3736641e-05
1.3735402e-05
1.373426e-05
1.3732983e-05
1.3732024e-05
1.3730512e-05
0.00014483823
0.00014355037
0.00014318687
0.00014304009
0.00014295765
0.00014290345
0.00014286537
0.00014283774
0.00014281737
0.00014280226
0.0001427911
0.00014278298
0.00014277727
0.00014277349
0.00014277129
0.0001427704
0.00014277058
0.00014277168
0.00014277338
0.00014277634
0.00014277667
0.00014279699
0.00014268965
0.00014319904
2.6566025e-05
6.2986966e-06
2.0413138e-05
1.8784675e-05
1.8086906e-05
1.7592037e-05
1.7230586e-05
1.6957576e-05
1.6742581e-05
1.656826e-05
1.6423825e-05
1.6302421e-05
1.6198731e-05
1.6108919e-05
1.6030265e-05
1.596078e-05
1.589892e-05
1.584346e-05
1.5793424e-05
1.5748018e-05
1.5706598e-05
1.5668631e-05
1.5633674e-05
1.5601354e-05
1.5571359e-05
1.5543419e-05
1.5517308e-05
1.5492827e-05
1.5469806e-05
1.5448097e-05
1.5427569e-05
1.540811e-05
1.5389618e-05
1.5372005e-05
1.5355191e-05
1.5339107e-05
1.532369e-05
1.5308883e-05
1.5294637e-05
1.5280905e-05
1.5267646e-05
1.5254825e-05
1.5242406e-05
1.5230359e-05
1.5218657e-05
1.5207273e-05
1.5196186e-05
1.5185373e-05
1.5174816e-05
1.5164496e-05
1.5154397e-05
1.5144505e-05
1.5134806e-05
1.5125286e-05
1.5115935e-05
1.5106741e-05
1.5097696e-05
1.5088789e-05
1.5080012e-05
1.5071357e-05
1.5062818e-05
1.5054389e-05
1.5046063e-05
1.5037832e-05
1.5029696e-05
1.5021647e-05
1.5013682e-05
1.5005797e-05
1.4997988e-05
1.4990253e-05
1.4982589e-05
1.4974994e-05
1.4967464e-05
1.4959999e-05
1.4952597e-05
1.4945255e-05
1.4937975e-05
1.4930753e-05
1.492359e-05
1.4916485e-05
1.4909438e-05
1.4902448e-05
1.4895516e-05
1.4888642e-05
1.4881827e-05
1.4875076e-05
1.4868388e-05
1.4861786e-05
1.4855218e-05
1.4849345e-05
1.4844418e-05
1.4840199e-05
1.4836514e-05
1.4833245e-05
1.4830312e-05
1.4827661e-05
1.4825249e-05
1.4823044e-05
1.4821021e-05
1.4819156e-05
1.4817431e-05
1.4815832e-05
1.4814344e-05
1.4812955e-05
1.4811655e-05
1.4810432e-05
1.4809282e-05
1.480817e-05
1.4807147e-05
1.4805996e-05
1.4805137e-05
1.4803783e-05
0.00014466894
0.00014330548
0.00014291653
0.00014275806
0.00014266865
0.00014260972
0.00014256821
0.00014253801
0.00014251566
0.000142499
0.00014248661
0.00014247751
0.000142471
0.00014246658
0.00014246387
0.00014246256
0.0001424624
0.00014246324
0.00014246473
0.00014246758
0.00014246761
0.00014248916
0.00014237427
0.00014293019
2.7626956e-05
6.384483e-06
2.0811566e-05
1.9311676e-05
1.8651971e-05
1.8193026e-05
1.7857345e-05
1.7603972e-05
1.7404595e-05
1.7243047e-05
1.7109289e-05
1.699715e-05
1.6901482e-05
1.6818617e-05
1.674603e-05
1.6681925e-05
1.6624879e-05
1.6573757e-05
1.6527652e-05
1.648583e-05
1.6447691e-05
1.6412743e-05
1.6380573e-05
1.6350836e-05
1.6323243e-05
1.6297545e-05
1.627353e-05
1.6251016e-05
1.6229844e-05
1.6209878e-05
1.6190997e-05
1.6173097e-05
1.6156085e-05
1.6139877e-05
1.6124403e-05
1.6109596e-05
1.6095399e-05
1.608176e-05
1.6068633e-05
1.6055976e-05
1.6043751e-05
1.6031924e-05
1.6020464e-05
1.6009343e-05
1.5998536e-05
1.5988019e-05
1.5977771e-05
1.5967772e-05
1.5958006e-05
1.5948455e-05
1.5939105e-05
1.5929942e-05
1.5920954e-05
1.591213e-05
1.5903458e-05
1.5894931e-05
1.5886537e-05
1.5878269e-05
1.5870119e-05
1.586208e-05
1.5854147e-05
1.5846313e-05
1.5838574e-05
1.5830921e-05
1.5823355e-05
1.5815869e-05
1.580846e-05
1.5801124e-05
1.5793858e-05
1.5786662e-05
1.5779531e-05
1.5772463e-05
1.5765458e-05
1.5758512e-05
1.5751625e-05
1.5744796e-05
1.5738024e-05
1.5731309e-05
1.572465e-05
1.5718046e-05
1.5711497e-05
1.5705003e-05
1.5698565e-05
1.5692183e-05
1.5685858e-05
1.5679594e-05
1.5673392e-05
1.5667274e-05
1.5661188e-05
1.5655785e-05
1.565129e-05
1.564746e-05
1.5644127e-05
1.5641178e-05
1.5638538e-05
1.5636155e-05
1.5633991e-05
1.5632015e-05
1.5630204e-05
1.5628537e-05
1.5626997e-05
1.5625571e-05
1.5624245e-05
1.5623009e-05
1.5621853e-05
1.5620766e-05
1.5619744e-05
1.5618757e-05
1.561785e-05
1.5616823e-05
1.5616062e-05
1.5614862e-05
0.00014445298
0.00014299231
0.00014257055
0.00014239696
0.00014229854
0.00014223348
0.00014218752
0.00014215398
0.00014212907
0.00014211039
0.00014209641
0.00014208602
0.00014207848
0.00014207323
0.00014206984
0.00014206798
0.00014206738
0.00014206787
0.00014206908
0.00014207178
0.00014207141
0.00014209454
0.00014196994
0.00014258586
2.8460817e-05
6.3784046e-06
2.089719e-05
1.9526791e-05
1.8912292e-05
1.8490883e-05
1.8182321e-05
1.7949618e-05
1.7766663e-05
1.7618535e-05
1.7495981e-05
1.7393605e-05
1.7306375e-05
1.7230757e-05
1.7164479e-05
1.7105967e-05
1.7053921e-05
1.7007298e-05
1.6965269e-05
1.6927157e-05
1.6892413e-05
1.6860583e-05
1.6831292e-05
1.6804221e-05
1.6779106e-05
1.6755717e-05
1.6733862e-05
1.6713373e-05
1.6694106e-05
1.6675934e-05
1.6658749e-05
1.6642453e-05
1.6626963e-05
1.6612204e-05
1.6598108e-05
1.6584616e-05
1.6571677e-05
1.6559242e-05
1.6547269e-05
1.6535721e-05
1.6524563e-05
1.6513764e-05
1.6503295e-05
1.6493132e-05
1.6483252e-05
1.6473632e-05
1.6464255e-05
1.6455101e-05
1.6446157e-05
1.6437406e-05
1.6428835e-05
1.6420433e-05
1.6412187e-05
1.6404088e-05
1.639613e-05
1.63883e-05
1.6380591e-05
1.6372995e-05
1.6365505e-05
1.6358115e-05
1.635082e-05
1.6343616e-05
1.6336497e-05
1.6329456e-05
1.6322493e-05
1.6315603e-05
1.6308783e-05
1.6302029e-05
1.629534e-05
1.6288715e-05
1.628215e-05
1.6275643e-05
1.6269193e-05
1.6262799e-05
1.625646e-05
1.6250176e-05
1.6243944e-05
1.6237766e-05
1.6231642e-05
1.6225569e-05
1.6219549e-05
1.6213581e-05
1.6207665e-05
1.6201803e-05
1.6195996e-05
1.6190247e-05
1.6184557e-05
1.6178948e-05
1.6173369e-05
1.6168451e-05
1.6164396e-05
1.6160958e-05
1.6157976e-05
1.6155344e-05
1.6152993e-05
1.6150875e-05
1.6148954e-05
1.6147203e-05
1.61456e-05
1.6144126e-05
1.6142766e-05
1.6141507e-05
1.6140339e-05
1.613925e-05
1.6138233e-05
1.6137278e-05
1.613638e-05
1.6135513e-05
1.6134718e-05
1.6133812e-05
1.6133145e-05
1.6132092e-05
0.00014418535
0.00014260307
0.00014214012
0.0001419475
0.00014183769
0.00014176488
0.00014171332
0.00014167556
0.00014164738
0.00014162616
0.00014161015
0.00014159814
0.00014158928
0.00014158296
0.00014157871
0.00014157615
0.00014157498
0.00014157502
0.00014157586
0.00014157837
0.00014157748
0.00014160259
0.0001414658
0.00014215715
2.9017786e-05
6.2731463e-06
2.065293e-05
1.9412057e-05
1.884768e-05
1.846482e-05
1.8184267e-05
1.79729e-05
1.7806875e-05
1.7672566e-05
1.7561536e-05
1.7468753e-05
1.7389773e-05
1.7321435e-05
1.7261614e-05
1.7208834e-05
1.7161911e-05
1.7119901e-05
1.7082047e-05
1.7047736e-05
1.7016468e-05
1.6987834e-05
1.696149e-05
1.6937149e-05
1.691457e-05
1.6893547e-05
1.6873903e-05
1.6855488e-05
1.6838171e-05
1.6821837e-05
1.6806389e-05
1.6791739e-05
1.677781e-05
1.6764535e-05
1.6751854e-05
1.6739714e-05
1.6728066e-05
1.6716869e-05
1.6706085e-05
1.6695678e-05
1.668562e-05
1.6675881e-05
1.6666436e-05
1.6657263e-05
1.6648341e-05
1.6639651e-05
1.6631175e-05
1.6622899e-05
1.6614807e-05
1.6606888e-05
1.6599128e-05
1.6591518e-05
1.6584046e-05
1.6576704e-05
1.6569485e-05
1.656238e-05
1.6555382e-05
1.6548483e-05
1.6541679e-05
1.6534964e-05
1.6528333e-05
1.6521783e-05
1.6515309e-05
1.6508904e-05
1.6502569e-05
1.6496299e-05
1.6490092e-05
1.6483946e-05
1.6477858e-05
1.6471827e-05
1.6465851e-05
1.6459929e-05
1.6454058e-05
1.6448239e-05
1.6442471e-05
1.6436753e-05
1.6431085e-05
1.6425467e-05
1.6419898e-05
1.6414378e-05
1.6408907e-05
1.6403485e-05
1.6398111e-05
1.6392788e-05
1.6387518e-05
1.6382301e-05
1.6377141e-05
1.6372057e-05
1.6367002e-05
1.6362577e-05
1.635896e-05
1.635591e-05
1.6353273e-05
1.6350952e-05
1.6348883e-05
1.6347022e-05
1.6345336e-05
1.6343803e-05
1.63424e-05
1.6341112e-05
1.6339925e-05
1.6338827e-05
1.6337809e-05
1.6336862e-05
1.6335977e-05
1.6335147e-05
1.6334368e-05
1.6333615e-05
1.6332925e-05
1.6332135e-05
1.6331557e-05
1.6330645e-05
0.00014386034
0.00014212868
0.00014161494
0.00014139875
0.00014127484
0.00014119242
0.00014113387
0.00014109086
0.00014105864
0.00014103424
0.0001410157
0.00014100166
0.00014099117
0.00014098351
0.00014097817
0.00014097472
0.00014097283
0.00014097231
0.00014097267
0.00014097492
0.00014097338
0.00014100091
0.00014084912
0.00014163368
2.9253895e-05
6.064387e-06
2.0069917e-05
1.8957878e-05
1.8446655e-05
1.8102789e-05
1.7850695e-05
1.7660987e-05
1.7512124e-05
1.7391804e-05
1.7292423e-05
1.7209358e-05
1.7138717e-05
1.7077684e-05
1.7024332e-05
1.6977292e-05
1.6935498e-05
1.6898099e-05
1.6864418e-05
1.6833902e-05
1.6806103e-05
1.6780654e-05
1.6757247e-05
1.6735625e-05
1.6715571e-05
1.6696901e-05
1.6679457e-05
1.6663105e-05
1.6647727e-05
1.6633221e-05
1.66195e-05
1.6606486e-05
1.659411e-05
1.6582312e-05
1.6571039e-05
1.6560243e-05
1.6549882e-05
1.6539918e-05
1.6530318e-05
1.652105e-05
1.6512088e-05
1.6503407e-05
1.6494985e-05
1.6486801e-05
1.6478838e-05
1.6471078e-05
1.6463506e-05
1.6456109e-05
1.6448874e-05
1.6441789e-05
1.6434844e-05
1.642803e-05
1.6421337e-05
1.6414758e-05
1.6408285e-05
1.6401913e-05
1.6395633e-05
1.6389442e-05
1.6383332e-05
1.6377304e-05
1.637135e-05
1.6365466e-05
1.6359649e-05
1.6353893e-05
1.6348199e-05
1.6342562e-05
1.6336981e-05
1.6331456e-05
1.6325982e-05
1.632056e-05
1.6315187e-05
1.6309862e-05
1.6304584e-05
1.6299353e-05
1.6294168e-05
1.628903e-05
1.6283938e-05
1.6278892e-05
1.6273891e-05
1.6268935e-05
1.6264024e-05
1.6259158e-05
1.6254337e-05
1.6249563e-05
1.6244837e-05
1.6240162e-05
1.623554e-05
1.6230989e-05
1.6226464e-05
1.622253e-05
1.6219344e-05
1.621667e-05
1.6214368e-05
1.6212346e-05
1.6210547e-05
1.6208933e-05
1.6207472e-05
1.6206146e-05
1.6204933e-05
1.6203821e-05
1.6202798e-05
1.6201852e-05
1.6200976e-05
1.6200162e-05
1.6199402e-05
1.619869e-05
1.6198021e-05
1.6197376e-05
1.6196785e-05
1.6196104e-05
1.619561e-05
1.6194829e-05
0.00014347154
0.00014155882
0.00014098325
0.00014073827
0.00014059708
0.00014050288
0.00014043578
0.00014038632
0.00014034912
0.00014032081
0.00014029915
0.00014028261
0.00014027008
0.00014026077
0.00014025408
0.00014024953
0.00014024674
0.00014024549
0.00014024526
0.00014024718
0.00014024481
0.00014027528
0.00014010525
0.00014100353
2.913562e-05
5.7519337e-06
1.9150666e-05
1.8165849e-05
1.770922e-05
1.7404236e-05
1.7180624e-05
1.7012568e-05
1.6880833e-05
1.6774455e-05
1.668667e-05
1.6613293e-05
1.6550948e-05
1.649715e-05
1.6450185e-05
1.640881e-05
1.6372074e-05
1.6339219e-05
1.6309645e-05
1.6282863e-05
1.6258475e-05
1.6236156e-05
1.6215633e-05
1.6196679e-05
1.6179103e-05
1.6162741e-05
1.6147456e-05
1.6133126e-05
1.6119649e-05
1.6106936e-05
1.6094908e-05
1.6083498e-05
1.6072645e-05
1.6062296e-05
1.6052404e-05
1.6042928e-05
1.603383e-05
1.6025077e-05
1.601664e-05
1.6008492e-05
1.600061e-05
1.5992971e-05
1.5985556e-05
1.5978347e-05
1.5971329e-05
1.5964488e-05
1.5957808e-05
1.595128e-05
1.5944891e-05
1.5938633e-05
1.5932495e-05
1.592647e-05
1.592055e-05
1.5914728e-05
1.5908998e-05
1.5903354e-05
1.589779e-05
1.5892303e-05
1.5886886e-05
1.5881538e-05
1.5876254e-05
1.587103e-05
1.5865865e-05
1.5860752e-05
1.5855694e-05
1.5850686e-05
1.5845727e-05
1.5840816e-05
1.5835951e-05
1.5831131e-05
1.5826355e-05
1.5821623e-05
1.5816932e-05
1.5812284e-05
1.5807678e-05
1.5803114e-05
1.5798592e-05
1.5794111e-05
1.5789672e-05
1.5785273e-05
1.5780916e-05
1.5776599e-05
1.5772324e-05
1.5768091e-05
1.5763902e-05
1.575976e-05
1.5755667e-05
1.5751638e-05
1.5747634e-05
1.5744177e-05
1.5741401e-05
1.5739084e-05
1.5737095e-05
1.5735353e-05
1.5733807e-05
1.5732421e-05
1.573117e-05
1.5730034e-05
1.5728998e-05
1.5728048e-05
1.5727174e-05
1.5726369e-05
1.5725623e-05
1.572493e-05
1.5724284e-05
1.5723679e-05
1.5723112e-05
1.5722565e-05
1.5722065e-05
1.5721484e-05
1.5721066e-05
1.5720404e-05
0.00014301191
0.00014088195
0.00014023189
0.00013995206
0.00013978992
0.0001396814
0.00013960389
0.00013954659
0.00013950333
0.00013947025
0.00013944479
0.00013942518
0.00013941017
0.00013939883
0.00013939047
0.00013938456
0.00013938065
0.00013937851
0.00013937752
0.00013937901
0.00013937562
0.00013940961
0.00013921763
0.00014025336
2.8644548e-05
5.3407685e-06
1.7911823e-05
1.7051422e-05
1.6649471e-05
1.638271e-05
1.6187184e-05
1.6040449e-05
1.5925554e-05
1.5832864e-05
1.5756446e-05
1.569258e-05
1.5638364e-05
1.5591633e-05
1.5550889e-05
1.5515026e-05
1.5483206e-05
1.5454766e-05
1.542918e-05
1.5406019e-05
1.5384938e-05
1.5365651e-05
1.5347921e-05
1.533155e-05
1.5316372e-05
1.5302243e-05
1.5289044e-05
1.527667e-05
1.5265032e-05
1.5254052e-05
1.5243662e-05
1.5233803e-05
1.5224423e-05
1.5215477e-05
1.5206922e-05
1.5198724e-05
1.5190849e-05
1.5183271e-05
1.5175962e-05
1.51689e-05
1.5162065e-05
1.5155438e-05
1.5149002e-05
1.5142742e-05
1.5136644e-05
1.5130697e-05
1.5124887e-05
1.5119206e-05
1.5113644e-05
1.5108192e-05
1.5102843e-05
1.5097589e-05
1.5092425e-05
1.5087345e-05
1.5082342e-05
1.5077412e-05
1.5072551e-05
1.5067755e-05
1.5063019e-05
1.5058341e-05
1.5053717e-05
1.5049145e-05
1.5044623e-05
1.5040145e-05
1.5035715e-05
1.5031328e-05
1.5026984e-05
1.5022681e-05
1.5018418e-05
1.5014195e-05
1.5010011e-05
1.5005865e-05
1.5001756e-05
1.4997685e-05
1.4993651e-05
1.4989656e-05
1.4985697e-05
1.4981776e-05
1.4977892e-05
1.4974044e-05
1.4970233e-05
1.4966459e-05
1.4962722e-05
1.4959023e-05
1.4955363e-05
1.4951746e-05
1.4948173e-05
1.4944658e-05
1.4941165e-05
1.4938171e-05
1.4935787e-05
1.4933807e-05
1.4932113e-05
1.4930634e-05
1.4929324e-05
1.4928152e-05
1.4927094e-05
1.4926136e-05
1.4925262e-05
1.4924462e-05
1.4923727e-05
1.492305e-05
1.4922424e-05
1.4921842e-05
1.4921301e-05
1.4920795e-05
1.4920321e-05
1.4919863e-05
1.4919445e-05
1.4918957e-05
1.4918608e-05
1.4918055e-05
0.00014247383
0.00014008538
0.00013934627
0.0001390246
0.00013883723
0.00013871147
0.00013862141
0.00013855463
0.00013850405
0.0001384652
0.00013843513
0.0001384118
0.00013839376
0.00013837994
0.00013836955
0.00013836197
0.00013835669
0.00013835343
0.0001383515
0.00013835245
0.0001383478
0.00013838596
0.00013816779
0.00013936832
2.7781501e-05
4.8418281e-06
1.6386171e-05
1.5645979e-05
1.5297626e-05
1.5067893e-05
1.4899645e-05
1.4773586e-05
1.4674994e-05
1.4595538e-05
1.4530097e-05
1.4475421e-05
1.4429049e-05
1.4389122e-05
1.4354351e-05
1.4323774e-05
1.4296666e-05
1.4272452e-05
1.425068e-05
1.4230982e-05
1.421306e-05
1.4196669e-05
1.4181606e-05
1.41677e-05
1.4154808e-05
1.4142809e-05
1.41316e-05
1.4121092e-05
1.4111206e-05
1.4101878e-05
1.409305e-05
1.4084672e-05
1.4076697e-05
1.4069089e-05
1.4061811e-05
1.4054833e-05
1.4048128e-05
1.4041671e-05
1.4035442e-05
1.4029419e-05
1.4023587e-05
1.401793e-05
1.4012432e-05
1.4007082e-05
1.4001867e-05
1.3996778e-05
1.3991805e-05
1.3986938e-05
1.3982171e-05
1.3977497e-05
1.3972907e-05
1.3968398e-05
1.3963963e-05
1.3959598e-05
1.3955298e-05
1.3951059e-05
1.3946877e-05
1.394275e-05
1.3938672e-05
1.3934643e-05
1.393066e-05
1.392672e-05
1.3922822e-05
1.3918961e-05
1.3915142e-05
1.3911358e-05
1.3907611e-05
1.39039e-05
1.3900223e-05
1.389658e-05
1.3892971e-05
1.3889395e-05
1.3885853e-05
1.3882343e-05
1.3878867e-05
1.3875424e-05
1.3872014e-05
1.3868636e-05
1.3865292e-05
1.386198e-05
1.38587e-05
1.3855452e-05
1.3852237e-05
1.3849055e-05
1.3845908e-05
1.3842799e-05
1.3839729e-05
1.3836711e-05
1.3833713e-05
1.383116e-05
1.3829144e-05
1.3827478e-05
1.3826059e-05
1.3824823e-05
1.382373e-05
1.3822754e-05
1.3821874e-05
1.3821078e-05
1.3820352e-05
1.3819689e-05
1.381908e-05
1.3818519e-05
1.3818001e-05
1.3817521e-05
1.3817075e-05
1.3816657e-05
1.3816267e-05
1.381589e-05
1.3815546e-05
1.3815143e-05
1.3814856e-05
1.3814401e-05
0.00014184924
0.00013915534
0.00013831049
0.0001379389
0.00013772138
0.00013757497
0.00013746986
0.00013739172
0.00013733234
0.00013728655
0.00013725093
0.00013722311
0.00013720142
0.0001371846
0.00013717174
0.00013716212
0.00013715515
0.00013715052
0.00013714743
0.00013714769
0.0001371415
0.00013718458
0.0001369354
0.00013833217
2.6569418e-05
4.2723173e-06
1.4623571e-05
1.3997847e-05
1.3701013e-05
1.3506593e-05
1.3364413e-05
1.3258081e-05
1.317502e-05
1.3108155e-05
1.3053142e-05
1.3007204e-05
1.2968277e-05
1.2934799e-05
1.2905676e-05
1.2880092e-05
1.2857428e-05
1.2837199e-05
1.2819021e-05
1.2802582e-05
1.2787633e-05
1.2773965e-05
1.2761408e-05
1.2749819e-05
1.2739076e-05
1.2729078e-05
1.2719738e-05
1.2710981e-05
1.2702742e-05
1.2694967e-05
1.2687606e-05
1.2680618e-05
1.2673965e-05
1.2667615e-05
1.2661538e-05
1.2655708e-05
1.2650104e-05
1.2644705e-05
1.2639492e-05
1.263445e-05
1.2629565e-05
1.2624822e-05
1.2620211e-05
1.2615721e-05
1.2611342e-05
1.2607065e-05
1.2602883e-05
1.2598789e-05
1.2594776e-05
1.2590838e-05
1.2586971e-05
1.2583168e-05
1.2579427e-05
1.2575742e-05
1.257211e-05
1.2568529e-05
1.2564994e-05
1.2561504e-05
1.2558054e-05
1.2554645e-05
1.2551272e-05
1.2547936e-05
1.2544634e-05
1.2541363e-05
1.2538126e-05
1.253492e-05
1.2531744e-05
1.2528598e-05
1.2525481e-05
1.2522394e-05
1.2519335e-05
1.2516306e-05
1.2513305e-05
1.2510332e-05
1.2507388e-05
1.2504473e-05
1.2501587e-05
1.249873e-05
1.2495901e-05
1.24931e-05
1.2490327e-05
1.2487581e-05
1.2484863e-05
1.2482174e-05
1.2479516e-05
1.247689e-05
1.2474299e-05
1.2471753e-05
1.2469226e-05
1.2467086e-05
1.2465412e-05
1.2464035e-05
1.2462866e-05
1.246185e-05
1.2460955e-05
1.2460156e-05
1.2459437e-05
1.2458786e-05
1.2458194e-05
1.2457652e-05
1.2457156e-05
1.24567e-05
1.2456279e-05
1.2455888e-05
1.2455526e-05
1.2455188e-05
1.2454872e-05
1.2454567e-05
1.245429e-05
1.2453962e-05
1.245373e-05
1.2453363e-05
0.00014112972
0.00013807704
0.00013710739
0.00013667661
0.00013642324
0.00013625225
0.00013612922
0.00013603752
0.00013596763
0.00013591354
0.00013587128
0.00013583809
0.000135812
0.00013579157
0.00013577572
0.00013576363
0.00013575462
0.00013574831
0.00013574378
0.00013574317
0.00013573512
0.00013578395
0.00013549827
0.00013712732
2.5054327e-05
3.6553621e-06
1.2690387e-05
1.217181e-05
1.1923558e-05
1.176224e-05
1.1644538e-05
1.1556698e-05
1.1488174e-05
1.1433078e-05
1.1387801e-05
1.1350021e-05
1.1318039e-05
1.1290567e-05
1.1266696e-05
1.1245747e-05
1.1227206e-05
1.1210669e-05
1.1195819e-05
1.1182398e-05
1.1170198e-05
1.1159049e-05
1.1148809e-05
1.1139359e-05
1.1130602e-05
1.1122452e-05
1.1114839e-05
1.11077e-05
1.1100983e-05
1.1094642e-05
1.1088638e-05
1.1082935e-05
1.1077504e-05
1.1072317e-05
1.1067352e-05
1.1062586e-05
1.1058001e-05
1.1053581e-05
1.1049312e-05
1.1045179e-05
1.1041173e-05
1.103728e-05
1.1033493e-05
1.1029803e-05
1.1026201e-05
1.1022681e-05
1.1019237e-05
1.1015863e-05
1.1012553e-05
1.1009303e-05
1.1006109e-05
1.1002967e-05
1.0999874e-05
1.0996826e-05
1.099382e-05
1.0990854e-05
1.0987925e-05
1.0985032e-05
1.0982171e-05
1.0979342e-05
1.0976543e-05
1.0973773e-05
1.0971031e-05
1.0968314e-05
1.0965624e-05
1.096296e-05
1.0960321e-05
1.0957706e-05
1.0955116e-05
1.0952551e-05
1.0950009e-05
1.0947493e-05
1.0945e-05
1.0942532e-05
1.0940089e-05
1.093767e-05
1.0935276e-05
1.0932906e-05
1.093056e-05
1.0928238e-05
1.092594e-05
1.0923664e-05
1.0921412e-05
1.0919184e-05
1.0916982e-05
1.0914808e-05
1.0912664e-05
1.0910559e-05
1.0908471e-05
1.0906714e-05
1.090535e-05
1.0904233e-05
1.0903288e-05
1.0902471e-05
1.0901751e-05
1.090111e-05
1.0900533e-05
1.0900012e-05
1.0899536e-05
1.0899103e-05
1.0898706e-05
1.0898341e-05
1.0898005e-05
1.0897694e-05
1.0897405e-05
1.0897136e-05
1.0896886e-05
1.0896644e-05
1.0896424e-05
1.0896163e-05
1.089598e-05
1.089569e-05
0.00014030664
0.00013683488
0.00013571873
0.00013521813
0.00013492238
0.00013472228
0.000134578
0.00013447022
0.00013438785
0.0001343239
0.00013427372
0.00013423411
0.00013420278
0.00013417802
0.0001341586
0.00013414353
0.00013413203
0.00013412368
0.00013411741
0.00013411572
0.0001341054
0.00013416092
0.00013383254
0.0001357349
2.3303906e-05
3.018846e-06
1.0666977e-05
1.0246708e-05
1.0043374e-05
9.9124968e-06
9.8173289e-06
9.7464849e-06
9.6913015e-06
9.6469909e-06
9.610628e-06
9.5803153e-06
9.5546841e-06
9.5326956e-06
9.5136132e-06
9.4968856e-06
9.4820953e-06
9.4689153e-06
9.4570885e-06
9.4464065e-06
9.4367019e-06
9.4278373e-06
9.4196981e-06
9.4121896e-06
9.4052321e-06
9.3987579e-06
9.3927097e-06
9.3870378e-06
9.3817e-06
9.3766598e-06
9.3718856e-06
9.3673495e-06
9.3630274e-06
9.3588978e-06
9.3549416e-06
9.3511422e-06
9.3474849e-06
9.3439565e-06
9.3405455e-06
9.3372415e-06
9.3340352e-06
9.3309182e-06
9.3278829e-06
9.3249225e-06
9.3220311e-06
9.3192031e-06
9.3164336e-06
9.313718e-06
9.3110524e-06
9.308433e-06
9.3058566e-06
9.3033203e-06
9.3008215e-06
9.2983575e-06
9.2959263e-06
9.2935259e-06
9.2911543e-06
9.2888098e-06
9.2864909e-06
9.2841964e-06
9.2819252e-06
9.2796763e-06
9.2774496e-06
9.2752424e-06
9.2730574e-06
9.2708923e-06
9.2687474e-06
9.2666225e-06
9.2645178e-06
9.2624332e-06
9.2603687e-06
9.2583243e-06
9.2563002e-06
9.2542965e-06
9.2523133e-06
9.2503507e-06
9.2484087e-06
9.246487e-06
9.2445853e-06
9.2427031e-06
9.24084e-06
9.2389956e-06
9.2371699e-06
9.2353643e-06
9.2335806e-06
9.2318205e-06
9.2300862e-06
9.2283852e-06
9.2266993e-06
9.2252881e-06
9.2242002e-06
9.2233143e-06
9.2225674e-06
9.2219233e-06
9.2213575e-06
9.2208539e-06
9.2204008e-06
9.2199919e-06
9.2196186e-06
9.2192778e-06
9.2189664e-06
9.2186806e-06
9.2184174e-06
9.2181744e-06
9.2179495e-06
9.2177404e-06
9.2175457e-06
9.217358e-06
9.2171882e-06
9.216985e-06
9.2168435e-06
9.216619e-06
0.00013937142
0.00013541257
0.00013412534
0.00013354281
0.0001331972
0.00013296282
0.00013279349
0.00013266673
0.00013256961
0.00013249399
0.00013243445
0.00013238723
0.00013234966
0.00013231975
0.00013229605
0.00013227742
0.00013226293
0.00013225211
0.00013224372
0.00013224068
0.00013222764
0.00013229089
0.00013191288
0.00013413495
2.1403413e-05
2.393361e-06
8.6430246e-06
8.3108748e-06
8.1482034e-06
8.044711e-06
7.9698267e-06
7.9142541e-06
7.8710407e-06
7.836396e-06
7.8080109e-06
7.7843795e-06
7.7644248e-06
7.7473318e-06
7.7325185e-06
7.7195498e-06
7.7080963e-06
7.6979002e-06
7.6887591e-06
7.6805093e-06
7.6730192e-06
7.6661811e-06
7.6599055e-06
7.6541179e-06
7.6487563e-06
7.6437676e-06
7.6391071e-06
7.6347362e-06
7.6306219e-06
7.6267357e-06
7.6230533e-06