/*--------------------------------*- C++ -*----------------------------------*\
| =========                 |                                                 |
| \\      /  F ield         | OpenFOAM: The Open Source CFD Toolbox           |
|  \\    /   O peration     | Version:  2206                                  |
|   \\  /    A nd           | Website:  www.openfoam.com                      |
|    \\/     M anipulation  |                                                 |
\*---------------------------------------------------------------------------*/
FoamFile
{
    version     2.0;
    format      ascii;
    arch        "LSB;label=32;scalar=64";
    class       volScalarField;
    location    "400";
    object      nut;
}
// * * * * * * * * * * * * * * * * * * * * * * * * * * * * * * * * * * * * * //

dimensions      [0 2 -1 0 0 0 0];

internalField   nonuniform List<scalar> 
13056
(
6.7611558e-09
6.661024e-09
6.6349919e-09
6.624652e-09
6.6188167e-09
6.6149797e-09
6.6122881e-09
6.6103368e-09
6.6088962e-09
6.6078231e-09
6.607023e-09
6.6064301e-09
6.6059965e-09
6.6056853e-09
6.6054648e-09
6.6053056e-09
6.6051697e-09
6.6050198e-09
6.6047246e-09
6.6042945e-09
6.602532e-09
6.6015697e-09
6.5850264e-09
4.8086751e-09
3.4386135e-11
1.7040564e-11
2.9911398e-11
2.7784855e-11
2.7078439e-11
2.6438108e-11
2.596548e-11
2.5602645e-11
2.5312822e-11
2.5075043e-11
2.4875951e-11
2.4706501e-11
2.4560342e-11
2.443283e-11
2.4320486e-11
2.4220658e-11
2.4131287e-11
2.4050746e-11
2.3977729e-11
2.3911175e-11
2.3850214e-11
2.3794126e-11
2.3742308e-11
2.3694252e-11
2.3649526e-11
2.3607763e-11
2.3568644e-11
2.3531895e-11
2.3497279e-11
2.3464587e-11
2.3433636e-11
2.3404266e-11
2.3376333e-11
2.334971e-11
2.3324286e-11
2.3299958e-11
2.3276637e-11
2.3254241e-11
2.3232696e-11
2.3211937e-11
2.3191903e-11
2.317254e-11
2.3153798e-11
2.3135631e-11
2.3117998e-11
2.3100862e-11
2.3084187e-11
2.3067941e-11
2.3052095e-11
2.3036622e-11
2.3021498e-11
2.3006698e-11
2.2992202e-11
2.2977991e-11
2.2964045e-11
2.2950348e-11
2.2936885e-11
2.292364e-11
2.2910601e-11
2.2897755e-11
2.2885089e-11
2.2872595e-11
2.2860261e-11
2.2848077e-11
2.2836037e-11
2.2824132e-11
2.2812353e-11
2.2800695e-11
2.2789151e-11
2.2777715e-11
2.2766383e-11
2.2755148e-11
2.2744006e-11
2.2732954e-11
2.2721988e-11
2.2711104e-11
2.2700299e-11
2.2689572e-11
2.2678918e-11
2.2668337e-11
2.2657827e-11
2.2647387e-11
2.2637016e-11
2.2626714e-11
2.261648e-11
2.2606319e-11
2.259623e-11
2.258624e-11
2.2576289e-11
2.2567129e-11
2.2559161e-11
2.2552187e-11
2.2546001e-11
2.2540449e-11
2.2535421e-11
2.2530838e-11
2.2526638e-11
2.2522775e-11
2.2519207e-11
2.25159e-11
2.2512827e-11
2.2509962e-11
2.2507284e-11
2.2504775e-11
2.2502416e-11
2.2500189e-11
2.2498085e-11
2.2496052e-11
2.2494166e-11
2.2492096e-11
2.249051e-11
2.2488006e-11
6.7607998e-09
6.6600231e-09
6.633788e-09
6.6233558e-09
6.6174653e-09
6.6135908e-09
6.6108722e-09
6.6089009e-09
6.6074449e-09
6.6063602e-09
6.6055511e-09
6.6049515e-09
6.6045133e-09
6.6041993e-09
6.6039782e-09
6.6038211e-09
6.603691e-09
6.6035523e-09
6.60328e-09
6.6028867e-09
6.6012278e-09
6.6004028e-09
6.5846793e-09
4.8082821e-09
2.6562884e-11
9.2872937e-12
2.3872522e-11
2.1392832e-11
2.0466634e-11
1.9692484e-11
1.9120118e-11
1.868054e-11
1.8329293e-11
1.804116e-11
1.7800014e-11
1.7595044e-11
1.7418431e-11
1.726444e-11
1.7128836e-11
1.7008405e-11
1.6900657e-11
1.6803619e-11
1.6715707e-11
1.6635632e-11
1.6562338e-11
1.6494949e-11
1.6432732e-11
1.637507e-11
1.6321439e-11
1.6271391e-11
1.6224541e-11
1.6180556e-11
1.6139147e-11
1.6100061e-11
1.6063076e-11
1.6027997e-11
1.5994651e-11
1.5962885e-11
1.5932562e-11
1.5903558e-11
1.5875766e-11
1.5849086e-11
1.582343e-11
1.5798717e-11
1.5774876e-11
1.5751839e-11
1.5729546e-11
1.5707944e-11
1.5686981e-11
1.5666613e-11
1.5646797e-11
1.5627495e-11
1.5608671e-11
1.5590292e-11
1.557233e-11
1.5554756e-11
1.5537544e-11
1.5520671e-11
1.5504115e-11
1.5487856e-11
1.5471874e-11
1.5456154e-11
1.5440678e-11
1.5425431e-11
1.54104e-11
1.5395571e-11
1.5380935e-11
1.5366475e-11
1.5352188e-11
1.533806e-11
1.5324084e-11
1.531025e-11
1.5296553e-11
1.5282984e-11
1.5269538e-11
1.5256208e-11
1.524299e-11
1.5229879e-11
1.5216871e-11
1.5203961e-11
1.5191146e-11
1.5178424e-11
1.5165791e-11
1.5153246e-11
1.5140787e-11
1.5128412e-11
1.5116121e-11
1.5103914e-11
1.5091792e-11
1.5079757e-11
1.5067811e-11
1.5055988e-11
1.5044211e-11
1.503338e-11
1.5023979e-11
1.5015773e-11
1.5008511e-11
1.5002006e-11
1.4996125e-11
1.4990772e-11
1.4985874e-11
1.4981374e-11
1.4977222e-11
1.4973378e-11
1.496981e-11
1.4966487e-11
1.4963385e-11
1.4960479e-11
1.4957751e-11
1.4955176e-11
1.4952747e-11
1.49504e-11
1.4948226e-11
1.4945831e-11
1.4944003e-11
1.4941121e-11
6.7596439e-09
6.6568988e-09
6.6300446e-09
6.6193308e-09
6.6132717e-09
6.6092828e-09
6.6064816e-09
6.6044483e-09
6.602945e-09
6.6018235e-09
6.6009856e-09
6.6003635e-09
6.5999079e-09
6.599581e-09
6.5993513e-09
6.5991899e-09
6.599061e-09
6.5989307e-09
6.5986806e-09
6.5983266e-09
6.5967796e-09
6.5961232e-09
6.5812768e-09
4.8070823e-09
2.2806448e-11
6.8529626e-12
2.0844037e-11
1.8603733e-11
1.7716079e-11
1.7020634e-11
1.6509426e-11
1.6119163e-11
1.5808842e-11
1.5555332e-11
1.5343932e-11
1.5164963e-11
1.5011254e-11
1.4877559e-11
1.4760072e-11
1.4655931e-11
1.4562926e-11
1.4479307e-11
1.4403671e-11
1.4334879e-11
1.4271997e-11
1.4214253e-11
1.4161003e-11
1.4111704e-11
1.4065897e-11
1.4023189e-11
1.3983243e-11
1.3945769e-11
1.3910514e-11
1.3877259e-11
1.384581e-11
1.3815997e-11
1.378767e-11
1.3760697e-11
1.3734959e-11
1.3710349e-11
1.3686774e-11
1.3664149e-11
1.3642396e-11
1.3621447e-11
1.3601239e-11
1.3581715e-11
1.3562825e-11
1.354452e-11
1.3526758e-11
1.3509501e-11
1.3492711e-11
1.3476356e-11
1.3460406e-11
1.3444833e-11
1.3429612e-11
1.3414719e-11
1.3400132e-11
1.3385832e-11
1.3371799e-11
1.3358017e-11
1.3344469e-11
1.3331142e-11
1.3318021e-11
1.3305094e-11
1.3292349e-11
1.3279775e-11
1.3267364e-11
1.3255103e-11
1.3242987e-11
1.3231007e-11
1.3219156e-11
1.3207426e-11
1.3195813e-11
1.3184309e-11
1.3172911e-11
1.3161613e-11
1.3150412e-11
1.3139302e-11
1.3128282e-11
1.3117347e-11
1.3106496e-11
1.3095726e-11
1.3085035e-11
1.3074421e-11
1.3063884e-11
1.3053422e-11
1.3043035e-11
1.3032722e-11
1.3022486e-11
1.3012329e-11
1.3002253e-11
1.2992286e-11
1.2982362e-11
1.297328e-11
1.2965449e-11
1.2958643e-11
1.295264e-11
1.2947275e-11
1.2942434e-11
1.2938036e-11
1.2934017e-11
1.293033e-11
1.2926933e-11
1.2923792e-11
1.2920879e-11
1.291817e-11
1.2915642e-11
1.2913277e-11
1.2911059e-11
1.2908967e-11
1.2906995e-11
1.290509e-11
1.2903328e-11
1.2901378e-11
1.2899898e-11
1.2897564e-11
6.7576582e-09
6.6515479e-09
6.6236348e-09
6.6124385e-09
6.6060907e-09
6.6019055e-09
6.5989624e-09
6.5968228e-09
6.5952379e-09
6.5940528e-09
6.5931648e-09
6.592503e-09
6.5920161e-09
6.5916651e-09
6.5914173e-09
6.5912439e-09
6.5911096e-09
6.5909817e-09
6.5907479e-09
6.5904282e-09
6.5889801e-09
6.5884986e-09
6.574417e-09
4.8048901e-09
2.0691108e-11
5.6349551e-12
1.8929728e-11
1.6974372e-11
1.6163786e-11
1.5557202e-11
1.51124e-11
1.477398e-11
1.4505619e-11
1.4286893e-11
1.4104875e-11
1.3951239e-11
1.3819565e-11
1.370518e-11
1.3604756e-11
1.3515829e-11
1.3436491e-11
1.3365229e-11
1.3300829e-11
1.3242305e-11
1.3188851e-11
1.3139801e-11
1.3094598e-11
1.3052774e-11
1.3013933e-11
1.2977738e-11
1.29439e-11
1.2912167e-11
1.2882325e-11
1.2854182e-11
1.2827575e-11
1.2802358e-11
1.2778403e-11
1.2755594e-11
1.2733832e-11
1.2713026e-11
1.2693094e-11
1.2673965e-11
1.2655574e-11
1.263786e-11
1.2620773e-11
1.2604261e-11
1.2588283e-11
1.2572799e-11
1.2557771e-11
1.2543167e-11
1.2528956e-11
1.251511e-11
1.2501604e-11
1.2488414e-11
1.247552e-11
1.24629e-11
1.2450537e-11
1.2438414e-11
1.2426515e-11
1.2414827e-11
1.2403335e-11
1.2392027e-11
1.2380891e-11
1.2369919e-11
1.2359099e-11
1.2348422e-11
1.2337883e-11
1.2327468e-11
1.2317177e-11
1.2306999e-11
1.229693e-11
1.2286964e-11
1.2277096e-11
1.2267321e-11
1.2257636e-11
1.2248036e-11
1.2238519e-11
1.222908e-11
1.2219719e-11
1.2210431e-11
1.2201216e-11
1.2192071e-11
1.2182995e-11
1.2173987e-11
1.2165046e-11
1.2156172e-11
1.2147363e-11
1.2138621e-11
1.2129947e-11
1.2121344e-11
1.2112812e-11
1.2104379e-11
1.2095983e-11
1.2088342e-11
1.2081799e-11
1.2076137e-11
1.2071159e-11
1.2066721e-11
1.2062724e-11
1.2059099e-11
1.2055792e-11
1.2052761e-11
1.2049973e-11
1.2047398e-11
1.2045012e-11
1.2042795e-11
1.2040729e-11
1.2038798e-11
1.2036988e-11
1.2035283e-11
1.2033676e-11
1.2032124e-11
1.2030691e-11
1.2029097e-11
1.2027894e-11
1.2025998e-11
6.7547969e-09
6.643809e-09
6.6143591e-09
6.6024615e-09
6.5956934e-09
6.5912224e-09
6.5880727e-09
6.5857781e-09
6.5840742e-09
6.5827961e-09
6.5818345e-09
6.5811143e-09
6.5805809e-09
6.5801931e-09
6.579917e-09
6.579723e-09
6.579576e-09
6.5794443e-09
6.5792207e-09
6.5789304e-09
6.5775688e-09
6.5772714e-09
6.5638466e-09
4.8016132e-09
1.937084e-11
4.8716072e-12
1.7492179e-11
1.5797942e-11
1.5071033e-11
1.4544738e-11
1.4159135e-11
1.3866385e-11
1.3634641e-11
1.3446038e-11
1.3289302e-11
1.3157397e-11
1.3044533e-11
1.2946546e-11
1.2860535e-11
1.2784414e-11
1.2716546e-11
1.2655626e-11
1.2600607e-11
1.2550637e-11
1.250502e-11
1.2463182e-11
1.2424643e-11
1.2388999e-11
1.235591e-11
1.2325084e-11
1.2296273e-11
1.2269262e-11
1.2243863e-11
1.2219916e-11
1.2197277e-11
1.2175823e-11
1.2155442e-11
1.2136038e-11
1.2117523e-11
1.209982e-11
1.208286e-11
1.2066581e-11
1.2050926e-11
1.2035847e-11
1.2021297e-11
1.2007236e-11
1.1993625e-11
1.1980431e-11
1.1967623e-11
1.1955173e-11
1.1943054e-11
1.1931244e-11
1.191972e-11
1.1908463e-11
1.1897454e-11
1.1886676e-11
1.1876115e-11
1.1865755e-11
1.1855585e-11
1.1845591e-11
1.1835762e-11
1.1826089e-11
1.181656e-11
1.1807169e-11
1.1797906e-11
1.1788765e-11
1.1779738e-11
1.1770817e-11
1.1762001e-11
1.175328e-11
1.1744652e-11
1.173611e-11
1.1727652e-11
1.1719274e-11
1.1710973e-11
1.1702745e-11
1.1694587e-11
1.1686498e-11
1.1678475e-11
1.1670516e-11
1.1662621e-11
1.1654787e-11
1.1647014e-11
1.1639301e-11
1.1631646e-11
1.1624051e-11
1.1616514e-11
1.1609036e-11
1.1601619e-11
1.1594265e-11
1.1586975e-11
1.1579774e-11
1.1572606e-11
1.156612e-11
1.1560605e-11
1.1555854e-11
1.155169e-11
1.1547987e-11
1.1544658e-11
1.1541644e-11
1.1538899e-11
1.1536386e-11
1.1534077e-11
1.1531947e-11
1.1529976e-11
1.1528146e-11
1.1526442e-11
1.1524851e-11
1.1523361e-11
1.1521958e-11
1.1520638e-11
1.1519362e-11
1.1518186e-11
1.1516872e-11
1.1515885e-11
1.151433e-11
6.7510008e-09
6.6334637e-09
6.6019466e-09
6.5891036e-09
6.5817684e-09
6.5769116e-09
6.5734826e-09
6.5709785e-09
6.5691136e-09
6.5677093e-09
6.566648e-09
6.5658481e-09
6.5652509e-09
6.5648123e-09
6.5644963e-09
6.5642721e-09
6.5641042e-09
6.5639618e-09
6.5637419e-09
6.5634757e-09
6.5621885e-09
6.5620868e-09
6.5492108e-09
4.797122e-09
1.8464911e-11
4.3154637e-12
1.6255669e-11
1.4792538e-11
1.41486e-11
1.369345e-11
1.3360023e-11
1.310729e-11
1.2907478e-11
1.2745043e-11
1.2610196e-11
1.2497121e-11
1.2400514e-11
1.2316627e-11
1.2242961e-11
1.2177788e-11
1.211971e-11
1.2067604e-11
1.2020568e-11
1.1977868e-11
1.1938905e-11
1.1903182e-11
1.1870288e-11
1.1839874e-11
1.1811647e-11
1.1785357e-11
1.176079e-11
1.173776e-11
1.1716108e-11
1.1695694e-11
1.1676396e-11
1.1658108e-11
1.1640735e-11
1.1624192e-11
1.1608406e-11
1.159331e-11
1.1578846e-11
1.1564959e-11
1.1551603e-11
1.1538734e-11
1.1526314e-11
1.1514307e-11
1.1502682e-11
1.149141e-11
1.1480464e-11
1.146982e-11
1.1459456e-11
1.1449352e-11
1.1439491e-11
1.1429854e-11
1.1420426e-11
1.1411193e-11
1.1402143e-11
1.1393262e-11
1.1384542e-11
1.1375971e-11
1.1367539e-11
1.1359237e-11
1.1351058e-11
1.1342995e-11
1.1335039e-11
1.1327187e-11
1.1319432e-11
1.1311766e-11
1.1304189e-11
1.1296693e-11
1.1289275e-11
1.1281931e-11
1.1274658e-11
1.1267455e-11
1.1260317e-11
1.1253241e-11
1.1246227e-11
1.1239272e-11
1.1232374e-11
1.1225533e-11
1.1218746e-11
1.1212014e-11
1.1205336e-11
1.119871e-11
1.1192137e-11
1.1185615e-11
1.1179146e-11
1.1172729e-11
1.1166366e-11
1.116006e-11
1.1153811e-11
1.1147643e-11
1.1141504e-11
1.113598e-11
1.1131319e-11
1.1127321e-11
1.1123828e-11
1.112073e-11
1.111795e-11
1.1115436e-11
1.1113151e-11
1.1111062e-11
1.1109144e-11
1.1107377e-11
1.1105744e-11
1.1104229e-11
1.110282e-11
1.1101505e-11
1.1100275e-11
1.1099117e-11
1.1098029e-11
1.1096977e-11
1.1096009e-11
1.1094921e-11
1.1094109e-11
1.109283e-11
6.7461991e-09
6.6202378e-09
6.5860559e-09
6.5719913e-09
6.5639223e-09
6.5585658e-09
6.554775e-09
6.5519992e-09
6.5499251e-09
6.5483571e-09
6.5471658e-09
6.546262e-09
6.5455813e-09
6.5450756e-09
6.5447064e-09
6.5444407e-09
6.5442426e-09
6.5440816e-09
6.5438581e-09
6.5436105e-09
6.5423847e-09
6.5424933e-09
6.5300533e-09
4.7912477e-09
1.7770413e-11
3.8617559e-12
1.508156e-11
1.3824463e-11
1.3260407e-11
1.2868713e-11
1.2581745e-11
1.2364529e-11
1.2192978e-11
1.2053651e-11
1.1938094e-11
1.1841667e-11
1.1759404e-11
1.1687872e-11
1.1624988e-11
1.1569373e-11
1.1519834e-11
1.1475407e-11
1.1435319e-11
1.1398941e-11
1.1365757e-11
1.1335344e-11
1.1307346e-11
1.1281465e-11
1.125745e-11
1.1235087e-11
1.1214191e-11
1.1194605e-11
1.1176192e-11
1.1158831e-11
1.114242e-11
1.1126866e-11
1.1112088e-11
1.1098015e-11
1.1084584e-11
1.1071738e-11
1.1059426e-11
1.1047603e-11
1.1036229e-11
1.1025267e-11
1.1014684e-11
1.100445e-11
1.0994537e-11
1.0984923e-11
1.0975583e-11
1.0966498e-11
1.0957649e-11
1.0949018e-11
1.0940591e-11
1.0932353e-11
1.0924291e-11
1.0916393e-11
1.0908648e-11
1.0901046e-11
1.0893582e-11
1.0886243e-11
1.0879022e-11
1.087191e-11
1.0864901e-11
1.0857989e-11
1.0851168e-11
1.0844436e-11
1.0837786e-11
1.0831211e-11
1.082471e-11
1.0818278e-11
1.0811912e-11
1.080561e-11
1.0799368e-11
1.0793186e-11
1.078706e-11
1.0780988e-11
1.0774969e-11
1.0769e-11
1.0763082e-11
1.0757212e-11
1.0751391e-11
1.0745617e-11
1.0739892e-11
1.0734212e-11
1.0728578e-11
1.072299e-11
1.0717448e-11
1.0711953e-11
1.0706506e-11
1.0701109e-11
1.0695764e-11
1.0690491e-11
1.0685244e-11
1.0680551e-11
1.067662e-11
1.0673264e-11
1.0670342e-11
1.0667755e-11
1.0665439e-11
1.0663349e-11
1.066145e-11
1.0659718e-11
1.0658129e-11
1.0656667e-11
1.0655317e-11
1.0654066e-11
1.0652903e-11
1.0651819e-11
1.0650806e-11
1.0649853e-11
1.0648958e-11
1.0648093e-11
1.0647298e-11
1.06464e-11
1.0645734e-11
1.0644684e-11
6.7403133e-09
6.6038033e-09
6.5662766e-09
6.550674e-09
6.54168e-09
6.535693e-09
6.5314453e-09
6.5283262e-09
6.5259877e-09
6.5242123e-09
6.5228563e-09
6.5218203e-09
6.5210332e-09
6.5204416e-09
6.5200035e-09
6.5196835e-09
6.5194442e-09
6.5192554e-09
6.5190198e-09
6.5187845e-09
6.5176061e-09
6.5179422e-09
6.5058179e-09
4.7837811e-09
1.7165761e-11
3.459055e-12
1.3898232e-11
1.2825346e-11
1.233698e-11
1.2002323e-11
1.1757121e-11
1.1571767e-11
1.1425522e-11
1.1306855e-11
1.1208518e-11
1.1126387e-11
1.1056393e-11
1.0995675e-11
1.0942382e-11
1.0895275e-11
1.0853338e-11
1.0815748e-11
1.0781846e-11
1.0751096e-11
1.0723057e-11
1.0697368e-11
1.0673727e-11
1.065188e-11
1.0631612e-11
1.0612742e-11
1.0595113e-11
1.0578591e-11
1.0563058e-11
1.0548413e-11
1.0534569e-11
1.0521447e-11
1.0508979e-11
1.0497105e-11
1.048577e-11
1.0474926e-11
1.046453e-11
1.0454545e-11
1.0444937e-11
1.0435673e-11
1.0426727e-11
1.0418074e-11
1.0409689e-11
1.0401553e-11
1.0393647e-11
1.0385954e-11
1.0378457e-11
1.0371143e-11
1.0363999e-11
1.0357012e-11
1.0350172e-11
1.0343468e-11
1.0336892e-11
1.0330434e-11
1.0324089e-11
1.0317849e-11
1.0311706e-11
1.0305653e-11
1.0299687e-11
1.0293802e-11
1.0287994e-11
1.0282258e-11
1.0276592e-11
1.0270987e-11
1.0265445e-11
1.0259961e-11
1.0254533e-11
1.0249159e-11
1.0243836e-11
1.0238564e-11
1.0233339e-11
1.0228161e-11
1.0223027e-11
1.0217938e-11
1.0212891e-11
1.0207888e-11
1.0202926e-11
1.0198007e-11
1.0193128e-11
1.018829e-11
1.0183493e-11
1.0178735e-11
1.0174018e-11
1.0169341e-11
1.0164708e-11
1.0160119e-11
1.0155576e-11
1.0151096e-11
1.0146639e-11
1.0142678e-11
1.0139386e-11
1.0136588e-11
1.0134159e-11
1.0132015e-11
1.0130099e-11
1.0128372e-11
1.0126806e-11
1.0125378e-11
1.0124071e-11
1.0122869e-11
1.0121761e-11
1.0120734e-11
1.0119782e-11
1.0118894e-11
1.0118065e-11
1.0117287e-11
1.0116555e-11
1.0115849e-11
1.0115201e-11
1.0114464e-11
1.0113921e-11
1.0113065e-11
6.733261e-09
6.5837801e-09
6.5421301e-09
6.5246255e-09
6.5144856e-09
6.5077169e-09
6.5029023e-09
6.4993568e-09
6.4966896e-09
6.4946562e-09
6.4930949e-09
6.491894e-09
6.4909736e-09
6.4902741e-09
6.4897487e-09
6.489359e-09
6.4890658e-09
6.4888382e-09
6.4885807e-09
6.4883505e-09
6.4872039e-09
6.487788e-09
6.4758476e-09
4.7744695e-09
1.6573001e-11
3.0803931e-12
1.2669373e-11
1.1761942e-11
1.1344398e-11
1.1061213e-11
1.085374e-11
1.0697122e-11
1.057367e-11
1.0473586e-11
1.0390722e-11
1.0321465e-11
1.0262502e-11
1.0211442e-11
1.0166701e-11
1.0127182e-11
1.009202e-11
1.0060521e-11
1.0032128e-11
1.0006384e-11
9.9829204e-12
9.9614312e-12
9.9416608e-12
9.9233952e-12
9.9064541e-12
9.8906835e-12
9.8759523e-12
9.8621462e-12
9.8491675e-12
9.8369309e-12
9.8253624e-12
9.8143965e-12
9.8039755e-12
9.7940488e-12
9.784571e-12
9.7755017e-12
9.7668053e-12
9.7584498e-12
9.7504065e-12
9.7426497e-12
9.735156e-12
9.7279044e-12
9.7208756e-12
9.7140525e-12
9.7074196e-12
9.7009623e-12
9.6946676e-12
9.6885236e-12
9.6825196e-12
9.6766456e-12
9.6708926e-12
9.6652521e-12
9.6597168e-12
9.6542794e-12
9.6489339e-12
9.6436744e-12
9.6384951e-12
9.633391e-12
9.6283576e-12
9.6233944e-12
9.6184945e-12
9.6136544e-12
9.6088711e-12
9.6041388e-12
9.5994592e-12
9.5948274e-12
9.5902426e-12
9.5857042e-12
9.5812088e-12
9.5767555e-12
9.5723423e-12
9.5679682e-12
9.5636323e-12
9.5593339e-12
9.5550723e-12
9.5508488e-12
9.5466615e-12
9.5425099e-12
9.5383939e-12
9.534313e-12
9.5302668e-12
9.5262553e-12
9.5222787e-12
9.5183376e-12
9.5144343e-12
9.5105702e-12
9.5067462e-12
9.5029773e-12
9.4992287e-12
9.4959175e-12
9.4931866e-12
9.4908771e-12
9.4888788e-12
9.4871189e-12
9.4855494e-12
9.4841373e-12
9.4828584e-12
9.4816944e-12
9.4806296e-12
9.4796517e-12
9.4787505e-12
9.4779173e-12
9.4771444e-12
9.4764252e-12
9.4757539e-12
9.4751239e-12
9.4745326e-12
9.4739616e-12
9.4734384e-12
9.4728401e-12
9.4724017e-12
9.471711e-12
6.7249606e-09
6.5597384e-09
6.5130713e-09
6.4932445e-09
6.481703e-09
6.4739772e-09
6.468468e-09
6.4643998e-09
6.4613291e-09
6.4589787e-09
6.4571648e-09
6.4557606e-09
6.4546755e-09
6.453842e-09
6.4532078e-09
6.4527305e-09
6.4523679e-09
6.4520887e-09
6.4517976e-09
6.451564e-09
6.4504318e-09
6.4512874e-09
6.4393856e-09
4.7630146e-09
1.5941904e-11
2.7120859e-12
1.1382287e-11
1.0623671e-11
1.0271595e-11
1.003484e-11
9.8614438e-12
9.7307459e-12
9.627827e-12
9.5444655e-12
9.475509e-12
9.4178508e-12
9.3688075e-12
9.3263977e-12
9.2892951e-12
9.2565512e-12
9.2274378e-12
9.2013718e-12
9.1778879e-12
9.1566058e-12
9.1372165e-12
9.1194652e-12
9.1031387e-12
9.0880587e-12
9.074075e-12
9.0610595e-12
9.0489029e-12
9.0375103e-12
9.0268004e-12
9.0167024e-12
9.0071549e-12
8.9981035e-12
8.9895004e-12
8.9813036e-12
8.9734755e-12
8.9659827e-12
8.9587957e-12
8.9518881e-12
8.9452362e-12
8.9388186e-12
8.9326164e-12
8.926612e-12
8.9207896e-12
8.915135e-12
8.9096357e-12
8.9042795e-12
8.8990559e-12
8.893955e-12
8.8889681e-12
8.8840869e-12
8.8793042e-12
8.8746131e-12
8.8700075e-12
8.8654816e-12
8.8610303e-12
8.8566489e-12
8.8523327e-12
8.8480777e-12
8.8438802e-12
8.8397379e-12
8.8356468e-12
8.8316043e-12
8.8276083e-12
8.8236539e-12
8.819743e-12
8.8158714e-12
8.8120385e-12
8.8082434e-12
8.804484e-12
8.8007595e-12
8.7970687e-12
8.7934109e-12
8.7897854e-12
8.7861917e-12
8.7826293e-12
8.7790991e-12
8.7755999e-12
8.7721313e-12
8.7686931e-12
8.7652849e-12
8.7619065e-12
8.7585579e-12
8.755239e-12
8.7519506e-12
8.7486948e-12
8.7454727e-12
8.7422856e-12
8.7391459e-12
8.736024e-12
8.7332831e-12
8.7310404e-12
8.7291527e-12
8.7275247e-12
8.7260946e-12
8.7248218e-12
8.7236784e-12
8.7226443e-12
8.7217042e-12
8.7208451e-12
8.7200569e-12
8.7193313e-12
8.718661e-12
8.7180399e-12
8.7174625e-12
8.7169241e-12
8.7164192e-12
8.7159457e-12
8.7154884e-12
8.7150701e-12
8.714589e-12
8.7142386e-12
8.7136864e-12
6.7153381e-09
6.5312013e-09
6.4784905e-09
6.4558561e-09
6.4426172e-09
6.4337311e-09
6.427379e-09
6.4226759e-09
6.4191148e-09
6.4163785e-09
6.4142568e-09
6.4126045e-09
6.4113178e-09
6.41032e-09
6.4095516e-09
6.4089652e-09
6.4085152e-09
6.4081691e-09
6.4078306e-09
6.4075836e-09
6.4064458e-09
6.4076003e-09
6.3955754e-09
4.7490691e-09
1.5243096e-11
2.3487909e-12
1.0042043e-11
9.4168528e-12
9.1245275e-12
8.9294511e-12
8.7866888e-12
8.6792591e-12
8.5947519e-12
8.5263699e-12
8.4698585e-12
8.422597e-12
8.382433e-12
8.3477453e-12
8.3174422e-12
8.2907251e-12
8.2669881e-12
8.2457492e-12
8.2266251e-12
8.2093024e-12
8.1935273e-12
8.1790902e-12
8.165816e-12
8.1535582e-12
8.1421939e-12
8.1316178e-12
8.1217404e-12
8.1124839e-12
8.1037819e-12
8.0955764e-12
8.0878172e-12
8.0804599e-12
8.0734656e-12
8.0667999e-12
8.060432e-12
8.0543349e-12
8.0484845e-12
8.0428594e-12
8.0374401e-12
8.0322096e-12
8.0271522e-12
8.0222539e-12
8.0175017e-12
8.0128842e-12
8.0083913e-12
8.0040132e-12
7.9997412e-12
7.9955676e-12
7.9914852e-12
7.9874875e-12
7.9835685e-12
7.9797228e-12
7.9759455e-12
7.9722319e-12
7.968578e-12
7.96498e-12
7.9614342e-12
7.9579373e-12
7.9544865e-12
7.9510793e-12
7.9477132e-12
7.9443859e-12
7.9410962e-12
7.9378399e-12
7.9346189e-12
7.9314299e-12
7.9282721e-12
7.9251449e-12
7.9220471e-12
7.918978e-12
7.9159369e-12
7.9129231e-12
7.9099364e-12
7.9069764e-12
7.9040428e-12
7.901136e-12
7.8982553e-12
7.8954005e-12
7.8925714e-12
7.8897676e-12
7.886989e-12
7.8842353e-12
7.8815067e-12
7.8788038e-12
7.8761283e-12
7.8734815e-12
7.8708646e-12
7.8682882e-12
7.8657271e-12
7.8634925e-12
7.8616784e-12
7.8601589e-12
7.8588529e-12
7.8577086e-12
7.8566923e-12
7.8557808e-12
7.8549573e-12
7.8542097e-12
7.8535269e-12
7.8529011e-12
7.8523256e-12
7.8517946e-12
7.851303e-12
7.8508464e-12
7.8504211e-12
7.8500226e-12
7.8496492e-12
7.8492887e-12
7.8489594e-12
7.8485784e-12
7.8483026e-12
7.847868e-12
6.7043342e-09
6.4976491e-09
6.4377166e-09
6.4117149e-09
6.3964363e-09
6.3861546e-09
6.378788e-09
6.3733199e-09
6.3691675e-09
6.3659654e-09
6.3634716e-09
6.3615188e-09
6.3599875e-09
6.3587896e-09
6.357857e-09
6.3571365e-09
6.3565777e-09
6.3561466e-09
6.3557444e-09
6.355472e-09
6.3543058e-09
6.3557902e-09
6.3434619e-09
4.732234e-09
1.4465031e-11
1.9909826e-12
8.6678693e-12
8.1613763e-12
7.9228231e-12
7.7648335e-12
7.6493635e-12
7.5626342e-12
7.4944886e-12
7.4394042e-12
7.3939296e-12
7.355901e-12
7.3236124e-12
7.2957605e-12
7.2714616e-12
7.2500607e-12
7.2310627e-12
7.214076e-12
7.1987901e-12
7.1849513e-12
7.1723546e-12
7.1608309e-12
7.1502387e-12
7.1404601e-12
7.1313959e-12
7.1229614e-12
7.1150847e-12
7.1077031e-12
7.1007631e-12
7.0942184e-12
7.0880287e-12
7.0821582e-12
7.0765759e-12
7.0712543e-12
7.0661686e-12
7.0612972e-12
7.056621e-12
7.0521227e-12
7.047787e-12
7.0436001e-12
7.0395499e-12
7.0356248e-12
7.0318147e-12
7.0281107e-12
7.0245045e-12
7.0209885e-12
7.0175558e-12
7.0142002e-12
7.0109162e-12
7.0076986e-12
7.0045427e-12
7.0014442e-12
6.9983992e-12
6.9954043e-12
6.992456e-12
6.9895517e-12
6.9866882e-12
6.9838631e-12
6.9810741e-12
6.9783192e-12
6.9755966e-12
6.9729046e-12
6.9702422e-12
6.9676062e-12
6.9649985e-12
6.9624162e-12
6.9598589e-12
6.9573261e-12
6.954817e-12
6.9523313e-12
6.9498685e-12
6.9474282e-12
6.9450102e-12
6.9426143e-12
6.9402403e-12
6.9378884e-12
6.9355584e-12
6.9332498e-12
6.9309626e-12
6.9286965e-12
6.9264511e-12
6.9242262e-12
6.9220219e-12
6.919839e-12
6.9176787e-12
6.9155424e-12
6.9134314e-12
6.9113542e-12
6.9092904e-12
6.9075006e-12
6.9060593e-12
6.904858e-12
6.9038289e-12
6.9029299e-12
6.902133e-12
6.9014194e-12
6.9007754e-12
6.9001915e-12
6.8996584e-12
6.8991702e-12
6.8987218e-12
6.8983085e-12
6.8979262e-12
6.8975715e-12
6.8972415e-12
6.8969326e-12
6.8966436e-12
6.8963645e-12
6.89611e-12
6.8958138e-12
6.8956008e-12
6.8952649e-12
6.6919143e-09
6.4585241e-09
6.3900213e-09
6.3600086e-09
6.3422961e-09
6.3303472e-09
6.3217676e-09
6.3153842e-09
6.3105235e-09
6.306763e-09
6.3038224e-09
6.3015083e-09
6.2996823e-09
6.2982426e-09
6.297111e-09
6.2962267e-09
6.2955341e-09
6.2949965e-09
6.2945114e-09
6.2941995e-09
6.2929787e-09
6.2948281e-09
6.2819952e-09
4.7120548e-09
1.3612268e-11
1.6433316e-12
7.2901339e-12
6.8879513e-12
6.6970333e-12
6.5716286e-12
6.4801612e-12
6.4116086e-12
6.3578139e-12
6.3143809e-12
6.2785669e-12
6.2486276e-12
6.2232318e-12
6.2013532e-12
6.1822903e-12
6.1655196e-12
6.1506457e-12
6.1373569e-12
6.1254067e-12
6.114594e-12
6.1047568e-12
6.0957612e-12
6.0874956e-12
6.0798668e-12
6.0727968e-12
6.0662186e-12
6.0600757e-12
6.0543188e-12
6.0489058e-12
6.0438002e-12
6.0389706e-12
6.0343889e-12
6.0300306e-12
6.0258742e-12
6.0219005e-12
6.0180925e-12
6.0144351e-12
6.010915e-12
6.0075202e-12
6.00424e-12
6.0010649e-12
5.997986e-12
5.9949955e-12
5.9920863e-12
5.9892521e-12
5.986487e-12
5.9837856e-12
5.9811433e-12
5.9785557e-12
5.9760188e-12
5.9735291e-12
5.9710832e-12
5.9686783e-12
5.9663116e-12
5.9639805e-12
5.961683e-12
5.9594168e-12
5.9571799e-12
5.9549706e-12
5.9527875e-12
5.950629e-12
5.9484941e-12
5.9463822e-12
5.9442905e-12
5.9422209e-12
5.9401712e-12
5.9381412e-12
5.9361305e-12
5.9341387e-12
5.9321656e-12
5.9302109e-12
5.9282743e-12
5.9263559e-12
5.9244555e-12
5.922573e-12
5.9207085e-12
5.9188619e-12
5.9170329e-12
5.9152212e-12
5.9134267e-12
5.9116489e-12
5.9098875e-12
5.9081427e-12
5.9064151e-12
5.904706e-12
5.9030166e-12
5.9013482e-12
5.8997078e-12
5.8980788e-12
5.8966746e-12
5.8955529e-12
5.8946225e-12
5.8938284e-12
5.8931367e-12
5.892525e-12
5.891978e-12
5.8914848e-12
5.891038e-12
5.8906301e-12
5.8902569e-12
5.8899146e-12
5.8895993e-12
5.889308e-12
5.8890381e-12
5.8887873e-12
5.8885529e-12
5.8883338e-12
5.8881223e-12
5.8879298e-12
5.8877044e-12
5.8875434e-12
5.8872895e-12
6.6780807e-09
6.4132383e-09
6.3346259e-09
6.2998645e-09
6.2792653e-09
6.2653372e-09
6.2553165e-09
6.2478448e-09
6.2421412e-09
6.2377154e-09
6.2342419e-09
6.2314961e-09
6.2293172e-09
6.2275872e-09
6.2262159e-09
6.2251334e-09
6.2242774e-09
6.2236082e-09
6.2230176e-09
6.2226496e-09
6.2213444e-09
6.2235982e-09
6.2100363e-09
4.6880188e-09
1.2703937e-11
1.3133273e-12
5.9470383e-12
5.635005e-12
5.4855383e-12
5.3882945e-12
5.3175822e-12
5.2647202e-12
5.2232994e-12
5.1899017e-12
5.1623997e-12
5.1394245e-12
5.1199569e-12
5.1032084e-12
5.0886349e-12
5.0758291e-12
5.0644834e-12
5.0543556e-12
5.045255e-12
5.037026e-12
5.0295436e-12
5.0227045e-12
5.0164228e-12
5.0106266e-12
5.0052561e-12
5.0002597e-12
4.9955941e-12
4.9912214e-12
4.9871094e-12
4.9832301e-12
4.9795595e-12
4.9760761e-12
4.9727613e-12
4.9695986e-12
4.9665734e-12
4.9636726e-12
4.9608849e-12
4.9582e-12
4.955609e-12
4.9531037e-12
4.9506769e-12
4.9483219e-12
4.9460328e-12
4.9438041e-12
4.9416313e-12
4.9395098e-12
4.9374356e-12
4.9354053e-12
4.9334154e-12
4.9314632e-12
4.9295459e-12
4.927661e-12
4.9258065e-12
4.9239803e-12
4.9221805e-12
4.9204056e-12
4.9186538e-12
4.9169238e-12
4.9152143e-12
4.9135242e-12
4.9118524e-12
4.9101983e-12
4.9085614e-12
4.9069397e-12
4.9053348e-12
4.9037451e-12
4.9021705e-12
4.9006109e-12
4.899066e-12
4.8975357e-12
4.89602e-12
4.8945187e-12
4.8930317e-12
4.8915591e-12
4.890101e-12
4.8886572e-12
4.8872277e-12
4.8858123e-12
4.8844108e-12
4.8830227e-12
4.8816477e-12
4.8802856e-12
4.8789363e-12
4.8776006e-12
4.8762798e-12
4.8749748e-12
4.873687e-12
4.8724218e-12
4.8711665e-12
4.8700908e-12
4.8692382e-12
4.8685346e-12
4.8679364e-12
4.867417e-12
4.8669586e-12
4.8665493e-12
4.8661804e-12
4.8658465e-12
4.8655416e-12
4.8652627e-12
4.8650072e-12
4.8647722e-12
4.8645554e-12
4.8643546e-12
4.8641684e-12
4.8639948e-12
4.8638327e-12
4.8636763e-12
4.8635343e-12
4.8633671e-12
4.8632485e-12
4.8630613e-12
6.6628882e-09
6.3611832e-09
6.2707108e-09
6.2303592e-09
6.2063559e-09
6.190092e-09
6.1783692e-09
6.1696112e-09
6.1629104e-09
6.1576966e-09
6.1535913e-09
6.1503328e-09
6.1477342e-09
6.145658e-09
6.1439998e-09
6.1426791e-09
6.1416254e-09
6.1407952e-09
6.1400728e-09
6.139629e-09
6.1382054e-09
6.1409072e-09
6.1263665e-09
4.659552e-09
1.1771597e-11
1.0098514e-12
4.6805953e-12
4.4448369e-12
4.330712e-12
4.2573118e-12
4.2041718e-12
4.1645691e-12
4.1335919e-12
4.1086545e-12
4.0881519e-12
4.0710421e-12
4.0565629e-12
4.0441253e-12
4.0333186e-12
4.0238354e-12
4.0154433e-12
4.0079597e-12
4.0012411e-12
3.9951706e-12
3.9896545e-12
3.9846153e-12
3.9799888e-12
3.9757214e-12
3.9717682e-12
3.9680909e-12
3.964657e-12
3.9614386e-12
3.9584114e-12
3.9555549e-12
3.9528511e-12
3.9502842e-12
3.9478402e-12
3.9455072e-12
3.943274e-12
3.9411312e-12
3.9390704e-12
3.9370841e-12
3.9351656e-12
3.9333089e-12
3.9315088e-12
3.9297604e-12
3.9280592e-12
3.9264015e-12
3.9247837e-12
3.9232027e-12
3.9216555e-12
3.9201396e-12
3.9186526e-12
3.9171923e-12
3.9157569e-12
3.9143447e-12
3.9129541e-12
3.9115836e-12
3.9102319e-12
3.908898e-12
3.9075805e-12
3.9062786e-12
3.9049912e-12
3.9037178e-12
3.9024575e-12
3.9012099e-12
3.8999747e-12
3.8987507e-12
3.897539e-12
3.8963386e-12
3.8951494e-12
3.8939715e-12
3.8928048e-12
3.8916492e-12
3.8905049e-12
3.8893717e-12
3.8882497e-12
3.8871388e-12
3.8860392e-12
3.8849508e-12
3.8838737e-12
3.8828074e-12
3.8817518e-12
3.8807065e-12
3.8796711e-12
3.8786454e-12
3.8776293e-12
3.8766238e-12
3.8756298e-12
3.8746485e-12
3.8736809e-12
3.8727314e-12
3.8717904e-12
3.8709886e-12
3.8703578e-12
3.86984e-12
3.8694014e-12
3.869022e-12
3.868688e-12
3.8683901e-12
3.8681213e-12
3.8678784e-12
3.8676561e-12
3.867453e-12
3.8672671e-12
3.8670964e-12
3.866939e-12
3.8667936e-12
3.8666589e-12
3.8665337e-12
3.8664171e-12
3.8663048e-12
3.8662029e-12
3.8660825e-12
3.8659976e-12
3.8658636e-12
6.6464632e-09
6.3017432e-09
6.1974289e-09
6.1505319e-09
6.122537e-09
6.1035317e-09
6.0898101e-09
6.0795405e-09
6.0716669e-09
6.0655256e-09
6.0606756e-09
6.0568121e-09
6.053717e-09
6.0512306e-09
6.0492313e-09
6.0476264e-09
6.0463354e-09
6.0453102e-09
6.0444253e-09
6.043883e-09
6.0423024e-09
6.0454999e-09
6.029703e-09
4.6260165e-09
1.0856502e-11
7.4164763e-13
3.531873e-12
3.3590075e-12
3.2743142e-12
3.2206061e-12
3.1819667e-12
3.1532817e-12
3.1308923e-12
3.1129027e-12
3.0981412e-12
3.0858409e-12
3.0754483e-12
3.0665372e-12
3.0588076e-12
3.0520353e-12
3.0460505e-12
3.0407202e-12
3.0359398e-12
3.0316247e-12
3.0277067e-12
3.02413e-12
3.0208479e-12
3.0178218e-12
3.0150193e-12
3.0124128e-12
3.009979e-12
3.0076975e-12
3.0055513e-12
3.0035254e-12
3.001607e-12