/*--------------------------------*- C++ -*----------------------------------*\
| =========                 |                                                 |
| \\      /  F ield         | OpenFOAM: The Open Source CFD Toolbox           |
|  \\    /   O peration     | Version:  2206                                  |
|   \\  /    A nd           | Website:  www.openfoam.com                      |
|    \\/     M anipulation  |                                                 |
\*---------------------------------------------------------------------------*/
FoamFile
{
    version     2.0;
    format      ascii;
    arch        "LSB;label=32;scalar=64";
    class       volScalarField;
    location    "400";
    object      p;
}
// * * * * * * * * * * * * * * * * * * * * * * * * * * * * * * * * * * * * * //

dimensions      [0 2 -2 0 0 0 0];

internalField   nonuniform List<scalar> 
13056
(
0.0084206531
0.0085065439
0.0086857655
0.0089138598
0.0091926859
0.0095221252
0.0099004502
0.010327601
0.010805431
0.011337326
0.011928205
0.01258494
0.013316862
0.014137136
0.015063266
0.01612286
0.017348983
0.018814174
0.020569605
0.022893561
0.025703331
0.03061455
0.035364872
0.075491498
0.044483045
-0.0069324951
-0.0060696804
-0.0033701484
-0.0024687654
-0.0016374623
-0.0010453671
-0.00062272221
-0.00029502305
-3.7272856e-05
0.00016870939
0.00033817122
0.00048095635
0.00060309684
0.00070866633
0.0008011249
0.00088298166
0.0009559714
0.0010215237
0.0010807701
0.0011345788
0.0011836509
0.0012285671
0.0012698071
0.0013077674
0.0013427833
0.001375141
0.0014050822
0.0014328134
0.0014585128
0.0014823349
0.001504414
0.0015248661
0.0015437939
0.0015612884
0.0015774303
0.0015922914
0.0016059313
0.0016184016
0.0016297519
0.0016400269
0.0016492649
0.0016574985
0.0016647583
0.0016710744
0.0016764682
0.0016809546
0.0016845505
0.0016872703
0.0016891248
0.0016901258
0.0016902815
0.0016895928
0.0016880676
0.0016857144
0.0016825251
0.0016784908
0.0016736097
0.0016678768
0.0016612835
0.0016538199
0.001645475
0.0016362351
0.0016260936
0.0016150289
0.0016030064
0.0015900078
0.0015760095
0.0015609814
0.0015448907
0.0015277024
0.0015093797
0.0014898854
0.0014691637
0.0014471533
0.0014237996
0.0013990371
0.001372792
0.0013449803
0.0013155129
0.0012842858
0.00125117
0.0012160255
0.0011786906
0.0011389668
0.0010966069
0.0010512858
0.0010025704
0.00094931196
0.00089323282
0.00083881422
0.00078746484
0.00073827015
0.00069053047
0.00064395635
0.00059840879
0.00055380083
0.00051009906
0.00046731612
0.00042550015
0.00038472548
0.00034510472
0.00030680631
0.00027004426
0.00023516493
0.00020253408
0.00017314491
0.00014713315
0.00012955938
0.0001131216
0.00021677152
-0.00020113031
0.0084206531
0.0085065439
0.0086857655
0.0089138599
0.009192686
0.0095221252
0.0099004503
0.010327601
0.010805431
0.011337326
0.011928206
0.012584941
0.013316863
0.014137137
0.015063267
0.016122862
0.017348985
0.018814177
0.020569608
0.022893568
0.02570334
0.030614568
0.035364913
0.075485811
0.044492554
-0.0069245815
-0.0060683993
-0.0033696301
-0.0024684802
-0.0016372633
-0.0010452195
-0.00062260806
-0.00029493175
-3.7198064e-05
0.00016877181
0.00033822409
0.00048100169
0.00060313613
0.00070870068
0.00080115516
0.00088300851
0.00095599537
0.0010215452
0.0010807895
0.0011345964
0.0011836669
0.0012285817
0.0012698204
0.0013077797
0.0013427946
0.0013751514
0.0014050919
0.0014328224
0.0014585212
0.0014823427
0.0015044213
0.0015248729
0.0015438003
0.0015612944
0.001577436
0.0015922967
0.0016059363
0.0016184063
0.0016297564
0.0016400311
0.0016492689
0.0016575023
0.0016647619
0.0016710778
0.0016764714
0.0016809577
0.0016845534
0.0016872731
0.0016891275
0.0016901283
0.0016902839
0.0016895951
0.0016880698
0.0016857166
0.0016825271
0.0016784927
0.0016736116
0.0016678786
0.0016612852
0.0016538215
0.0016454765
0.0016362366
0.001626095
0.0016150302
0.0016030077
0.001590009
0.0015760107
0.0015609825
0.0015448918
0.0015277034
0.0015093807
0.0014898863
0.0014691646
0.0014471541
0.0014238004
0.0013990379
0.0013727927
0.001344981
0.0013155136
0.0012842864
0.0012511706
0.001216026
0.0011786911
0.0011389673
0.0010966074
0.0010512862
0.0010025708
0.0009493123
0.00089323312
0.00083881448
0.00078746507
0.00073827036
0.00069053066
0.00064395652
0.00059840894
0.00055380097
0.00051009919
0.00046731624
0.00042550026
0.00038472559
0.00034510482
0.0003068064
0.00027004435
0.00023516501
0.00020253415
0.00017314498
0.00014713322
0.00012955945
0.00011312167
0.00021677159
-0.00020113026
0.0084206531
0.0085065439
0.0086857655
0.0089138599
0.009192686
0.0095221253
0.0099004504
0.010327601
0.010805431
0.011337326
0.011928206
0.012584941
0.013316863
0.014137137
0.015063267
0.016122863
0.017348987
0.01881418
0.020569612
0.022893575
0.025703349
0.030614587
0.035364937
0.075480525
0.04450376
-0.0069159354
-0.0060669054
-0.0033690261
-0.0024681481
-0.0016370316
-0.0010450475
-0.00062247515
-0.00029482546
-3.7111002e-05
0.00016884446
0.00033828563
0.00048105445
0.00060318184
0.00070874064
0.00080119037
0.00088303974
0.00095602324
0.0010215702
0.0010808121
0.0011346168
0.0011836855
0.0012285987
0.001269836
0.0013077939
0.0013428077
0.0013751636
0.0014051031
0.0014328329
0.0014585309
0.0014823517
0.0015044297
0.0015248809
0.0015438077
0.0015613013
0.0015774425
0.0015923028
0.0016059421
0.0016184118
0.0016297615
0.001640036
0.0016492736
0.0016575067
0.001664766
0.0016710817
0.0016764752
0.0016809613
0.0016845569
0.0016872763
0.0016891306
0.0016901313
0.0016902867
0.0016895978
0.0016880723
0.001685719
0.0016825295
0.0016784949
0.0016736137
0.0016678806
0.0016612872
0.0016538234
0.0016454783
0.0016362383
0.0016260967
0.0016150318
0.0016030092
0.0015900105
0.0015760121
0.0015609838
0.001544893
0.0015277046
0.0015093818
0.0014898874
0.0014691656
0.0014471551
0.0014238013
0.0013990387
0.0013727935
0.0013449818
0.0013155143
0.0012842871
0.0012511713
0.0012160266
0.0011786916
0.0011389678
0.0010966079
0.0010512867
0.0010025712
0.0009493127
0.00089323346
0.00083881478
0.00078746534
0.00073827059
0.00069053087
0.00064395671
0.00059840912
0.00055380113
0.00051009934
0.00046731638
0.00042550039
0.00038472571
0.00034510493
0.0003068065
0.00027004444
0.00023516511
0.00020253424
0.00017314506
0.00014713329
0.00012955953
0.00011312175
0.00021677167
-0.00020113021
0.0084206531
0.0085065439
0.0086857656
0.0089138599
0.0091926861
0.0095221254
0.0099004505
0.010327601
0.010805431
0.011337326
0.011928206
0.012584941
0.013316864
0.014137138
0.015063268
0.016122864
0.017348989
0.018814182
0.020569616
0.022893582
0.025703359
0.030614605
0.035364947
0.075475405
0.044517223
-0.0069091032
-0.006065454
-0.0033684382
-0.0024678246
-0.0016368058
-0.0010448799
-0.00062234568
-0.00029472191
-3.7026174e-05
0.00016891525
0.0003383456
0.00048110588
0.0006032264
0.0007087796
0.0008012247
0.00088307019
0.00095605043
0.0010215946
0.0010808341
0.0011346367
0.0011837036
0.0012286152
0.0012698511
0.0013078079
0.0013428205
0.0013751754
0.0014051141
0.001432843
0.0014585404
0.0014823606
0.001504438
0.0015248886
0.0015438149
0.0015613081
0.0015774489
0.0015923088
0.0016059478
0.0016184171
0.0016297666
0.0016400408
0.0016492781
0.001657511
0.0016647701
0.0016710856
0.0016764789
0.0016809648
0.0016845602
0.0016872795
0.0016891336
0.0016901342
0.0016902895
0.0016896004
0.0016880749
0.0016857214
0.0016825318
0.0016784971
0.0016736158
0.0016678826
0.0016612891
0.0016538252
0.0016454801
0.0016362399
0.0016260982
0.0016150333
0.0016030106
0.0015900119
0.0015760134
0.001560985
0.0015448942
0.0015277058
0.0015093829
0.0014898884
0.0014691666
0.001447156
0.0014238022
0.0013990396
0.0013727943
0.0013449825
0.001315515
0.0012842877
0.0012511719
0.0012160272
0.0011786922
0.0011389683
0.0010966084
0.0010512871
0.0010025716
0.00094931308
0.0008932338
0.00083881507
0.00078746559
0.00073827082
0.00069053108
0.0006439569
0.00059840929
0.00055380129
0.00051009948
0.00046731651
0.00042550051
0.00038472583
0.00034510504
0.00030680661
0.00027004454
0.0002351652
0.00020253433
0.00017314514
0.00014713337
0.00012955961
0.00011312182
0.00021677175
-0.00020113016
0.0084206531
0.008506544
0.0086857656
0.00891386
0.0091926861
0.0095221255
0.0099004506
0.010327601
0.010805431
0.011337327
0.011928206
0.012584942
0.013316864
0.014137139
0.015063269
0.016122866
0.017348991
0.018814186
0.020569621
0.02289359
0.02570337
0.030614624
0.035364954
0.075469854
0.044533352
-0.0069045071
-0.0060639568
-0.0033678311
-0.0024674903
-0.0016365726
-0.0010447069
-0.0006222119
-0.00029461491
-3.6938518e-05
0.00016898841
0.00033840758
0.00048115903
0.00060327245
0.00070881986
0.00080126018
0.00088310168
0.00095607853
0.0010216198
0.0010808568
0.0011346573
0.0011837223
0.0012286323
0.0012698668
0.0013078222
0.0013428338
0.0013751877
0.0014051255
0.0014328536
0.0014585502
0.0014823697
0.0015044465
0.0015248966
0.0015438224
0.0015613152
0.0015774555
0.0015923151
0.0016059536
0.0016184227
0.0016297718
0.0016400458
0.0016492828
0.0016575155
0.0016647743
0.0016710896
0.0016764827
0.0016809684
0.0016845636
0.0016872828
0.0016891367
0.0016901372
0.0016902923
0.0016896031
0.0016880775
0.0016857239
0.0016825341
0.0016784994
0.001673618
0.0016678847
0.001661291
0.0016538271
0.0016454819
0.0016362417
0.0016260999
0.0016150349
0.0016030121
0.0015900133
0.0015760148
0.0015609863
0.0015448955
0.0015277069
0.001509384
0.0014898895
0.0014691676
0.001447157
0.0014238031
0.0013990405
0.0013727952
0.0013449833
0.0013155158
0.0012842884
0.0012511725
0.0012160279
0.0011786928
0.0011389689
0.0010966089
0.0010512876
0.0010025721
0.00094931348
0.00089323415
0.00083881538
0.00078746586
0.00073827106
0.0006905313
0.0006439571
0.00059840947
0.00055380146
0.00051009964
0.00046731665
0.00042550065
0.00038472595
0.00034510516
0.00030680671
0.00027004464
0.00023516529
0.00020253441
0.00017314523
0.00014713345
0.00012955969
0.0001131219
0.00021677184
-0.00020113011
0.0084206531
0.008506544
0.0086857656
0.00891386
0.0091926862
0.0095221255
0.0099004507
0.010327601
0.010805431
0.011337327
0.011928207
0.012584942
0.013316865
0.01413714
0.015063271
0.016122867
0.017348993
0.018814189
0.020569626
0.022893599
0.025703383
0.030614647
0.035364965
0.075463672
0.044550256
-0.0069009193
-0.0060623598
-0.0033671826
-0.0024671329
-0.0016363234
-0.0010445219
-0.00062206892
-0.00029450053
-3.684481e-05
0.00016906663
0.00033847384
0.00048121586
0.00060332171
0.00070886293
0.00080129813
0.00088313535
0.00095610859
0.0010216468
0.0010808812
0.0011346794
0.0011837424
0.0012286506
0.0012698835
0.0013078377
0.001342848
0.0013752008
0.0014051376
0.0014328649
0.0014585607
0.0014823795
0.0015044556
0.0015249051
0.0015438304
0.0015613227
0.0015774626
0.0015923217
0.0016059599
0.0016184286
0.0016297774
0.0016400511
0.0016492878
0.0016575202
0.0016647789
0.0016710939
0.0016764868
0.0016809723
0.0016845673
0.0016872863
0.0016891401
0.0016901404
0.0016902954
0.001689606
0.0016880802
0.0016857265
0.0016825367
0.0016785018
0.0016736203
0.0016678869
0.0016612932
0.0016538291
0.0016454838
0.0016362435
0.0016261017
0.0016150366
0.0016030137
0.0015900148
0.0015760162
0.0015609877
0.0015448968
0.0015277082
0.0015093853
0.0014898906
0.0014691687
0.001447158
0.0014238041
0.0013990414
0.0013727961
0.0013449842
0.0013155166
0.0012842892
0.0012511732
0.0012160285
0.0011786934
0.0011389695
0.0010966094
0.0010512881
0.0010025726
0.00094931391
0.00089323452
0.0008388157
0.00078746615
0.00073827132
0.00069053153
0.00064395731
0.00059840967
0.00055380163
0.0005100998
0.0004673168
0.00042550079
0.00038472608
0.00034510528
0.00030680683
0.00027004475
0.00023516539
0.00020253451
0.00017314532
0.00014713354
0.00012955978
0.00011312198
0.00021677193
-0.00020113005
0.0084206531
0.008506544
0.0086857657
0.0089138601
0.0091926863
0.0095221257
0.0099004509
0.010327601
0.010805432
0.011337327
0.011928207
0.012584943
0.013316866
0.014137141
0.015063272
0.01612287
0.017348996
0.018814194
0.020569633
0.022893611
0.025703398
0.030614674
0.035364979
0.075456759
0.044567941
-0.0068968539
-0.0060606361
-0.0033664811
-0.002466746
-0.0016360536
-0.0010443216
-0.0006219141
-0.00029437667
-3.6743316e-05
0.00016915135
0.00033854564
0.00048127745
0.00060337508
0.00070890961
0.00080133928
0.00088317187
0.00095614119
0.0010216761
0.0010809076
0.0011347033
0.0011837641
0.0012286705
0.0012699017
0.0013078544
0.0013428634
0.001375215
0.0014051508
0.0014328771
0.001458572
0.0014823901
0.0015044655
0.0015249144
0.0015438391
0.0015613308
0.0015774702
0.0015923289
0.0016059667
0.001618435
0.0016297835
0.0016400568
0.0016492933
0.0016575254
0.0016647838
0.0016710986
0.0016764912
0.0016809765
0.0016845713
0.0016872901
0.0016891437
0.0016901438
0.0016902987
0.0016896092
0.0016880832
0.0016857294
0.0016825394
0.0016785044
0.0016736228
0.0016678893
0.0016612955
0.0016538313
0.0016454859
0.0016362455
0.0016261036
0.0016150384
0.0016030155
0.0015900165
0.0015760178
0.0015609893
0.0015448983
0.0015277096
0.0015093866
0.0014898919
0.0014691699
0.0014471592
0.0014238052
0.0013990424
0.001372797
0.0013449851
0.0013155174
0.00128429
0.001251174
0.0012160292
0.0011786941
0.0011389701
0.00109661
0.0010512887
0.0010025731
0.00094931437
0.00089323493
0.00083881606
0.00078746646
0.0007382716
0.00069053178
0.00064395754
0.00059840988
0.00055380183
0.00051009998
0.00046731697
0.00042550094
0.00038472622
0.00034510541
0.00030680695
0.00027004487
0.0002351655
0.00020253462
0.00017314542
0.00014713364
0.00012955987
0.00011312207
0.00021677203
-0.00020112999
0.0084206531
0.0085065441
0.0086857658
0.0089138602
0.0091926864
0.0095221258
0.009900451
0.010327602
0.010805432
0.011337328
0.011928208
0.012584944
0.013316867
0.014137142
0.015063274
0.016122872
0.017349
0.0188142
0.020569641
0.022893625
0.025703418
0.03061471
0.035364996
0.075448966
0.04458675
-0.006891479
-0.0060587589
-0.003365715
-0.0024663228
-0.0016357586
-0.0010441026
-0.00062174476
-0.00029424116
-3.6632244e-05
0.0001692441
0.00033862425
0.00048134489
0.00060343356
0.00070896076
0.00080138437
0.00088321189
0.00095617694
0.0010217081
0.0010809365
0.0011347295
0.001183788
0.0012286923
0.0012699217
0.0013078727
0.0013428803
0.0013752306
0.0014051653
0.0014328905
0.0014585845
0.0014824018
0.0015044764
0.0015249246
0.0015438486
0.0015613398
0.0015774787
0.0015923369
0.0016059742
0.0016184421
0.0016297902
0.0016400631
0.0016492992
0.0016575311
0.0016647891
0.0016711037
0.0016764961
0.0016809811
0.0016845757
0.0016872943
0.0016891477
0.0016901476
0.0016903023
0.0016896126
0.0016880866
0.0016857326
0.0016825424
0.0016785073
0.0016736256
0.0016678919
0.001661298
0.0016538337
0.0016454882
0.0016362477
0.0016261057
0.0016150404
0.0016030174
0.0015900183
0.0015760196
0.0015609909
0.0015448998
0.0015277111
0.001509388
0.0014898932
0.0014691712
0.0014471604
0.0014238064
0.0013990435
0.0013727981
0.0013449861
0.0013155184
0.0012842909
0.0012511748
0.00121603
0.0011786948
0.0011389708
0.0010966107
0.0010512893
0.0010025736
0.00094931489
0.00089323538
0.00083881645
0.00078746681
0.00073827191
0.00069053206
0.00064395779
0.00059841011
0.00055380204
0.00051010018
0.00046731715
0.00042550111
0.00038472638
0.00034510556
0.00030680709
0.000270045
0.00023516563
0.00020253473
0.00017314553
0.00014713374
0.00012955998
0.00011312216
0.00021677214
-0.00020112992
0.0084206531
0.0085065441
0.0086857658
0.0089138603
0.0091926865
0.009522126
0.0099004513
0.010327602
0.010805432
0.011337328
0.011928209
0.012584945
0.013316868
0.014137144
0.015063277
0.016122876
0.017349005
0.018814207
0.020569651
0.022893643
0.025703442
0.030614755
0.035365018
0.075440106
0.044606935
-0.00688435
-0.0060566962
-0.00336487
-0.0024658554
-0.0016354328
-0.0010438607
-0.00062155764
-0.00029409137
-3.6509428e-05
0.00016934669
0.00033871123
0.00048141955
0.0006034983
0.00070901741
0.00080143432
0.00088325624
0.00095621655
0.0010217437
0.0010809686
0.0011347586
0.0011838145
0.0012287165
0.0012699439
0.0013078931
0.0013428991
0.001375248
0.0014051813
0.0014329055
0.0014585984
0.0014824147
0.0015044885
0.0015249359
0.0015438593
0.0015613498
0.001577488
0.0015923457
0.0016059825
0.00161845
0.0016297976
0.0016400701
0.0016493059
0.0016575374
0.0016647951
0.0016711094
0.0016765015
0.0016809863
0.0016845806
0.001687299
0.0016891521
0.0016901519
0.0016903064
0.0016896165
0.0016880902
0.0016857361
0.0016825458
0.0016785105
0.0016736286
0.0016678948
0.0016613008
0.0016538364
0.0016454907
0.0016362501
0.001626108
0.0016150426
0.0016030195
0.0015900203
0.0015760215
0.0015609928
0.0015449016
0.0015277128
0.0015093896
0.0014898948
0.0014691726
0.0014471618
0.0014238077
0.0013990448
0.0013727992
0.0013449872
0.0013155194
0.0012842919
0.0012511758
0.0012160309
0.0011786956
0.0011389716
0.0010966114
0.0010512899
0.0010025742
0.00094931545
0.00089323588
0.00083881688
0.00078746719
0.00073827225
0.00069053237
0.00064395808
0.00059841037
0.00055380228
0.0005101004
0.00046731736
0.0004255013
0.00038472656
0.00034510573
0.00030680725
0.00027004514
0.00023516577
0.00020253486
0.00017314566
0.00014713386
0.0001295601
0.00011312228
0.00021677226
-0.00020112984
0.0084206531
0.0085065442
0.0086857659
0.0089138604
0.0091926867
0.0095221262
0.0099004516
0.010327602
0.010805433
0.011337329
0.01192821
0.012584946
0.01331687
0.014137146
0.01506328
0.01612288
0.017349011
0.018814216
0.020569663
0.022893665
0.025703472
0.030614812
0.035365047
0.075429956
0.044628698
-0.006875926
-0.0060544115
-0.00336393
-0.0024653343
-0.0016350697
-0.0010435911
-0.00062134897
-0.00029392426
-3.6372364e-05
0.00016946122
0.00033880838
0.00048150296
0.00060357066
0.00070908075
0.0008014902
0.00088330586
0.00095626088
0.0010217835
0.0010810046
0.0011347912
0.0011838441
0.0012287435
0.0012699687
0.0013079159
0.0013429201
0.0013752674
0.0014051994
0.0014329222
0.001458614
0.0014824292
0.0015045021
0.0015249486
0.0015438712
0.001561361
0.0015774985
0.0015923556
0.0016059918
0.0016184588
0.0016298059
0.001640078
0.0016493134
0.0016575444
0.0016648018
0.0016711157
0.0016765075
0.001680992
0.0016845861
0.0016873042
0.0016891571
0.0016901566
0.0016903109
0.0016896208
0.0016880944
0.00168574
0.0016825495
0.0016785141
0.0016736321
0.0016678981
0.0016613039
0.0016538393
0.0016454936
0.0016362529
0.0016261106
0.0016150451
0.0016030219
0.0015900226
0.0015760237
0.0015609948
0.0015449036
0.0015277147
0.0015093914
0.0014898965
0.0014691742
0.0014471633
0.0014238091
0.0013990461
0.0013728006
0.0013449884
0.0013155206
0.001284293
0.0012511768
0.0012160319
0.0011786966
0.0011389724
0.0010966122
0.0010512907
0.0010025749
0.00094931609
0.00089323644
0.00083881737
0.00078746763
0.00073827264
0.00069053273
0.0006439584
0.00059841067
0.00055380255
0.00051010065
0.00046731759
0.00042550152
0.00038472676
0.00034510592
0.00030680743
0.00027004531
0.00023516592
0.00020253501
0.0001731458
0.00014713399
0.00012956023
0.0001131224
0.0002167724
-0.00020112976
0.0084206531
0.0085065443
0.0086857661
0.0089138606
0.0091926869
0.0095221265
0.0099004519
0.010327603
0.010805434
0.01133733
0.011928211
0.012584947
0.013316872
0.014137149
0.015063284
0.016122885
0.017349018
0.018814227
0.020569678
0.022893692
0.025703509
0.030614884
0.035365082
0.075418253
0.044652233
-0.0068666515
-0.006051864
-0.0033628765
-0.0024647491
-0.0016346619
-0.0010432882
-0.00062111451
-0.00029373641
-3.6218209e-05
0.00016959009
0.00033891774
0.0004815969
0.00060365218
0.00070915214
0.0008015532
0.00088336184
0.00095631091
0.0010218285
0.0010810452
0.001134828
0.0011838776
0.0012287742
0.0012699968
0.0013079417
0.0013429439
0.0013752894
0.0014052197
0.0014329411
0.0014586316
0.0014824457
0.0015045175
0.001524963
0.0015438846
0.0015613736
0.0015775105
0.0015923668
0.0016060024
0.0016184688
0.0016298154
0.001640087
0.0016493218
0.0016575525
0.0016648094
0.001671123
0.0016765144
0.0016809986
0.0016845923
0.0016873101
0.0016891628
0.001690162
0.001690316
0.0016896257
0.001688099
0.0016857445
0.0016825538
0.0016785182
0.0016736359
0.0016679018
0.0016613074
0.0016538427
0.0016454968
0.001636256
0.0016261136
0.001615048
0.0016030246
0.0015900252
0.0015760261
0.0015609972
0.0015449058
0.0015277168
0.0015093934
0.0014898984
0.0014691761
0.0014471651
0.0014238108
0.0013990477
0.001372802
0.0013449898
0.0013155219
0.0012842942
0.001251178
0.001216033
0.0011786976
0.0011389734
0.0010966131
0.0010512915
0.0010025757
0.00094931682
0.00089323707
0.00083881793
0.00078746813
0.00073827309
0.00069053313
0.00064395877
0.00059841101
0.00055380287
0.00051010094
0.00046731786
0.00042550177
0.00038472699
0.00034510614
0.00030680763
0.0002700455
0.0002351661
0.00020253518
0.00017314596
0.00014713415
0.00012956039
0.00011312255
0.00021677257
-0.00020112966
0.0084206531
0.0085065444
0.0086857662
0.0089138608
0.0091926872
0.0095221268
0.0099004524
0.010327603
0.010805434
0.011337331
0.011928212
0.012584949
0.013316874
0.014137152
0.015063288
0.016122892
0.017349027
0.01881424
0.020569697
0.022893725
0.025703555
0.030614974
0.035365127
0.075404685
0.044677731
-0.0068563928
-0.0060490078
-0.0033616889
-0.0024640877
-0.0016342011
-0.001042946
-0.0006208494
-0.00029352389
-3.6043728e-05
0.00016973603
0.00033904165
0.00048170338
0.00060374464
0.00070923314
0.00080162471
0.00088342539
0.00095636774
0.0010218796
0.0010810913
0.0011348698
0.0011839158
0.001228809
0.0012700287
0.0013079711
0.001342971
0.0013753145
0.001405243
0.0014329627
0.0014586517
0.0014824644
0.001504535
0.0015249794
0.0015439
0.0015613881
0.001577524
0.0015923796
0.0016060145
0.0016184801
0.0016298261
0.0016400971
0.0016493314
0.0016575616
0.0016648181
0.0016711312
0.0016765222
0.001681006
0.0016845994
0.0016873168
0.0016891692
0.0016901681
0.0016903219
0.0016896313
0.0016881043
0.0016857496
0.0016825586
0.0016785228
0.0016736404
0.0016679061
0.0016613115
0.0016538466
0.0016455005
0.0016362595
0.0016261169
0.0016150512
0.0016030277
0.0015900281
0.0015760289
0.0015609998
0.0015449084
0.0015277192
0.0015093957
0.0014899006
0.0014691781
0.001447167
0.0014238127
0.0013990495
0.0013728037
0.0013449914
0.0013155234
0.0012842957
0.0012511793
0.0012160343
0.0011786988
0.0011389745
0.0010966141
0.0010512925
0.0010025766
0.00094931764
0.0008932378
0.00083881857
0.0007874687
0.0007382736
0.0006905336
0.00064395919
0.0005984114
0.00055380323
0.00051010127
0.00046731817
0.00042550206
0.00038472726
0.00034510639
0.00030680787
0.00027004573
0.00023516631
0.00020253538
0.00017314615
0.00014713433
0.00012956057
0.00011312271
0.00021677276
-0.00020112954
0.0084206531
0.0085065446
0.0086857664
0.008913861
0.0091926875
0.0095221273
0.009900453
0.010327604
0.010805435
0.011337332
0.011928214
0.012584952
0.013316877
0.014137157
0.015063294
0.0161229
0.017349038
0.018814256
0.02056972
0.022893766
0.025703609
0.030615083
0.035365182
0.075388878
0.044705357
-0.0068449121
-0.0060457916
-0.0033603436
-0.0024633365
-0.0016336778
-0.0010425573
-0.00062054814
-0.00029328225
-3.5845235e-05
0.00016990215
0.00033918276
0.00048182472
0.00060385005
0.00070932552
0.0008017063
0.00088349795
0.00095643264
0.0010219379
0.001081144
0.0011349177
0.0011839593
0.0012288488
0.0012700653
0.0013080047
0.001343002
0.0013753432
0.0014052696
0.0014329874
0.0014586747
0.0014824859
0.0015045551
0.0015249982
0.0015439176
0.0015614046
0.0015775396
0.0015923943
0.0016060283
0.0016184932
0.0016298385
0.0016401088
0.0016493425
0.0016575721
0.0016648281
0.0016711406
0.0016765312
0.0016810145
0.0016846075
0.0016873246
0.0016891765
0.0016901751
0.0016903286
0.0016896377
0.0016881104
0.0016857554
0.0016825642
0.0016785281
0.0016736454
0.0016679109
0.0016613161
0.001653851
0.0016455048
0.0016362635
0.0016261208
0.0016150549
0.0016030312
0.0015900315
0.0015760321
0.0015610029
0.0015449113
0.001527722
0.0015093984
0.0014899031
0.0014691805
0.0014471693
0.0014238148
0.0013990515
0.0013728057
0.0013449932
0.0013155251
0.0012842973
0.0012511809
0.0012160357
0.0011787001
0.0011389758
0.0010966153
0.0010512936
0.0010025777
0.00094931859
0.00089323864
0.00083881932
0.00078746936
0.0007382742
0.00069053414
0.00064395969
0.00059841185
0.00055380365
0.00051010166
0.00046731853
0.00042550239
0.00038472758
0.00034510668
0.00030680814
0.00027004599
0.00023516656
0.00020253562
0.00017314638
0.00014713454
0.00012956078
0.00011312291
0.00021677298
-0.0002011294
0.0084206531
0.0085065447
0.0086857666
0.0089138613
0.0091926879
0.0095221278
0.0099004536
0.010327605
0.010805436
0.011337334
0.011928216
0.012584954
0.013316881
0.014137162
0.015063301
0.016122909
0.017349051
0.018814276
0.020569747
0.022893814
0.025703675
0.030615216
0.035365251
0.075370384
0.044735248
-0.0068319925
-0.0060421572
-0.0033588138
-0.00246248
-0.0016330813
-0.0010421141
-0.00062020444
-0.00029300641
-3.5618524e-05
0.00017009198
0.00033934411
0.00048196353
0.0006039707
0.00070943133
0.0008017998
0.00088358112
0.00095650707
0.0010220049
0.0010812045
0.0011349726
0.0011840094
0.0012288946
0.0012701073
0.0013080434
0.0013430377
0.0013753762
0.0014053002
0.0014330159
0.0014587012
0.0014825106
0.0015045782
0.0015250198
0.0015439379
0.0015614237
0.0015775575
0.0015924111
0.0016060442
0.0016185082
0.0016298527
0.0016401222
0.0016493552
0.0016575842
0.0016648395
0.0016711515
0.0016765415
0.0016810244
0.0016846169
0.0016873335
0.001689185
0.0016901832
0.0016903363
0.001689645
0.0016881175
0.0016857621
0.0016825706
0.0016785342
0.0016736513
0.0016679165
0.0016613214
0.0016538561
0.0016455096
0.0016362682
0.0016261252
0.0016150591
0.0016030352
0.0015900353
0.0015760358
0.0015610064
0.0015449146
0.0015277252
0.0015094014
0.001489906
0.0014691833
0.0014471719
0.0014238173
0.0013990539
0.0013728079
0.0013449954
0.0013155271
0.0012842992
0.0012511827
0.0012160374
0.0011787017
0.0011389773
0.0010966167
0.0010512949
0.0010025789
0.00094931968
0.00089323961
0.00083882017
0.00078747013
0.00073827489
0.00069053477
0.00064396027
0.00059841238
0.00055380414
0.00051010211
0.00046731895
0.00042550279
0.00038472795
0.00034510703
0.00030680847
0.00027004629
0.00023516685
0.00020253589
0.00017314664
0.00014713479
0.00012956103
0.00011312314
0.00021677324
-0.00020112924
0.0084206531
0.0085065449
0.0086857669
0.0089138617
0.0091926883
0.0095221284
0.0099004544
0.010327606
0.010805438
0.011337335
0.011928218
0.012584958
0.013316885
0.014137168
0.015063309
0.016122921
0.017349067
0.018814299
0.02056978
0.022893871
0.025703753
0.030615375
0.035365337
0.075348663
0.04476749
-0.0068174094
-0.0060380389
-0.0033570691
-0.0024615003
-0.0016323993
-0.0010416072
-0.00061981113
-0.00029269059
-3.5358796e-05
0.00017030959
0.00033952917
0.00048212283
0.00060410924
0.00070955287
0.00080190725
0.00088367675
0.00095659268
0.0010220819
0.0010812742
0.0011350359
0.0011840671
0.0012289474
0.0012701557
0.001308088
0.0013430789
0.0013754143
0.0014053355
0.0014330487
0.0014587318
0.0014825392
0.0015046048
0.0015250448
0.0015439614
0.0015614457
0.0015775782
0.0015924307
0.0016060626
0.0016185256
0.0016298691
0.0016401378
0.00164937
0.0016575981
0.0016648527
0.0016711641
0.0016765535
0.0016810357
0.0016846277
0.0016873438
0.0016891948
0.0016901926
0.0016903452
0.0016896535
0.0016881256
0.0016857698
0.001682578
0.0016785413
0.001673658
0.0016679229
0.0016613276
0.001653862
0.0016455152
0.0016362735
0.0016261303
0.001615064
0.0016030399
0.0015900398
0.00157604
0.0015610105
0.0015449185
0.0015277288
0.0015094049
0.0014899093
0.0014691865
0.0014471749
0.0014238202
0.0013990566
0.0013728105
0.0013449978
0.0013155294
0.0012843013
0.0012511847
0.0012160393
0.0011787035
0.001138979
0.0010966183
0.0010512964
0.0010025803
0.00094932095
0.00089324074
0.00083882117
0.00078747102
0.0007382757
0.0006905355
0.00064396094
0.000598413
0.00055380471
0.00051010265
0.00046731945
0.00042550325
0.00038472838
0.00034510743
0.00030680885
0.00027004665
0.00023516719
0.00020253621
0.00017314695
0.00014713509
0.00012956133
0.00011312341
0.00021677355
-0.00020112905
0.0084206531
0.0085065452
0.0086857673
0.0089138621
0.0091926889
0.0095221291
0.0099004554
0.010327607
0.01080544
0.011337338
0.011928221
0.012584962
0.013316891
0.014137175
0.015063318
0.016122934
0.017349086
0.018814327
0.020569818
0.022893938
0.025703845
0.030615562
0.035365444
0.075323069
0.044802105
-0.0068008992
-0.0060333625
-0.0033550748
-0.0024603773
-0.0016316177
-0.0010410262
-0.00061936004
-0.00029232815
-3.5060572e-05
0.00017055959
0.00033974191
0.00048230605
0.00060426866
0.0007096928
0.00080203102
0.00088378696
0.00095669139
0.0010221708
0.0010813546
0.0011351089
0.0011841337
0.0012290083
0.0012702116
0.0013081395
0.0013431264
0.0013754583
0.0014053763
0.0014330867
0.0014587672
0.0014825722
0.0015046357
0.0015250737
0.0015439885
0.0015614712
0.0015776022
0.0015924532
0.0016060839
0.0016185457
0.0016298881
0.0016401558
0.001649387
0.0016576143
0.0016648681
0.0016711786
0.0016765673
0.0016810489
0.0016846402
0.0016873557
0.0016892062
0.0016902034
0.0016903555
0.0016896634
0.0016881349
0.0016857788
0.0016825865
0.0016785495
0.0016736658
0.0016679304
0.0016613347
0.0016538688
0.0016455217
0.0016362797
0.0016261363
0.0016150696
0.0016030453
0.0015900449
0.001576045
0.0015610151
0.0015449229
0.0015277331
0.001509409
0.0014899132
0.0014691901
0.0014471784
0.0014238235
0.0013990597
0.0013728134
0.0013450006
0.0013155321
0.0012843039
0.0012511871
0.0012160415
0.0011787056
0.0011389809
0.0010966201
0.0010512981
0.0010025819
0.00094932242
0.00089324205
0.00083882234
0.00078747207
0.00073827665
0.00069053637
0.00064396173
0.00059841373
0.00055380539
0.00051010327
0.00046732003
0.00042550379
0.00038472889
0.00034510791
0.0003068093
0.00027004708
0.00023516759
0.00020253659
0.00017314731
0.00014713543
0.00012956167
0.00011312374
0.00021677392
-0.00020112882
0.0084206531
0.0085065455
0.0086857676
0.0089138626
0.0091926896
0.00952213
0.0099004565
0.010327609
0.010805442
0.01133734
0.011928225
0.012584966
0.013316897
0.014137183
0.01506333
0.01612295
0.017349107
0.018814359
0.020569863
0.022894016
0.025703951
0.03061578
0.035365576
0.075292826
0.044839019
-0.0067821492
-0.0060280437
-0.0033527915
-0.0024590877
-0.0016307204
-0.0010403592
-0.00061884183
-0.00029191156
-3.4717592e-05
0.00017084727
0.00033998684
0.00048251711
0.0006044524
0.00070985418
0.00080217383
0.00088391417
0.00095680537
0.0010222735
0.0010814475
0.0011351934
0.0011842107