/*--------------------------------*- C++ -*----------------------------------*\
| =========                 |                                                 |
| \\      /  F ield         | OpenFOAM: The Open Source CFD Toolbox           |
|  \\    /   O peration     | Version:  2206                                  |
|   \\  /    A nd           | Website:  www.openfoam.com                      |
|    \\/     M anipulation  |                                                 |
\*---------------------------------------------------------------------------*/
FoamFile
{
    version     2.0;
    format      ascii;
    arch        "LSB;label=32;scalar=64";
    class       surfaceScalarField;
    location    "400";
    object      phi;
}
// * * * * * * * * * * * * * * * * * * * * * * * * * * * * * * * * * * * * * //

dimensions      [0 3 -1 0 0 0 0];

oriented        oriented;

internalField   nonuniform List<scalar> 
25880
(
2.0046515e-06
2.6500807e-12
2.004646e-06
5.5090939e-12
2.0046398e-06
6.1652025e-12
2.0046329e-06
6.8983464e-12
2.0046248e-06
8.097129e-12
2.0046153e-06
9.5373287e-12
2.004604e-06
1.1258e-11
2.0045907e-06
1.3367506e-11
2.0045747e-06
1.5972564e-11
2.0045555e-06
1.920124e-11
2.0045323e-06
2.3228232e-11
2.0045039e-06
2.8319753e-11
2.0044691e-06
3.4825323e-11
2.0044257e-06
4.3410722e-11
2.004371e-06
5.4716007e-11
2.0042999e-06
7.1086809e-11
2.0042072e-06
9.2665576e-11
2.0040754e-06
1.318723e-10
2.0038996e-06
1.757737e-10
2.003591e-06
3.085952e-10
2.0032028e-06
3.8823769e-10
2.0022563e-06
9.4644775e-10
2.0020945e-06
1.6185056e-10
1.0049823e-06
9.9711211e-07
5.1384785e-09
9.9984387e-07
3.1356666e-09
2.0028118e-09
2.7710366e-09
3.6462995e-10
2.6223834e-09
1.486532e-10
2.5398963e-09
8.2487078e-11
2.4817917e-09
5.8104617e-11
2.4382719e-09
4.3519769e-11
2.4043103e-09
3.396165e-11
2.3768778e-09
2.7432518e-11
2.3541773e-09
2.2700496e-11
2.3350348e-09
1.9142412e-11
2.3186454e-09
1.6389397e-11
2.3044374e-09
1.4208084e-11
2.2919883e-09
1.2449019e-11
2.2809789e-09
1.1009441e-11
2.2711635e-09
9.8153894e-12
2.2623502e-09
8.8133075e-12
2.2543863e-09
7.9639099e-12
2.2471487e-09
7.2375764e-12
2.2405371e-09
6.6115719e-12
2.2344689e-09
6.0682279e-12
2.2288753e-09
5.5936292e-12
2.2236986e-09
5.1767083e-12
2.21889e-09
4.8085613e-12
2.2144081e-09
4.4819407e-12
2.2102172e-09
4.1908962e-12
2.2062866e-09
3.9305163e-12
2.2025899e-09
3.6967237e-12
2.1991038e-09
3.4861029e-12
2.1958081e-09
3.2957687e-12
2.1926848e-09
3.1232717e-12
2.1897183e-09
2.9665243e-12
2.1868945e-09
2.8237409e-12
2.1842011e-09
2.693384e-12
2.181627e-09
2.5741203e-12
2.1791622e-09
2.4647832e-12
2.1767979e-09
2.3643544e-12
2.1745259e-09
2.2719497e-12
2.1723391e-09
2.1867941e-12
2.1702309e-09
2.1082005e-12
2.1681954e-09
2.0355599e-12
2.166227e-09
1.9683321e-12
2.164321e-09
1.9060369e-12
2.1624727e-09
1.8482454e-12
2.1606782e-09
1.794576e-12
2.1589335e-09
1.7446862e-12
2.1572352e-09
1.6982616e-12
2.1555802e-09
1.6550186e-12
2.1539655e-09
1.6147057e-12
2.1523884e-09
1.5770905e-12
2.1508464e-09
1.5419682e-12
2.1493373e-09
1.509164e-12
2.1478588e-09
1.4784829e-12
2.146409e-09
1.4497613e-12
2.1449862e-09
1.4228741e-12
2.1435885e-09
1.3976851e-12
2.1422144e-09
1.374072e-12
2.1408625e-09
1.3519156e-12
2.1395314e-09
1.3311102e-12
2.1382198e-09
1.3115688e-12
2.1369266e-09
1.2931988e-12
2.1356507e-09
1.2758736e-12
2.1343911e-09
1.2596661e-12
2.1331467e-09
1.2443405e-12
2.1319169e-09
1.2297836e-12
2.1307008e-09
1.2161424e-12
2.1294976e-09
1.2032378e-12
2.1283065e-09
1.1910229e-12
2.1271271e-09
1.1794478e-12
2.1259586e-09
1.168466e-12
2.1248006e-09
1.158032e-12
2.1236525e-09
1.1480944e-12
2.1225139e-09
1.1386071e-12
2.1213844e-09
1.1295393e-12
2.1202635e-09
1.1208569e-12
2.119151e-09
1.112517e-12
2.1180465e-09
1.1044803e-12
2.1169498e-09
1.0967137e-12
2.1158606e-09
1.0891808e-12
2.1147788e-09
1.0818381e-12
2.1137041e-09
1.0746494e-12
2.1126365e-09
1.0675824e-12
2.1115759e-09
1.0605846e-12
2.1105224e-09
1.0535929e-12
2.1094759e-09
1.0464866e-12
2.1084367e-09
1.0392106e-12
2.1074061e-09
1.0305644e-12
2.1063826e-09
1.0235269e-12
2.1053885e-09
9.9407189e-13
2.1044987e-09
8.8978156e-13
2.1037254e-09
7.73303e-13
2.103043e-09
6.8244547e-13
2.1024334e-09
6.0957198e-13
2.1018833e-09
5.5004998e-13
2.1013832e-09
5.0014823e-13
2.1009258e-09
4.5737239e-13
2.1005056e-09
4.2019174e-13
2.1001181e-09
3.8757345e-13
2.0997593e-09
3.5874328e-13
2.0994262e-09
3.3310329e-13
2.099116e-09
3.1019568e-13
2.0988263e-09
2.8966078e-13
2.0985551e-09
2.7123384e-13
2.0983004e-09
2.5467259e-13
2.0980605e-09
2.3998704e-13
2.0978337e-09
2.2673856e-13
2.0976171e-09
2.1660091e-13
2.0974118e-09
2.053005e-13
2.0972048e-09
2.0704963e-13
2.0970131e-09
1.9168598e-13
2.0968002e-09
2.1289081e-13
1.3369718e-13
2.0345253e-06
5.4011634e-12
2.0345196e-06
1.1234672e-11
2.0345132e-06
1.2579619e-11
2.034506e-06
1.4076384e-11
2.0344976e-06
1.6520773e-11
2.0344877e-06
1.9456406e-11
2.0344759e-06
2.2962655e-11
2.0344621e-06
2.7260108e-11
2.0344455e-06
3.2565872e-11
2.0344255e-06
3.9140378e-11
2.0344014e-06
4.7338836e-11
2.034372e-06
5.7702517e-11
2.0343359e-06
7.0941966e-11
2.0342909e-06
8.8410707e-11
2.0342342e-06
1.1140946e-10
2.0341606e-06
1.4470614e-10
2.0340647e-06
1.885881e-10
2.0339283e-06
2.6829638e-10
2.0337465e-06
3.5753895e-10
2.0334276e-06
6.2745467e-10
2.0330264e-06
7.8950833e-10
2.0320482e-06
1.9246212e-09
2.0318801e-06
3.2998102e-10
1.0269138e-06
2.0020784e-06
1.5674473e-08
2.0110832e-06
9.5817374e-09
8.0955471e-09
8.4650308e-09
1.4813366e-09
8.0093187e-09
6.0436525e-10
7.7564064e-09
3.353994e-10
7.5782581e-09
2.3625289e-10
7.4448235e-09
1.7695439e-10
7.3406916e-09
1.3809356e-10
7.2565753e-09
1.1154885e-10
7.1869655e-09
9.2310273e-11
7.1282637e-09
7.7844186e-11
7.0780019e-09
6.6651195e-11
7.0344275e-09
5.7782503e-11
6.9962461e-09
5.0630426e-11
6.9624784e-09
4.4777161e-11
6.9323717e-09
3.9922073e-11
6.9053375e-09
3.584745e-11
6.8809079e-09
3.2393569e-11
6.8587054e-09
2.9440021e-11
6.8384226e-09
2.689438e-11
6.819806e-09
2.4684816e-11
6.8026449e-09
2.2754759e-11
6.7867624e-09
2.1059214e-11
6.772009e-09
1.9561982e-11
6.7582573e-09
1.8233599e-11
6.7453983e-09
1.7049873e-11
6.733338e-09
1.5990835e-11
6.7219948e-09
1.503991e-11
6.7112977e-09
1.4183209e-11
6.7011845e-09
1.3409003e-11
6.6916004e-09
1.2707331e-11
6.6824972e-09
1.2069708e-11
6.6738321e-09
1.1488871e-11
6.6655669e-09
1.0958571e-11
6.6576677e-09
1.0473384e-11
6.6501039e-09
1.0028568e-11
6.6428482e-09
9.6199831e-12
6.6358762e-09
9.2440328e-12
6.6291654e-09
8.8975655e-12
6.6226958e-09
8.5777882e-12
6.6164491e-09
8.2822236e-12
6.6104088e-09
8.0086756e-12
6.6045596e-09
7.7551913e-12
6.5988879e-09
7.5200264e-12
6.5933808e-09
7.3016298e-12
6.5880269e-09
7.0986081e-12
6.5828155e-09
6.9096828e-12
6.5777368e-09
6.7337008e-12
6.5727818e-09
6.5696388e-12
6.5679424e-09
6.4165543e-12
6.5632107e-09
6.2736076e-12
6.5585798e-09
6.1400942e-12
6.5540431e-09
6.0152236e-12
6.5495945e-09
5.8983228e-12
6.5452285e-09
5.7888867e-12
6.5409398e-09
5.6863612e-12
6.5367236e-09
5.5902493e-12
6.5325755e-09
5.5000654e-12
6.5284912e-09
5.4153807e-12
6.524467e-09
5.3358405e-12
6.5204991e-09
5.2610685e-12
6.5165844e-09
5.1905509e-12
6.5127195e-09
5.1245808e-12
6.5089016e-09
5.062203e-12
6.5051285e-09
5.0029581e-12
6.5013972e-09
4.9474387e-12
6.4977055e-09
4.8949203e-12
6.4940513e-09
4.8452114e-12
6.4904326e-09
4.7981091e-12
6.4868477e-09
4.7534238e-12
6.4832947e-09
4.7109712e-12
6.4797723e-09
4.6705422e-12
6.4762789e-09
4.6319492e-12
6.4728134e-09
4.595067e-12
6.4693745e-09
4.5597572e-12
6.4659612e-09
4.5258448e-12
6.4625725e-09
4.4931708e-12
6.4592076e-09
4.4615998e-12
6.4558658e-09
4.4309848e-12
6.4525465e-09
4.4011484e-12
6.4492492e-09
4.3719437e-12
6.4459735e-09
4.3432394e-12
6.4427193e-09
4.314822e-12
6.4394865e-09
4.2864359e-12
6.4362754e-09
4.2575898e-12
6.4330865e-09
4.2280606e-12
6.4299241e-09
4.1929738e-12
6.4267832e-09
4.1644176e-12
6.4237323e-09
4.0449528e-12
6.4210007e-09
3.6213744e-12
6.418626e-09
3.1480101e-12
6.4165299e-09
2.7786015e-12
6.4146572e-09
2.4822143e-12
6.4129672e-09
2.2400674e-12
6.4114303e-09
2.0370206e-12
6.4100248e-09
1.8629455e-12
6.4087333e-09
1.711623e-12
6.407542e-09
1.5788561e-12
6.4064393e-09
1.4614979e-12
6.4054153e-09
1.3571176e-12
6.4044616e-09
1.263854e-12
6.403571e-09
1.1802444e-12
6.4027371e-09
1.1052123e-12
6.401954e-09
1.037772e-12
6.401216e-09
9.779643e-13
6.4005187e-09
9.2400338e-13
6.3998526e-09
8.826997e-13
6.3992213e-09
8.366549e-13
6.3985846e-09
8.4371608e-13
6.3979957e-09
7.8060589e-13
6.3973385e-09
8.7003177e-13
5.4137898e-13
2.0947182e-06
8.3142418e-12
2.0947121e-06
1.7306344e-11
2.0947053e-06
1.9391206e-11
2.0946977e-06
2.1699949e-11
2.0946887e-06
2.5464894e-11
2.0946782e-06
2.998464e-11
2.0946658e-06
3.5380925e-11
2.094651e-06
4.1992822e-11
2.0946335e-06
5.0153828e-11
2.0946123e-06
6.0263781e-11
2.0945868e-06
7.2867936e-11
2.0945557e-06
8.8797147e-11
2.0945175e-06
1.0914187e-10
2.0944699e-06
1.3597948e-10
2.09441e-06
1.7130529e-10
2.0943323e-06
2.2243578e-10
2.0942311e-06
2.8980722e-10
2.0940872e-06
4.1214486e-10
2.0938957e-06
5.4909232e-10
2.09356e-06
9.6316027e-10
2.0931374e-06
1.2120978e-09
2.0921072e-06
2.9547998e-09
2.0919299e-06
5.0727935e-10
1.0645642e-06
3.0294441e-06
2.7087181e-08
3.0485602e-06
1.6574055e-08
1.8608673e-08
1.4636121e-08
3.419271e-09
1.3844454e-08
1.3960323e-09
1.3404937e-08
7.7491643e-10
1.3095362e-08
5.4582762e-10
1.2863481e-08
4.0883548e-10
1.268251e-08
3.1906469e-10
1.2536313e-08
2.5774555e-10
1.241532e-08
2.1330295e-10
1.231328e-08
1.7988442e-10
1.2225905e-08
1.5402676e-10
1.2150149e-08
1.3353817e-10
1.2083765e-08
1.170148e-10
1.202505e-08
1.0349156e-10
1.1972698e-08
9.2274097e-11
1.1925686e-08
8.2859545e-11
1.1883201e-08
7.4878956e-11
1.1844586e-08
6.8054197e-11
1.1809309e-08
6.2171783e-11
1.1776928e-08
5.7065788e-11
1.1747077e-08
5.2605536e-11
1.1719449e-08
4.8687089e-11
1.1693785e-08
4.5226829e-11
1.1669861e-08
4.2156689e-11
1.1647491e-08
3.9420782e-11
1.1626508e-08
3.697298e-11
1.1606773e-08
3.4774984e-11
1.1588162e-08
3.2794714e-11
1.1570566e-08
3.1005067e-11
1.155389e-08
2.9383036e-11
1.1538051e-08
2.7909011e-11
1.1522973e-08
2.6566216e-11
1.1508592e-08
2.5340209e-11
1.1494847e-08
2.4218463e-11
1.1481685e-08
2.3190018e-11
1.146906e-08
2.2245308e-11
1.1456928e-08
2.1376025e-11
1.1445251e-08
2.0574886e-11
1.1433993e-08
1.9835437e-11
1.1423123e-08
1.9151954e-11
1.1412613e-08
1.8519362e-11
1.1402435e-08
1.7933148e-11
1.1392565e-08
1.7389282e-11
1.1382983e-08
1.688418e-11
1.1373667e-08
1.6414621e-11
1.1364599e-08
1.5977652e-11
1.1355762e-08
1.5570607e-11
1.134714e-08
1.5191122e-11
1.133872e-08
1.4837021e-11
1.1330487e-08
1.4506352e-11
1.132243e-08
1.41975e-11
1.1314536e-08
1.3908644e-11
1.1306797e-08
1.363821e-11
1.12992e-08
1.338504e-11
1.1291739e-08
1.3147854e-11
1.1284404e-08
1.2925502e-11
1.1277187e-08
1.2716863e-11
1.1270081e-08
1.2520945e-11
1.126308e-08
1.2336928e-11
1.1256177e-08
1.2163944e-11
1.1249367e-08
1.2000806e-11
1.1242643e-08
1.1848185e-11
1.1236002e-08
1.1703881e-11
1.1229438e-08
1.1566836e-11
1.1222947e-08
1.1438407e-11
1.1216525e-08
1.1316927e-11
1.1210168e-08
1.1201954e-11
1.1203873e-08
1.1093017e-11
1.1197637e-08
1.098968e-11
1.1191456e-08
1.0891515e-11
1.1185329e-08
1.0798041e-11
1.1179252e-08
1.0708823e-11
1.1173224e-08
1.0623573e-11
1.1167241e-08
1.054197e-11
1.1161304e-08
1.0463611e-11
1.1155409e-08
1.0388127e-11
1.1149555e-08
1.0315208e-11
1.1143742e-08
1.0244512e-11
1.1137967e-08
1.0175631e-11
1.1132231e-08
1.0108225e-11
1.1126532e-08
1.0041991e-11
1.112087e-08
9.9764359e-12
1.1115246e-08
9.9109699e-12
1.1109659e-08
9.8444594e-12
1.1104111e-08
9.776388e-12
1.1098608e-08
9.6955146e-12
1.1093143e-08
9.6296954e-12
1.1087833e-08
9.3545408e-12
1.1083077e-08
8.377231e-12
1.1078941e-08
7.2842176e-12
1.1075289e-08
6.4307474e-12
1.1072026e-08
5.7457025e-12
1.106908e-08
5.1858496e-12
1.10664e-08
4.7162935e-12
1.106395e-08
4.31367e-12
1.1061698e-08
3.9636247e-12
1.105962e-08
3.6564663e-12
1.1057697e-08
3.3849275e-12
1.105591e-08
3.1433936e-12
1.1054247e-08
2.9275643e-12
1.1052693e-08
2.7340601e-12
1.1051238e-08
2.5603932e-12
1.1049871e-08
2.4042854e-12
1.1048583e-08
2.2658311e-12
1.1047366e-08
2.1409013e-12
1.1046204e-08
2.0452391e-12
1.1045102e-08
1.9386176e-12
1.1043991e-08
1.9547605e-12
1.1042964e-08
1.8080004e-12
1.1041815e-08
2.0188977e-12
1.2506502e-12
2.1861271e-06
1.1458486e-11
2.1861205e-06
2.3871594e-11
2.1861131e-06
2.6768889e-11
2.1861049e-06
2.9958482e-11
2.1860952e-06
3.5150923e-11
2.1860838e-06
4.1381419e-11
2.1860704e-06
4.8817003e-11
2.1860544e-06
5.792419e-11
2.1860354e-06
6.916147e-11
2.1860126e-06
8.3078201e-11
2.185985e-06
1.0042337e-10
2.1859515e-06
1.2233827e-10
2.1859103e-06
1.5032039e-10
2.1858591e-06
1.8722283e-10
2.1857946e-06
2.3578422e-10
2.185711e-06
3.0605115e-10
2.1856022e-06
3.9861467e-10
2.1854477e-06
5.6663754e-10
2.1852421e-06
7.546858e-10
2.1848822e-06
1.3230514e-09
2.184429e-06
1.6652835e-09
2.1833242e-06
4.0595725e-09
2.1831337e-06
6.9784268e-10
1.1188217e-06
4.0937561e-06
4.0036596e-08
4.1273453e-06
2.450886e-08
3.4136409e-08
2.1629355e-08
6.2987769e-09
2.0451474e-08
2.5739128e-09
1.9797184e-08
1.4292063e-09
1.933636e-08
1.0066518e-09
1.8991175e-08
7.5402011e-10
1.8721747e-08
5.8849279e-10
1.8504066e-08
4.7542639e-10
1.8323893e-08
3.9347584e-10
1.8171926e-08
3.3185154e-10
1.8041785e-08
2.8416836e-10
1.7928938e-08
2.4638469e-10
1.7830041e-08
2.15912e-10
1.7742562e-08
1.9097092e-10
1.7664554e-08
1.7028139e-10
1.7594498e-08
1.5291633e-10
1.7531181e-08
1.3819548e-10
1.7473629e-08
1.2560603e-10
1.7421047e-08
1.1475437e-10
1.7372778e-08
1.0533457e-10
1.7328278e-08
9.7105666e-11
1.7287089e-08
8.9876017e-11
1.7248824e-08
8.3491431e-11
1.7213154e-08
7.7826392e-11
1.7179797e-08
7.2777845e-11
1.714851e-08
6.8260722e-11
1.711908e-08
6.4204396e-11
1.7091325e-08
6.0549704e-11
1.7065084e-08
5.7246662e-11
1.7040214e-08
5.4252837e-11
1.7016591e-08
5.1532065e-11
1.6994104e-08
4.9053402e-11
1.6972654e-08
4.6790213e-11
1.6952153e-08
4.4719389e-11
1.6932522e-08
4.2820719e-11
1.6913691e-08
4.1076557e-11
1.6895595e-08
3.9471577e-11
1.6878178e-08
3.7992343e-11
1.6861386e-08
3.6626951e-11
1.6845173e-08
3.5364842e-11
1.6829496e-08
3.4196655e-11
1.6814315e-08
3.3114066e-11
1.6799595e-08
3.2109636e-11
1.6785302e-08
3.1176756e-11
1.6771407e-08
3.0309485e-11
1.6757883e-08
2.9502372e-11
1.6744703e-08
2.87505e-11
1.6731844e-08
2.8049507e-11
1.6719286e-08
2.7395387e-11
1.6707008e-08
2.6784512e-11
1.6694991e-08
2.6213927e-11
1.668322e-08
2.5680287e-11
1.6671677e-08
2.5180651e-11
1.6660349e-08
2.4712898e-11
1.6649223e-08
2.4274668e-11
1.6638284e-08
2.3863838e-11
1.6627523e-08
2.3478339e-11
1.6616927e-08
2.3116344e-11
1.6606488e-08
2.2776338e-11
1.6596195e-08
2.2456718e-11
1.6586041e-08
2.2155304e-11
1.6576016e-08
2.1873308e-11
1.6566113e-08
2.1606698e-11
1.6556326e-08
2.1353524e-11
1.6546648e-08
2.1116265e-11
1.6537073e-08
2.0891863e-11
1.6527596e-08
2.0679497e-11
1.651821e-08
2.0478302e-11
1.6508913e-08
2.0287471e-11
1.6499698e-08
2.0106217e-11
1.6490562e-08
1.993365e-11
1.6481502e-08
1.9768969e-11
1.6472514e-08
1.9611642e-11
1.6463595e-08
1.9461079e-11
1.6454742e-08
1.9316536e-11
1.6445953e-08
1.9177334e-11
1.6437225e-08
1.9042898e-11
1.6428557e-08
1.8912601e-11
1.6419947e-08
1.878569e-11
1.6411394e-08
1.8661537e-11
1.6402896e-08
1.8539586e-11
1.6394454e-08
1.8418927e-11
1.6386066e-08
1.8298474e-11
1.6377735e-08
1.8176139e-11
1.636946e-08
1.8050967e-11
1.6361253e-08
1.7902276e-11
1.6353102e-08
1.7781261e-11
1.634518e-08
1.7275907e-11
1.6338081e-08
1.5476688e-11
1.6331903e-08
1.3462367e-11
1.6326445e-08
1.1888259e-11
1.6321567e-08
1.0624097e-11
1.6317162e-08
9.5905174e-12
1.6313155e-08
8.7233911e-12
1.6309489e-08
7.9797067e-12
1.630612e-08
7.3330227e-12
1.6303011e-08
6.7654798e-12
1.6300132e-08
6.2636812e-12
1.6297458e-08
5.8172747e-12
1.6294967e-08
5.4183293e-12
1.6292641e-08
5.0606116e-12
1.6290461e-08
4.7395317e-12
1.6288415e-08
4.4508861e-12
1.6286486e-08
4.1948496e-12
1.6284663e-08
3.9638031e-12
1.6282921e-08
3.7868005e-12
1.628127e-08
3.5895984e-12
1.6279606e-08
3.6189483e-12
1.6278067e-08
3.3467346e-12
1.6276345e-08
3.7416884e-12
2.3121741e-12
2.3101142e-06
1.4914607e-11
2.310107e-06
3.1103257e-11
2.3100989e-06
3.4911397e-11
2.3100897e-06
3.9074937e-11
2.310079e-06
4.5839285e-11
2.3100665e-06
5.3951535e-11
2.3100517e-06
6.3627939e-11
2.3100341e-06
7.5474528e-11
2.3100132e-06
9.0086402e-11
2.3099881e-06
1.0817607e-10
2.3099578e-06
1.3071471e-10
2.309921e-06
1.5918214e-10
2.3098758e-06
1.9551952e-10
2.3098196e-06
2.4342551e-10
2.3097489e-06
3.0644783e-10
2.3096573e-06
3.9760783e-10
2.3095383e-06
5.1765914e-10
2.3093694e-06
7.3548712e-10
2.3091449e-06
9.7921381e-10
2.3087524e-06
1.7155498e-09
2.308258e-06
2.1597187e-09
2.3070527e-06
5.2648712e-09
2.3068441e-06
9.0642933e-10
1.1908606e-06
5.2097396e-06
5.5264784e-08
5.2629411e-06
3.3832275e-08
5.5568917e-08
2.9831867e-08
1.0299185e-08
2.819273e-08
4.2130499e-09
2.7281577e-08
2.3403594e-09
2.6639874e-08
1.6483545e-09
2.6159179e-08
1.2347148e-09
2.5783924e-08
9.6374815e-10
2.5480695e-08
7.7865564e-10
2.5229677e-08
6.4449373e-10
2.5017924e-08
5.4360449e-10
2.4836556e-08
4.6553631e-10
2.4679268e-08
4.0367258e-10
2.4541404e-08
3.5377609e-10
2.441944e-08
3.1293441e-10
2.4310669e-08
2.7905254e-10
2.4212972e-08
2.5061312e-10
2.4124665e-08
2.2650268e-10
2.4044389e-08
2.0588182e-10
2.3971038e-08
1.8810624e-10
2.3903697e-08
1.7267513e-10
2.3841609e-08
1.5919405e-10
2.3784135e-08
1.4734928e-10
2.3730738e-08
1.3688837e-10
2.3680959e-08
1.2760584e-10
2.3634404e-08
1.1933297e-10
2.3590734e-08
1.1193047e-10
2.3549656e-08
1.0528271e-10
2.3510913e-08
9.9292802e-11
2.347428e-08
9.3878908e-11
2.3439562e-08
8.8971542e-11
2.3406582e-08
8.4511485e-11
2.3375188e-08
8.0448064e-11
2.334524e-08
7.6737655e-11
2.3316617e-08
7.3342419e-11
2.3289209e-08
7.0229252e-11
2.3262916e-08
6.7369254e-11
2.323765e-08
6.4737323e-11
2.3213331e-08
6.2311451e-11
2.3189886e-08
6.0072142e-11
2.3167249e-08
5.8002099e-11
2.3145359e-08
5.608599e-11
2.3124163e-08
5.4310178e-11
2.310361e-08
5.266248e-11
2.3083655e-08
5.1132068e-11
2.3064255e-08
4.970921e-11
2.3045373e-08
4.8384974e-11
2.3026972e-08
4.715131e-11
2.300902e-08
4.6001068e-11
2.2991488e-08
4.4927695e-11
2.2974347e-08
4.3925213e-11
2.2957572e-08
4.2988817e-11
2.294114e-08
4.2113043e-11
2.2925027e-08
4.1293026e-11
2.2909215e-08
4.0525305e-11
2.2893684e-08
3.9806022e-11
2.2878416e-08
3.9131696e-11
2.2863395e-08
3.8498939e-11
2.2848607e-08
3.7904756e-11
2.2834036e-08
3.7346666e-11
2.2819671e-08
3.682204e-11
2.2805499e-08
3.6327323e-11
2.2791508e-08
3.5864454e-11
2.2777688e-08
3.5426875e-11
2.276403e-08
3.5011404e-11
2.2750524e-08
3.4622042e-11
2.2737162e-08
3.425382e-11
2.2723936e-08
3.3905387e-11
2.2710839e-08
3.3575324e-11
2.2697864e-08
3.326231e-11
2.2685006e-08
3.2965058e-11
2.2672257e-08
3.268211e-11
2.2659614e-08
3.2412152e-11
2.2647071e-08
3.2154311e-11
2.2634625e-08
3.1907626e-11
2.262227e-08
3.1670879e-11
2.2610005e-08
3.1442957e-11
2.2597825e-08
3.1222918e-11
2.2585728e-08
3.1009739e-11
2.2573711e-08
3.0802184e-11
2.2561773e-08
3.0599229e-11
2.2549913e-08
3.039996e-11
2.2538129e-08
3.0202895e-11
2.2526421e-08
3.0006253e-11
2.2514791e-08
2.9806623e-11
2.2503239e-08
2.9602436e-11
2.2491782e-08
2.9359926e-11
2.24804e-08
2.9162549e-11
2.2469337e-08
2.8339497e-11
2.2459413e-08
2.5400067e-11
2.2450771e-08
2.2104765e-11
2.2443132e-08
1.9526977e-11
2.2436301e-08
1.7455264e-11
2.2430131e-08
1.5760556e-11
2.2424516e-08
1.433822e-11
2.2419378e-08
1.3118022e-11
2.2414654e-08
1.2056731e-11
2.2410295e-08
1.1125131e-11
2.2406257e-08
1.03013e-11
2.2402506e-08
9.5682899e-12
2.2399011e-08
8.913115e-12
2.2395746e-08
8.3255656e-12
2.2392688e-08
7.7981232e-12
2.2389815e-08
7.3239012e-12
2.2387106e-08
6.9031884e-12
2.2384547e-08
6.5235016e-12
2.2382101e-08
6.2324613e-12
2.2379782e-08
5.9083863e-12
2.2377445e-08
5.9555891e-12
2.2375285e-08
5.5071734e-12
2.2372864e-08
6.1630113e-12
3.8026835e-12
2.4685273e-06
1.8779001e-11
2.4685192e-06
3.9208709e-11
2.4685101e-06
4.4058153e-11
2.4684998e-06
4.9318027e-11
2.4684878e-06
5.7843636e-11
2.4684737e-06
6.8061741e-11
2.4684571e-06
8.0242889e-11
2.4684374e-06
9.5148403e-11
2.468414e-06
1.1352515e-10
2.4683859e-06
1.3626655e-10
2.468352e-06
1.6459006e-10
2.4683108e-06
2.0035065e-10
2.4682604e-06
2.4598075e-10
2.4681977e-06
3.0611575e-10
2.4681189e-06
3.8519788e-10
2.468017e-06
4.9954197e-10
2.4678846e-06
6.500739e-10
2.467697e-06
9.2307482e-10
2.4674478e-06
1.2284417e-09
2.4670128e-06
2.1505429e-09
2.4664646e-06
2.7079198e-09
2.4651283e-06
6.601149e-09
2.4648961e-06
1.138675e-09
1.2821788e-06
6.3924569e-06
7.3636899e-08
6.4714829e-06
4.5063732e-08
8.4142085e-08
3.9692448e-08
1.5670469e-08
3.748714e-08
6.4183588e-09
3.6260206e-08
3.567293e-09
3.5396145e-08
2.5124151e-09
3.4748851e-08
1.882009e-09
3.4243441e-08
1.469158e-09
3.383496e-08
1.1871372e-09
3.349675e-08
9.8270397e-10
3.321139e-08
8.2896428e-10
3.2966931e-08
7.099946e-10
3.2754891e-08
6.157127e-10
3.2569004e-08
5.3966301e-10
3.240453e-08
4.7740898e-10
3.2257823e-08
4.2575937e-10
3.2126033e-08
3.8240276e-10
3.2006893e-08
3.4564282e-10
3.1898574e-08
3.1420073e-10
3.1799586e-08
2.8709501e-10
3.1708698e-08
2.6356221e-10
3.1624891e-08
2.4300177e-10
3.1547305e-08
2.2493549e-10
3.1475214e-08
2.0897873e-10
3.1408002e-08
1.9481835e-10
3.1345137e-08
1.8219722e-10
3.1286165e-08
1.7090309e-10
3.1230688e-08
1.6075969e-10
3.1178361e-08
1.5161938e-10
3.1128883e-08
1.4335741e-10
3.1081986e-08
1.3586788e-10
3.1037437e-08
1.290605e-10
3.0995027e-08
1.2285805e-10
3.0954571e-08
1.1719401e-10
3.0915903e-08
1.120107e-10
3.0878874e-08
1.0725766e-10
3.0843353e-08
1.0289082e-10
3.0809218e-08
9.887191e-11
3.0776362e-08
9.5167371e-11
3.0744687e-08
9.1747477e-11
3.0714103e-08
8.8585856e-11
3.068453e-08
8.5659129e-11
3.0655894e-08
8.2946501e-11
3.0628127e-08
8.0429392e-11
3.0601168e-08
7.8091291e-11
3.0574959e-08
7.5917356e-11
3.054945e-08
7.3893967e-11
3.0524593e-08
7.2008844e-11
3.0500343e-08
7.0251085e-11
3.047666e-08
6.8610703e-11
3.0453507e-08
6.7078545e-11
3.0430848e-08
6.5647317e-11
3.0408652e-08
6.4308718e-11
3.038689e-08
6.3055265e-11
3.0365534e-08
6.188169e-11
3.0344558e-08
6.0782121e-11
3.0323938e-08
5.9751251e-11
3.0303653e-08
5.8783909e-11
3.0283682e-08
5.787553e-11
3.0264007e-08
5.7022327e-11
3.0244608e-08
5.6220292e-11
3.0225472e-08
5.5464025e-11
3.020658e-08
5.4756403e-11
3.0187919e-08
5.4087509e-11
3.0169478e-08
5.3452514e-11
3.0151243e-08
5.285741e-11
3.0133202e-08
5.2294692e-11
3.0115345e-08
5.1762289e-11
3.0097662e-08
5.1258037e-11
3.0080145e-08
5.077992e-11
3.0062784e-08
5.0325977e-11
3.0045572e-08
4.9893986e-11
3.0028502e-08
4.948194e-11
3.0011568e-08
4.9088511e-11
2.9994763e-08
4.8712237e-11
2.9978083e-08
4.8351261e-11
2.9961522e-08
4.8003887e-11
2.9945076e-08
4.7668681e-11
2.9928742e-08
4.7344085e-11
2.9912516e-08
4.7028216e-11
2.9896395e-08
4.6719512e-11
2.9880379e-08
4.6416587e-11
2.9864465e-08
4.6117183e-11
2.9848652e-08
4.5818588e-11
2.9832943e-08
4.5515616e-11
2.981734e-08
4.5205867e-11
2.9801862e-08
4.4838058e-11
2.9786486e-08
4.4538689e-11
2.9771532e-08
4.3292625e-11
2.9758107e-08
3.8825054e-11
2.9746404e-08
3.3808113e-11
2.9736053e-08
2.9878508e-11
2.972679e-08
2.6717554e-11
2.9718421e-08
2.4130109e-11
2.9710801e-08
2.1957497e-11
2.9703826e-08
2.0092998e-11
2.9697412e-08
1.8470848e-11
2.9691491e-08
1.7046569e-11
2.9686005e-08
1.578677e-11
2.9680908e-08
1.4665629e-11
2.9676158e-08
1.3663353e-11
2.9671719e-08
1.2764376e-11
2.966756e-08
1.1957235e-11
2.9663652e-08
1.1231424e-11
2.9659968e-08
1.0587392e-11
2.9656486e-08
1.0006099e-11
2.9653158e-08
9.5602241e-12
2.9650002e-08
9.064084e-12
2.9646823e-08
9.1344691e-12
2.9643884e-08
8.4463774e-12
2.9640587e-08
9.4603727e-12
5.8314595e-12
2.663727e-06
2.3168933e-11
2.6637178e-06
4.8441403e-11
2.6637073e-06
5.4502974e-11
2.6636956e-06
6.1017651e-11
2.6636819e-06
7.1548787e-11
2.6636658e-06
8.4161583e-11
2.6636469e-06
9.9187322e-11
2.6636244e-06
1.1756284e-10
2.6635978e-06
1.402062e-10
2.6635658e-06
1.682145e-10
2.6635273e-06
2.0308217e-10
2.6634806e-06
2.4708618e-10
2.6634234e-06
3.0321113e-10
2.6633523e-06
3.7714544e-10
2.6632632e-06
4.7433497e-10
2.6631479e-06
6.1479501e-10
2.6629984e-06
7.9963509e-10
2.6627868e-06
1.1346678e-09
2.6625059e-06
1.5092878e-09
2.6620166e-06
2.6398557e-09
2.6613997e-06
3.3248662e-09
2.659896e-06
8.1048288e-09
2.6596333e-06
1.4013925e-09
1.3946425e-06
7.6574476e-06
9.6187888e-08
7.7699376e-06
5.8823108e-08
1.2150686e-07
5.1744071e-08
2.2749506e-08
4.8830676e-08
9.331754e-09
4.7208143e-08
5.1898258e-09
4.6065527e-08
3.6550305e-09
4.520951e-08
2.7380262e-09
4.4540972e-08
2.1376967e-09
4.400052e-08
1.7275892e-09
4.3552942e-08
1.4302814e-09
4.3175221e-08
1.2066857e-09
4.2851567e-08
1.0336483e-09
4.2570773e-08
8.9650663e-10
4.2324562e-08
7.8587434e-10
4.2106669e-08
6.9530188e-10
4.1912278e-08
6.2015008e-10
4.1737622e-08
5.5705864e-10
4.1579704e-08
5.0356125e-10
4.1436106e-08
4.5779857e-10
4.1304858e-08
4.1834322e-10
4.1184334e-08
3.8408577e-10
4.1073184e-08
3.5415223e-10
4.0970272e-08
3.2784742e-10
4.0874639e-08
3.0461192e-10
4.0785467e-08
2.839903e-10
4.0702055e-08
2.6560859e-10
4.06238e-08
2.4915803e-10
4.0550178e-08
2.3438222e-10
4.0480731e-08
2.2106639e-10
4.0415059e-08
2.0902904e-10
4.0352811e-08
1.981161e-10
4.0293675e-08
1.8819623e-10
4.0237376e-08
1.7915704e-10
4.0183668e-08
1.7090177e-10
4.0132333e-08
1.6334646e-10
4.0083173e-08
1.564177e-10
4.0036012e-08
1.5005136e-10
3.9990692e-08
1.4419173e-10
3.994707e-08
1.3878997e-10
3.9905014e-08
1.3380282e-10
3.9864408e-08
1.291919e-10
3.9825144e-08
1.2492317e-10
3.9787124e-08
1.2096636e-10
3.9750259e-08
1.1729444e-10
3.9714467e-08
1.1388336e-10
3.9679673e-08
1.1071152e-10
3.9645808e-08
1.0775909e-10
3.9612809e-08
1.0500819e-10
3.9580617e-08
1.0244296e-10
3.9549179e-08
1.0004886e-10
3.9518445e-08
9.7812513e-11
3.9488369e-08
9.5723358e-11
3.9458908e-08
9.3769348e-11
3.9430024e-08
9.1939501e-11
3.9401679e-08
9.0226156e-11
3.9373841e-08
8.862079e-11
3.9346476e-08
8.7115673e-11
3.9319557e-08
8.5703277e-11
3.9293055e-08
8.4376958e-11
3.9266946e-08
8.3131197e-11
3.9241207e-08
8.1960157e-11
3.9215815e-08
8.0856022e-11
3.9190748e-08
7.9822834e-11
3.9165989e-08
7.8846309e-11
3.9141522e-08
7.7919451e-11
3.9117329e-08
7.7050801e-11
3.9093394e-08
7.6229556e-11
3.9069704e-08
7.545268e-11
3.9046245e-08
7.4717024e-11
3.9023005e-08
7.4019652e-11
3.8999973e-08
7.3357715e-11
3.8977139e-08
7.2727977e-11
3.8954494e-08
7.2127513e-11
3.8932028e-08
7.1554391e-11
3.8909734e-08
7.1006493e-11
3.8887604e-08
7.0481119e-11
3.8865632e-08
6.9975799e-11
3.8843812e-08
6.9488449e-11
3.8822139e-08
6.9016807e-11
3.8800609e-08
6.8558133e-11
3.8779219e-08
6.8110157e-11
3.8757965e-08
6.7670868e-11
3.8736845e-08
6.723699e-11
3.8715859e-08
6.6804579e-11
3.8695008e-08
6.6366113e-11
3.8674296e-08
6.5918083e-11
3.8653748e-08
6.5386205e-11
3.8633333e-08
6.4953274e-11
3.8613471e-08
6.3155337e-11
3.8595617e-08
5.6678225e-11
3.8580036e-08
4.9389642e-11
3.8566243e-08
4.3671836e-11
3.8553893e-08
3.9067499e-11
3.8542727e-08
3.5295541e-11
3.8532558e-08
3.2126526e-11
3.8523245e-08
2.9405785e-11
3.8514678e-08
2.7037867e-11
3.8506767e-08
2.4958158e-11
3.8499435e-08
2.3118124e-11
3.8492621e-08
2.1480215e-11
3.8486269e-08
2.0015636e-11
3.8480331e-08
1.8701736e-11
3.8474767e-08
1.7521826e-11
3.8469537e-08
1.6460616e-11
3.8464606e-08
1.5518771e-11
3.8459944e-08
1.4668569e-11
3.8455488e-08
1.4015928e-11
3.8451262e-08
1.3290316e-11
3.8447006e-08
1.3390051e-11
3.8443071e-08
1.2381253e-11
3.8438652e-08
1.3879194e-11
8.5496006e-12
2.8986222e-06
2.8229076e-11
2.8986115e-06
5.9115488e-11
2.8985994e-06
6.6611528e-11
2.8985859e-06
7.458455e-11
2.89857e-06
8.7433526e-11
2.8985513e-06
1.0280992e-10
2.8985294e-06
1.2111379e-10
2.8985035e-06
1.434832e-10
2.8984727e-06
1.7103201e-10
2.8984358e-06
2.0508975e-10
2.8983914e-06
2.4746674e-10
2.8983376e-06
3.0092113e-10
2.8982717e-06
3.6906652e-10
2.8981901e-06
4.5879144e-10
2.8980877e-06
5.7668283e-10
2.8979555e-06
7.469704e-10
2.8977842e-06
9.7096018e-10
2.8975422e-06
1.3766912e-09
2.8972213e-06
1.8301762e-09
2.8966633e-06
3.1978372e-09
2.8959594e-06
4.0287473e-09
2.8942442e-06
9.8201036e-09
2.8939426e-06
1.7029994e-09
1.5305409e-06
9.0208493e-06
1.2417771e-07
9.1763008e-06
7.5862992e-08
1.6982158e-07
6.6630471e-08
3.1982028e-08
6.2820418e-08
1.3141807e-08
6.0696033e-08
7.31421e-09
5.9200056e-08
5.1510077e-09
5.8079237e-08
3.8588449e-09
5.7203652e-08
3.0132821e-09
5.6495629e-08
2.4356121e-09
5.5909126e-08
2.0167849e-09
5.5414032e-08
1.7017789e-09
5.4989698e-08
1.4579828e-09
5.4621464e-08
1.2647409e-09
5.4298504e-08
1.1088339e-09
5.4012626e-08
9.8118047e-10
5.3757527e-08
8.7524841e-10
5.352828e-08
7.8630587e-10
5.3320962e-08
7.1087969e-10
5.3132409e-08
6.4635121e-10
5.2960042e-08
5.907101e-10
5.2801734e-08
5.4239368e-10
5.2655715e-08
5.0017092e-10
5.25205e-08
4.6306254e-10
5.2394832e-08
4.302804e-10
5.2277639e-08
4.011829e-10
5.2168005e-08
3.7524311e-10
5.2065137e-08
3.5202598e-10
5.1968349e-08
3.3117022e-10
5.1877042e-08
3.1237314e-10
5.1790692e-08
2.9537898e-10
5.1708838e-08
2.7997058e-10
5.1631071e-08
2.6596282e-10
5.1557031e-08
2.5319731e-10
5.1486395e-08
2.4153762e-10
5.1418876e-08
2.3086541e-10
5.1354216e-08
2.2107719e-10
5.1292185e-08
2.1208254e-10
5.1232574e-08
2.0380292e-10
5.1175195e-08
1.9616946e-10
5.1119876e-08
1.8912115e-10
5.1066464e-08
1.8260388e-10
5.1014818e-08
1.7656965e-10
5.0964808e-08
1.7097579e-10
5.0916319e-08
1.6578415e-10
5.0869241e-08
1.6096081e-10
5.0823477e-08
1.5647533e-10
5.0778937e-08
1.5229973e-10
5.0735536e-08
1.4840879e-10
5.0693199e-08
1.4478013e-10
5.0651855e-08
1.4139326e-10
5.0611438e-08
1.3822927e-10
5.0571888e-08
1.352733e-10
5.0533149e-08
1.3250842e-10
5.0495169e-08
1.2991903e-10
5.0457901e-08
1.2749431e-10
5.04213e-08
1.252223e-10
5.0385323e-08
1.2309208e-10
5.0349933e-08
1.2109304e-10
5.0315095e-08
1.192158e-10
5.0280773e-08
1.1745257e-10
5.0246938e-08
1.1579512e-10
5.0213562e-08
1.142325e-10
5.0180615e-08
1.1277016e-10
5.0148073e-08
1.1138821e-10
5.0115915e-08
1.1007685e-10
5.0084118e-08
1.0884781e-10
5.0052662e-08
1.0768606e-10
5.0021527e-08
1.0658729e-10
4.9990697e-08
1.0554705e-10
4.9960156e-08
1.0456121e-10
4.9929887e-08
1.0362575e-10
4.9899879e-08
1.0273611e-10
4.9870119e-08
1.0188815e-10
4.9840594e-08