/*--------------------------------*- C++ -*----------------------------------*\
| =========                 |                                                 |
| \\      /  F ield         | OpenFOAM: The Open Source CFD Toolbox           |
|  \\    /   O peration     | Version:  2206                                  |
|   \\  /    A nd           | Website:  www.openfoam.com                      |
|    \\/     M anipulation  |                                                 |
\*---------------------------------------------------------------------------*/
FoamFile
{
    version     2.0;
    format      ascii;
    arch        "LSB;label=32;scalar=64";
    class       volVectorField;
    location    "400";
    object      U;
}
// * * * * * * * * * * * * * * * * * * * * * * * * * * * * * * * * * * * * * //

dimensions      [0 1 -1 0 0 0 0];

internalField   nonuniform List<vector> 
13056
(
(1 3.2796689e-11 3.4236268e-25)
(0.99999751 7.7340946e-11 0)
(0.99999453 9.8182712e-11 0)
(0.99999137 1.2463187e-10 0)
(0.99998768 1.6592547e-10 0)
(0.99998334 2.2157699e-10 0)
(0.99997822 2.9636977e-10 0)
(0.99997216 3.9845909e-10 0)
(0.99996495 5.3859457e-10 0)
(0.99995631 7.3155627e-10 0)
(0.99994589 9.9838257e-10 0)
(0.99993325 1.3705075e-09 0)
(0.99991779 1.8928619e-09 0)
(0.99989869 2.6417586e-09 0)
(0.9998747 3.7134472e-09 0)
(0.99984437 5.3543377e-09 0)
(0.99980417 7.699731e-09 0)
(0.9997523 1.2000591e-08 0)
(0.99967348 1.7364684e-08 0)
(0.99957716 3.2760435e-08 0)
(0.99936838 4.3750442e-08 0)
(0.9991878 1.1170977e-07 0)
(0.99843186 2.0441838e-08 -4.7315981e-21)
(0.99901068 0.00012459262 8.4535161e-18)
(0.0034230995 0.00012489598 0)
(0.0016955398 1.8504948e-07 -6.8136168e-18)
(0.0014317522 8.1233278e-09 4.6682521e-23)
(0.001332455 3.3192851e-09 2.3521715e-25)
(0.0012836118 1.8379551e-09 0)
(0.0012502378 1.2836112e-09 0)
(0.0012256771 9.5264896e-10 0)
(0.0012068432 7.3770271e-10 0)
(0.0011918109 5.9104797e-10 0)
(0.0011794862 4.8492546e-10 0)
(0.0011691719 4.0533507e-10 0)
(0.001160395 3.4389511e-10 0)
(0.0011528259 2.9531546e-10 0)
(0.0011462243 2.5622131e-10 0)
(0.0011404094 2.2429723e-10 0)
(0.0011352434 1.9787485e-10 0)
(0.0011306193 1.7574811e-10 0)
(0.0011264527 1.5703402e-10 0)
(0.0011226758 1.4106598e-10 0)
(0.0011192336 1.2733268e-10 0)
(0.001116081 1.1543755e-10 0)
(0.0011131806 1.0506846e-10 0)
(0.0011105014 9.5977186e-11 0)
(0.0011080169 8.7964159e-11 0)
(0.0011057048 8.0867191e-11 0)
(0.0011035461 7.4553283e-11 0)
(0.0011015244 6.89127e-11 0)
(0.0010996254 6.3854404e-11 0)
(0.0010978368 5.9302207e-11 0)
(0.0010961478 5.5191842e-11 0)
(0.0010945491 5.1468816e-11 0)
(0.0010930322 4.8086749e-11 0)
(0.0010915898 4.5005976e-11 0)
(0.0010902154 4.2192377e-11 0)
(0.001088903 3.9616419e-11 0)
(0.0010876475 3.7252364e-11 0)
(0.0010864442 3.5077773e-11 0)
(0.0010852889 3.3073152e-11 0)
(0.0010841777 3.1221434e-11 0)
(0.0010831073 2.9507531e-11 0)
(0.0010820746 2.7918101e-11 0)
(0.0010810766 2.6441349e-11 0)
(0.0010801109 2.506681e-11 0)
(0.0010791751 2.3785158e-11 0)
(0.0010782671 2.2588085e-11 0)
(0.0010773848 2.1468171e-11 0)
(0.0010765265 2.0418706e-11 0)
(0.0010756905 1.9433644e-11 0)
(0.0010748754 1.85076e-11 0)
(0.0010740796 1.7635542e-11 0)
(0.001073302 1.6813682e-11 -5.4123014e-26)
(0.0010725412 1.6037359e-11 0)
(0.0010717963 1.5303026e-11 0)
(0.0010710662 1.4607959e-11 0)
(0.0010703499 1.3948571e-11 0)
(0.0010696466 1.3322515e-11 0)
(0.0010689554 1.2727294e-11 0)
(0.0010682756 1.2160593e-11 0)
(0.0010676066 1.162036e-11 0)
(0.0010669475 1.1104807e-11 0)
(0.0010662979 1.0612202e-11 0)
(0.0010656572 1.0140704e-11 0)
(0.0010650249 9.6898775e-12 0)
(0.0010644004 9.2573238e-12 0)
(0.0010637834 8.8416151e-12 0)
(0.0010631733 8.4429711e-12 0)
(0.0010625699 8.059668e-12 0)
(0.0010619727 7.6908349e-12 0)
(0.0010613815 7.3356626e-12 0)
(0.0010607959 6.9934146e-12 0)
(0.0010602156 6.6634116e-12 0)
(0.0010596403 6.3449831e-12 0)
(0.0010590699 6.0375292e-12 0)
(0.0010585042 5.7405911e-12 0)
(0.0010579428 5.4537279e-12 0)
(0.0010573857 5.1764762e-12 0)
(0.0010568326 4.9084315e-12 0)
(0.0010562835 4.6492535e-12 0)
(0.0010557382 4.398621e-12 0)
(0.0010551965 4.1562105e-12 0)
(0.0010546585 3.9217613e-12 0)
(0.001054124 3.6950608e-12 0)
(0.0010535931 3.4758519e-12 0)
(0.0010530655 3.2638791e-12 0)
(0.0010525415 3.058773e-12 0)
(0.0010520211 2.8604007e-12 0)
(0.0010515043 2.6658935e-12 0)
(0.0010509925 2.4824229e-12 0)
(0.0010504826 2.2608935e-12 0)
(0.0010500119 1.9868211e-12 0)
(0.0010496009 1.7392295e-12 0)
(0.0010492404 1.5428467e-12 0)
(0.00104892 1.3835773e-12 0)
(0.0010486322 1.2524556e-12 0)
(0.0010483713 1.1419132e-12 0)
(0.0010481332 1.0467619e-12 0)
(0.001047915 9.6377464e-13 0)
(0.001047714 8.907552e-13 0)
(0.0010475283 8.2604691e-13 0)
(0.0010473561 7.6836444e-13 0)
(0.0010471959 7.1672128e-13 0)
(0.0010470466 6.7034001e-13 0)
(0.001046907 6.2864746e-13 0)
(0.001046776 5.9112055e-13 0)
(0.0010466529 5.5779044e-13 0)
(0.0010465366 5.2771293e-13 0)
(0.0010464267 5.0458148e-13 0)
(0.0010463205 4.790685e-13 0)
(0.0010462219 4.8210264e-13 0)
(0.0010461139 1.7097906e-12 0)
(0.0010460309 4.8462693e-13 1.1861992e-24)
(0.0010458999 1.2045253e-12 0)
(1 1.0006263e-10 0)
(0.99999746 2.3619852e-10 0)
(0.9999944 3.0002118e-10 0)
(0.99999116 3.8086661e-10 0)
(0.99998738 5.0699961e-10 0)
(0.99998292 6.7694297e-10 0)
(0.99997768 9.0527796e-10 0)
(0.99997147 1.2168675e-09 0)
(0.99996409 1.6444754e-09 0)
(0.99995525 2.2331381e-09 0)
(0.99994459 3.0469489e-09 0)
(0.99993167 4.1816537e-09 0)
(0.99991586 5.7740813e-09 0)
(0.99989635 8.0565903e-09 0)
(0.99987186 1.1322169e-08 0)
(0.99984089 1.6320836e-08 0)
(0.99979988 2.3464123e-08 0)
(0.99974699 3.6558625e-08 0)
(0.99966667 5.2887894e-08 0)
(0.99956854 9.9736925e-08 0)
(0.99935603 1.3321519e-07 0)
(0.99917204 3.4016455e-07 0)
(0.99840227 6.0277282e-08 1.6922193e-20)
(0.99899161 0.00037438284 -5.8951349e-21)
(0.01028031 0.00037551287 0)
(0.0051058438 1.0473435e-06 0)
(0.0043099788 1.8802926e-07 1.2137019e-22)
(0.0040101539 7.6037683e-08 0)
(0.0038625682 4.1826526e-08 0)
(0.0037617493 2.9198206e-08 0)
(0.0036875514 2.1666502e-08 0)
(0.0036306524 1.6747443e-08 0)
(0.0035852363 1.3395866e-08 0)
(0.003547999 1.0974115e-08 0)
(0.0035168344 9.1589083e-09 0)
(0.003490314 7.7589983e-09 0)
(0.003467442 6.6535708e-09 0)
(0.0034474923 5.7651474e-09 0)
(0.0034299194 5.0405117e-09 0)
(0.0034143067 4.4414798e-09 0)
(0.0034003313 3.9404442e-09 0)
(0.0033877379 3.5171629e-09 0)
(0.0033763218 3.1563959e-09 0)
(0.0033659171 2.846465e-09 0)
(0.0033563874 2.578308e-09 0)
(0.0033476201 2.3447993e-09 0)
(0.0033395208 2.1402783e-09 0)
(0.00333201 1.9601977e-09 0)
(0.0033250203 1.8008632e-09 0)
(0.0033184941 1.6592473e-09 0)
(0.0033123817 1.5328549e-09 0)
(0.0033066403 1.4196168e-09 0)
(0.0033012326 1.3178025e-09 0)
(0.0032961262 1.2259528e-09 0)
(0.0032912924 1.1428315e-09 0)
(0.003286706 1.0673869e-09 0)
(0.0032823448 9.987199e-10 0)
(0.003278189 9.3605818e-10 0)
(0.0032742208 8.7873326e-10 0)
(0.0032704246 8.2616286e-10 0)
(0.0032667861 7.7784001e-10 0)
(0.0032632927 7.3332431e-10 0)
(0.003259933 6.922302e-10 0)
(0.0032566964 6.5421742e-10 0)
(0.0032535737 6.1898521e-10 0)
(0.0032505562 5.862677e-10 0)
(0.0032476362 5.5582906e-10 0)
(0.0032448066 5.2745945e-10 0)
(0.003242061 5.0097237e-10 0)
(0.0032393933 4.7620099e-10 0)
(0.0032367981 4.5299422e-10 0)
(0.0032342705 4.3121647e-10 0)
(0.0032318057 4.1074709e-10 0)
(0.0032293997 3.914763e-10 0)
(0.0032270485 3.7330675e-10 -1.2568251e-25)
(0.0032247484 3.5615266e-10 -2.2971571e-25)
(0.0032224961 3.3992828e-10 0)
(0.0032202886 3.2455978e-10 0)
(0.003218123 3.0998513e-10 0)
(0.0032159966 2.9614345e-10 0)
(0.003213907 2.8297999e-10 0)
(0.0032118518 2.7044353e-10 0)
(0.003209829 2.5848847e-10 0)
(0.0032078366 2.4707528e-10 0)
(0.0032058728 2.3616556e-10 0)
(0.0032039358 2.2571721e-10 0)
(0.0032020243 2.1572515e-10 0)
(0.0032001362 2.061319e-10 0)
(0.0031982709 1.9690497e-10 0)
(0.0031964267 1.8805447e-10 0)
(0.0031946025 1.7953911e-10 0)
(0.0031927972 1.7134048e-10 0)
(0.0031910098 1.6344089e-10 0)
(0.0031892394 1.558243e-10 0)
(0.0031874852 1.4847589e-10 0)
(0.0031857462 1.4138117e-10 0)
(0.0031840219 1.3452737e-10 0)
(0.0031823115 1.2790451e-10 0)
(0.0031806145 1.2150295e-10 0)
(0.0031789302 1.1531284e-10 0)
(0.0031772583 1.0932559e-10 0)
(0.0031755983 1.0353396e-10 0)
(0.0031739497 9.7931112e-11 0)
(0.0031723123 9.2510232e-11 0)
(0.0031706857 8.7265903e-11 0)
(0.0031690699 8.2193624e-11 0)
(0.0031674646 7.7287937e-11 0)
(0.0031658698 7.2543495e-11 0)
(0.0031642854 6.7952123e-11 0)
(0.0031627119 6.351143e-11 0)
(0.0031611494 5.9154022e-11 0)
(0.0031596019 5.5053999e-11 0)
(0.0031580601 4.9988638e-11 0)
(0.0031566365 4.3619846e-11 0)
(0.0031553932 3.791684e-11 0)
(0.0031543021 3.3466485e-11 0)
(0.0031533326 2.9896e-11 0)
(0.0031524612 2.6979085e-11 0)
(0.0031516712 2.4533253e-11 0)
(0.0031509504 2.2436454e-11 0)
(0.0031502895 2.0613757e-11 0)
(0.0031496809 1.9014594e-11 0)
(0.0031491184 1.760105e-11 0)
(0.0031485969 1.6343842e-11 0)
(0.0031481118 1.5220547e-11 0)
(0.0031476594 1.4213546e-11 0)
(0.0031472363 1.3309871e-11 0)
(0.0031468396 1.2497652e-11 0)
(0.0031464665 1.1777387e-11 0)
(0.0031461141 1.1127571e-11 0)
(0.0031457811 1.063028e-11 0)
(0.0031454593 1.0075919e-11 0)
(0.0031451605 1.0161396e-11 0)
(0.0031448334 9.4448911e-12 0)
(0.0031445821 1.0463203e-11 -1.8498557e-24)
(0.0031441851 6.5689619e-12 9.2097591e-26)
(1 1.7058171e-10 0)
(0.99999738 4.0285467e-10 0)
(0.99999424 5.1202475e-10 0)
(0.99999089 6.5004014e-10 0)
(0.99998699 8.652132e-10 0)
(0.9999824 1.1550421e-09 0)
(0.99997699 1.5443479e-09 0)
(0.9999706 2.0754598e-09 0)
(0.99996299 2.8041436e-09 0)
(0.99995389 3.8070336e-09 0)
(0.99994293 5.1931675e-09 0)
(0.99992964 7.1254006e-09 0)
(0.9999134 9.836416e-09 0)
(0.99989336 1.3721285e-08 0)
(0.99986822 1.9278026e-08 0)
(0.99983645 2.7781415e-08 0)
(0.99979441 3.9930364e-08 0)
(0.99974021 6.2192913e-08 0)
(0.99965798 8.9950638e-08 0)
(0.99955755 1.6955568e-07 0)
(0.99934032 2.2650348e-07 0)
(0.999152 5.7838992e-07 0)
(0.99836471 1.022853e-07 -8.965478e-21)
(0.99896728 0.0006278205 4.7955641e-55)
(0.017245806 0.00063077034 -4.7951068e-55)
(0.0085800709 3.0519162e-06 0)
(0.0072389577 5.5101411e-07 -7.1378433e-23)
(0.0067332182 2.2299365e-07 0)
(0.0064840857 1.2268606e-07 0)
(0.0063139254 8.5640638e-08 0)
(0.0061886939 6.3551014e-08 0)
(0.0060926532 4.9124027e-08 0)
(0.0060159894 3.9294532e-08 0)
(0.005953127 3.2191969e-08 0)
(0.0059005127 2.6868168e-08 0)
(0.0058557356 2.2762339e-08 0)
(0.0058171156 1.9520158e-08 0)
(0.0057834278 1.6914375e-08 0)
(0.0057537514 1.4788916e-08 0)
(0.0057273837 1.3031816e-08 0)
(0.0057037796 1.1562119e-08 0)
(0.0056825084 1.0320459e-08 0)
(0.0056632248 9.2621451e-09 0)
(0.0056456485 8.3529302e-09 0)
(0.0056295497 7.566238e-09 0)
(0.005614738 6.8811707e-09 0)
(0.0056010542 6.2811283e-09 0)
(0.0055883643 5.7527746e-09 0)
(0.0055765543 5.2852744e-09 0)
(0.0055655269 4.869749e-09 0)
(0.0055551984 4.4988806e-09 0)
(0.0055454966 4.1666004e-09 0)
(0.0055363586 3.8678323e-09 0)
(0.0055277293 3.598297e-09 0)
(0.0055195605 3.3543683e-09 0)
(0.0055118097 3.1329613e-09 0)
(0.0055044393 2.9314393e-09 0)
(0.0054974158 2.7475363e-09 0)
(0.0054907095 2.5792917e-09 0)
(0.0054842937 2.4249975e-09 0)
(0.0054781445 2.2831665e-09 0)
(0.0054722404 2.1525068e-09 0)
(0.0054665621 2.0318873e-09 0)
(0.005461092 1.9203098e-09 0)
(0.0054558143 1.8168921e-09 0)
(0.0054507145 1.7208542e-09 0)
(0.0054457795 1.6315041e-09 0)
(0.0054409974 1.5482263e-09 0)
(0.005436357 1.4704736e-09 0)
(0.0054318485 1.3977565e-09 0)
(0.0054274626 1.3296317e-09 0)
(0.0054231909 1.2657014e-09 0)
(0.0054190255 1.2056116e-09 0)
(0.0054149594 1.1490406e-09 0)
(0.0054109859 1.0957009e-09 0)
(0.005407099 1.0453428e-09 0)
(0.0054032929 9.9771543e-10 0)
(0.0053995624 9.5259939e-10 0)
(0.0053959028 9.0981418e-10 0)
(0.0053923096 8.6918106e-10 0)
(0.0053887785 8.3053919e-10 0)
(0.0053853058 7.9373831e-10 0)
(0.0053818878 7.5864458e-10 0)
(0.0053785212 7.251419e-10 0)
(0.0053752029 6.9311761e-10 0)
(0.00537193 6.6244827e-10 0)
(0.0053687001 6.3311841e-10 0)
(0.0053655099 6.0495991e-10 0)
(0.0053623581 5.778774e-10 0)
(0.0053592421 5.5189998e-10 0)
(0.00535616 5.2690681e-10 0)
(0.0053531098 5.0284374e-10 0)
(0.0053500899 4.7965885e-10 0)
(0.0053470987 4.57305e-10 0)
(0.0053441347 4.3573868e-10 0)
(0.0053411966 4.1491728e-10 0)
(0.0053382832 3.9480335e-10 0)
(0.0053353934 3.7536754e-10 0)
(0.0053325262 3.5658149e-10 0)
(0.0053296805 3.3841625e-10 0)
(0.0053268556 3.2084662e-10 0)
(0.0053240507 3.0385131e-10 0)
(0.0053212653 2.8741018e-10 0)
(0.0053184986 2.7150322e-10 0)
(0.0053157503 2.561145e-10 0)
(0.00531302 2.4123077e-10 0)
(0.0053103074 2.2683599e-10 0)
(0.0053076125 2.1291444e-10 0)
(0.0053049352 1.9944213e-10 0)
(0.0053022761 1.8641199e-10 0)
(0.0052996355 1.7362667e-10 0)
(0.0052970202 1.6159562e-10 0)
(0.0052944146 1.4674257e-10 0)
(0.0052920077 1.2807708e-10 0)
(0.0052899046 1.1135864e-10 0)
(0.0052880585 9.8305924e-11 0)
(0.0052864176 8.7830063e-11 0)
(0.0052849426 7.9269455e-11 0)
(0.005283605 7.2089953e-11 0)
(0.0052823845 6.5934112e-11 0)
(0.0052812651 6.0582348e-11 0)
(0.0052802343 5.5886425e-11 0)
(0.0052792815 5.1735178e-11 0)
(0.0052783978 4.804274e-11 0)
(0.005277576 4.4743342e-11 0)
(0.0052768094 4.1785302e-11 0)
(0.0052760924 3.9130578e-11 0)
(0.00527542 3.6744335e-11 0)
(0.0052747877 3.4628027e-11 0)
(0.0052741904 3.2718522e-11 0)
(0.0052736258 3.1256643e-11 0)
(0.0052730804 2.9627152e-11 0)
(0.0052725737 2.9875329e-11 0)
(0.0052720195 2.7587068e-11 0)
(0.0052715933 3.0831827e-11 0)
(0.0052709201 1.9108728e-11 0)
(1 2.4602076e-10 7.0856339e-25)
(0.99999729 5.8146616e-10 0)
(0.99999403 7.3959139e-10 0)
(0.99999056 9.3901912e-10 0)
(0.99998651 1.2496701e-09 0)
(0.99998174 1.6679656e-09 0)
(0.99997613 2.2296474e-09 0)
(0.99996951 2.9956809e-09 0)
(0.99996163 4.0463591e-09 0)
(0.99995221 5.4919871e-09 0)
(0.99994087 7.4894689e-09 0)
(0.99992713 1.0273098e-08 0)
(0.99991034 1.4177539e-08 0)
(0.99988965 1.9770907e-08 0)
(0.99986371 2.776911e-08 0)
(0.99983095 4.0004518e-08 0)
(0.99978763 5.7480708e-08 0)
(0.99973182 8.9491778e-08 0)
(0.99964722 1.2939606e-07 0)
(0.99954397 2.4378212e-07 0)
(0.99932092 3.2571274e-07 0)
(0.99912724 8.3173128e-07 0)
(0.99831839 1.4735401e-07 0)
(0.99893717 0.00088864902 -2.5018393e-55)
(0.024415338 0.00089463093 2.5016039e-55)
(0.012161452 6.2271046e-06 0)
(0.010252768 1.1372198e-06 0)
(0.0095320027 4.6053332e-07 0)
(0.009176616 2.5343066e-07 0)
(0.0089339109 1.7689822e-07 0)
(0.0087552909 1.31273e-07 0)
(0.0086182919 1.0147562e-07 0)
(0.0085089209 8.117403e-08 0)
(0.0084192297 6.650438e-08 0)
(0.008344152 5.5508349e-08 0)
(0.0082802507 4.7027842e-08 0)
(0.0082251301 4.0331047e-08 0)
(0.0081770439 3.4948592e-08 0)
(0.0081346793 3.0558128e-08 0)
(0.0080970344 2.6928448e-08 0)
(0.008063332 2.3892366e-08 0)
(0.008032958 2.1327275e-08 0)
(0.0080054198 1.9140875e-08 0)
(0.0079803178 1.7262441e-08 0)
(0.0079573243 1.5637084e-08 0)
(0.0079361676 1.4221643e-08 0)
(0.0079166208 1.2981834e-08 0)
(0.0078984926 1.1890112e-08 0)
(0.0078816203 1.09241e-08 0)
(0.0078658654 1.0065457e-08 0)
(0.0078511083 9.2990691e-09 0)
(0.007837246 8.6124016e-09 0)
(0.0078241886 7.9949688e-09 0)
(0.0078118577 7.4379318e-09 0)
(0.0078001845 6.9338003e-09 0)
(0.0077891083 6.4762015e-09 0)
(0.0077785754 6.0596889e-09 0)
(0.0077685381 5.6795817e-09 0)
(0.0077589539 5.3318295e-09 0)
(0.0077497847 5.012904e-09 0)
(0.0077409964 4.719733e-09 0)
(0.0077325583 4.4496474e-09 0)
(0.0077244429 4.2003102e-09 0)
(0.0077166251 3.9696594e-09 0)
(0.0077090822 3.7558723e-09 0)
(0.0077017937 3.5573371e-09 0)
(0.0076947407 3.3726246e-09 0)
(0.0076879061 3.2004625e-09 0)
(0.0076812743 3.0397206e-09 0)
(0.007674831 2.8893875e-09 0)
(0.0076685629 2.7485469e-09 0)
(0.0076624582 2.6163768e-09 0)
(0.0076565055 2.492146e-09 0)
(0.0076506948 2.3751904e-09 0)
(0.0076450165 2.2649124e-09 -1.4512793e-25)
(0.0076394621 2.1608002e-09 0)
(0.0076340232 2.0623355e-09 0)
(0.0076286926 1.969061e-09 0)
(0.0076234633 1.8806063e-09 0)
(0.007618329 1.7966014e-09 0)
(0.0076132836 1.7167139e-09 0)
(0.0076083216 1.6406332e-09 0)
(0.0076034379 1.5680827e-09 0)
(0.0075986278 1.4988223e-09 0)
(0.0075938867 1.4326193e-09 0)
(0.0075892107 1.3692185e-09 0)
(0.0075845961 1.3085871e-09 0)
(0.0075800383 1.2503786e-09 0)
(0.0075755356 1.1943959e-09 0)
(0.007571084 1.140698e-09 0)
(0.0075666807 1.0890358e-09 0)
(0.0075623232 1.0392972e-09 0)
(0.0075580089 9.9137476e-10 0)
(0.0075537357 9.4517101e-10 0)
(0.0075495015 9.0059593e-10 0)
(0.0075453042 8.5756139e-10 0)
(0.0075411422 8.159899e-10 0)
(0.0075370139 7.7582068e-10 0)
(0.0075329177 7.3699504e-10 0)
(0.0075288524 6.9945313e-10 0)
(0.0075248167 6.6314272e-10 0)
(0.0075208096 6.2801976e-10 0)
(0.00751683 5.9404256e-10 0)
(0.0075128773 5.6116969e-10 0)
(0.0075089507 5.2936813e-10 0)
(0.0075050498 4.9861044e-10 0)
(0.0075011741 4.688634e-10 0)
(0.0074973234 4.4009449e-10 0)
(0.0074934978 4.1225411e-10 0)
(0.0074896981 3.8532754e-10 0)
(0.0074859245 3.5890775e-10 0)
(0.0074821869 3.340446e-10 0)
(0.007478463 3.0337204e-10 0)
(0.0074750213 2.648467e-10 0)
(0.0074720121 2.3033101e-10 0)
(0.0074693692 2.0336968e-10 0)
(0.0074670192 1.8172335e-10 0)
(0.0074649062 1.6402942e-10 0)
(0.0074629896 1.4918727e-10 0)
(0.0074612403 1.3645949e-10 0)
(0.0074596357 1.2539289e-10 0)
(0.0074581577 1.1568145e-10 0)
(0.0074567914 1.0709562e-10 0)
(0.0074555241 9.9458079e-11 0)
(0.0074543452 9.2632976e-11 0)
(0.0074532454 8.6513544e-11 0)
(0.0074522167 8.102119e-11 0)
(0.0074512518 7.6083931e-11 0)
(0.0074503443 7.1704758e-11 0)
(0.007449487 6.7753205e-11 0)
(0.0074486766 6.4726811e-11 0)
(0.0074478937 6.1354236e-11 0)
(0.0074471662 6.1861271e-11 0)
(0.0074463712 5.7194287e-11 0)
(0.0074457591 6.3923133e-11 0)
(0.0074447923 3.9538133e-11 0)
(1 3.2819297e-10 0)
(0.99999719 7.7640818e-10 0)
(0.99999378 9.8841611e-10 0)
(0.99999015 1.2550503e-09 0)
(0.99998592 1.6699749e-09 0)
(0.99998094 2.2284642e-09 0)
(0.99997509 2.978112e-09 0)
(0.99996818 4.0001209e-09 0)
(0.99995997 5.4013988e-09 0)
(0.99995016 7.3287596e-09 0)
(0.99993836 9.9909755e-09 0)
(0.99992407 1.3699707e-08 0)
(0.99990662 1.8899997e-08 0)
(0.99988514 2.6347157e-08 0)
(0.99985822 3.6992611e-08 0)
(0.99982426 5.3271332e-08 0)
(0.99977939 7.6515275e-08 0)
(0.99972162 1.1907033e-07 0)
(0.99963416 1.7210534e-07 0)
(0.99952748 3.2404879e-07 0)
(0.99929739 4.3303327e-07 0)
(0.99909724 1.1057829e-06 0)
(0.99826232 1.9633158e-07 0)
(0.9989006 0.001160547 0)
(0.031885452 0.0011705969 0)
(0.015894131 1.0737672e-05 0)
(0.013385982 1.9747184e-06 0)
(0.01243716 8.0041538e-07 -4.6320129e-24)
(0.011968799 4.4062344e-07 0)
(0.011648965 3.0754852e-07 0)
(0.011413589 2.2823221e-07 0)
(0.011233032 1.7643853e-07 0)
(0.011088865 1.4114988e-07 0)
(0.010970621 1.1564975e-07 0)
(0.010871629 9.6534776e-08 0)
(0.01078736 8.1792172e-08 0)
(0.01071466 7.0149862e-08 0)
(0.010651229 6.0792006e-08 0)
(0.010595337 5.315836e-08 0)
(0.010545666 4.6847115e-08 0)
(0.010501192 4.1567717e-08 0)
(0.010461105 3.7107063e-08 0)
(0.010424757 3.330473e-08 0)
(0.010391621 3.0037792e-08 0)
(0.010361266 2.7210841e-08 0)
(0.010333333 2.4748857e-08 0)
(0.010307523 2.2592246e-08 0)
(0.010283584 2.0693125e-08 0)
(0.010261302 1.9012594e-08 0)
(0.010240494 1.7518771e-08 0)
(0.010221003 1.618538e-08 0)
(0.010202693 1.4990628e-08 0)
(0.010185445 1.3916287e-08 0)
(0.010169156 1.2946987e-08 0)
(0.010153734 1.2069706e-08 0)
(0.010139102 1.1273363e-08 0)
(0.010125186 1.0548489e-08 0)
(0.010111925 9.8869428e-09 0)
(0.010099262 9.2816824e-09 0)
(0.010087147 8.7265719e-09 0)
(0.010075535 8.216269e-09 0)
(0.010064386 7.7461315e-09 0)
(0.010053663 7.3120955e-09 0)
(0.010043333 6.9105744e-09 0)
(0.010033366 6.5383981e-09 0)
(0.010023736 6.1927638e-09 0)
(0.010014417 5.871185e-09 0)
(0.010005386 5.5714489e-09 0)
(0.0099966239 5.2915896e-09 0)
(0.0099881107 5.0298476e-09 0)
(0.0099798291 4.7846289e-09 0)
(0.0099717634 4.5545037e-09 0)
(0.0099638989 4.3381995e-09 0)
(0.0099562221 4.1345622e-09 0)
(0.0099487204 3.9425483e-09 -1.6205368e-25)
(0.0099413825 3.7612709e-09 0)
(0.0099341974 3.5898299e-09 0)
(0.0099271556 3.4274244e-09 0)
(0.0099202478 3.2734121e-09 0)
(0.0099134656 3.1271494e-09 0)
(0.009906801 2.9880574e-09 0)
(0.0099002468 2.8555956e-09 0)
(0.0098937963 2.7292826e-09 0)
(0.009887443 2.6087004e-09 0)
(0.0098811811 2.4934437e-09 0)
(0.0098750053 2.3830691e-09 0)
(0.0098689107 2.2775169e-09 0)
(0.0098628913 2.1761865e-09 0)
(0.0098569447 2.0787352e-09 0)
(0.0098510657 1.9852624e-09 0)
(0.0098452506 1.8953363e-09 0)
(0.0098394961 1.8087614e-09 0)
(0.0098337987 1.7253506e-09 0)
(0.0098281556 1.6449337e-09 0)
(0.0098225639 1.5673541e-09 0)
(0.0098170211 1.4924582e-09 0)
(0.0098115249 1.4201106e-09 0)
(0.0098060732 1.3502056e-09 0)
(0.0098006638 1.2826407e-09 0)
(0.0097952952 1.2173116e-09 0)
(0.0097899655 1.1541272e-09 0)
(0.0097846735 1.0930105e-09 0)
(0.0097794179 1.0338888e-09 0)
(0.0097741975 9.7668979e-10 0)
(0.0097690114 9.2135584e-10 0)
(0.0097638591 8.6783894e-10 0)
(0.0097587398 8.1608119e-10 0)
(0.0097536534 7.6602577e-10 0)
(0.0097485999 7.1758637e-10 0)
(0.0097435803 6.7073706e-10 0)
(0.0097385949 6.2477175e-10 0)
(0.0097336566 5.8150897e-10 0)
(0.0097287362 5.2820216e-10 0)
(0.0097241857 4.6130515e-10 0)
(0.0097202033 4.0134434e-10 0)
(0.0097167035 3.5446762e-10 0)
(0.00971359 3.1680973e-10 0)
(0.0097107893 2.8601428e-10 0)
(0.0097082482 2.601741e-10 0)
(0.0097059283 2.3800989e-10 0)
(0.0097037997 2.1873478e-10 0)
(0.0097018387 2.0181716e-10 0)
(0.0097000253 1.8685815e-10 0)
(0.0096983431 1.7354955e-10 0)
(0.0096967778 1.6165517e-10 0)
(0.0096953174 1.5098937e-10 0)
(0.0096939512 1.4141545e-10 0)
(0.0096926694 1.3280821e-10 0)
(0.0096914639 1.2517288e-10 0)
(0.0096903247 1.1828251e-10 0)
(0.0096892478 1.1300267e-10 0)
(0.0096882073 1.0712155e-10 0)
(0.0096872403 1.0798947e-10 0)
(0.0096861843 9.986362e-11 0)
(0.0096853705 1.1169639e-10 -2.3830265e-24)
(0.009684085 6.8971247e-11 1.1864524e-25)
(1 4.1929346e-10 0)
(0.99999706 9.9301814e-10 0)
(0.99999347 1.2654768e-09 0)
(0.99998966 1.607017e-09 0)
(0.99998521 2.1378917e-09 0)
(0.99997998 2.8521393e-09 0)
(0.99997384 3.8104376e-09 0)
(0.99996659 5.1163455e-09 0)
(0.99995798 6.9061504e-09 0)
(0.99994769 9.366931e-09 0)
(0.99993533 1.2764622e-08 0)
(0.99992039 1.7496092e-08 0)
(0.99990215 2.412786e-08 0)
(0.99987971 3.3621151e-08 0)
(0.99985162 4.7186187e-08 0)
(0.99981622 6.7920018e-08 0)
(0.99976948 9.751425e-08 0)
(0.99970937 1.5166469e-07 0)
(0.9996185 2.1913093e-07 0)
(0.9995077 4.1229811e-07 0)
(0.9992692 5.5107452e-07 0)
(0.99906131 1.407199e-06 0)
(0.99819526 2.5028827e-07 0)
(0.99885674 0.0014472309 0)
(0.03975451 0.0014627725 0)
(0.019823581 1.6902258e-05 0)
(0.016673912 3.1147076e-06 0)
(0.015479807 1.2639211e-06 0)
(0.014889585 6.9610529e-07 0)
(0.014486553 4.8585219e-07 0)
(0.014189964 3.6056263e-07 0)
(0.013962409 2.7876616e-07 0)
(0.013780678 2.2303392e-07 0)
(0.013631598 1.8275841e-07 0)
(0.013506767 1.525664e-07 0)
(0.013400482 1.2927939e-07 0)
(0.013308772 1.108883e-07 0)
(0.01322874 9.6104787e-08 0)
(0.01315821 8.4044212e-08 0)
(0.01309552 7.407215e-08 0)
(0.013039379 6.5729815e-08 0)
(0.01298877 5.868069e-08 0)
(0.012942874 5.2671444e-08 0)
(0.012901029 4.7507945e-08 -2.0090848e-35)
(0.012862691 4.3039528e-08 0)
(0.012827408 3.9147706e-08 0)
(0.012794803 3.5738356e-08 0)
(0.012764559 3.2735853e-08 0)
(0.012736406 3.0078749e-08 0)
(0.012710113 2.7716687e-08 0)
(0.012685482 2.5608157e-08 0)
(0.012662341 2.3718734e-08 0)
(0.012640541 2.2019618e-08 0)
(0.012619952 2.048653e-08 0)
(0.012600459 1.9098895e-08 0)
(0.012581961 1.7839205e-08 0)
(0.01256437 1.6692498e-08 0)
(0.012547605 1.564591e-08 0)
(0.012531596 1.4688314e-08 0)
(0.012516279 1.3810014e-08 0)
(0.012501598 1.3002567e-08 0)
(0.012487502 1.2258636e-08 0)
(0.012473945 1.1571798e-08 0)
(0.012460885 1.0936385e-08 0)
(0.012448284 1.0347386e-08 0)
(0.012436108 9.8003704e-09 0)
(0.012424325 9.2914084e-09 0)
(0.012412908 8.8170015e-09 0)
(0.012401829 8.374042e-09 0)
(0.012391066 7.959748e-09 0)
(0.012380597 7.5715996e-09 0)
(0.0123704 7.2073359e-09 0)
(0.012360458 6.8649448e-09 0)
(0.012350753 6.5426023e-09 0)
(0.01234127 6.2386542e-09 0)
(0.012331994 5.951702e-09 0)
(0.012322912 5.6803246e-09 0)
(0.012314011 5.4232493e-09 0)
(0.01230528 5.1794614e-09 0)
(0.012296708 4.9479439e-09 0)
(0.012288285 4.7277808e-09 0)
(0.012280001 4.518117e-09 0)
(0.012271849 4.3181909e-09 0)
(0.01226382 4.1273407e-09 0)
(0.012255907 3.9449248e-09 0)
(0.012248103 3.7702434e-09 0)
(0.012240401 3.6031962e-09 0)
(0.012232795 3.4428382e-09 0)
(0.012225281 3.2886283e-09 0)
(0.012217853 3.1407166e-09 0)
(0.012210505 2.9984241e-09 0)
(0.012203234 2.8614402e-09 0)
(0.012196036 2.7294683e-09 0)
(0.012188906 2.6022391e-09 0)
(0.012181841 2.4795041e-09 0)
(0.012174837 2.3610197e-09 0)
(0.012167893 2.2465716e-09 0)
(0.012161005 2.1359917e-09 0)
(0.01215417 2.0291177e-09 0)
(0.012147387 1.925784e-09 0)
(0.012140653 1.825846e-09 0)
(0.012133966 1.7291816e-09 0)
(0.012127325 1.6356753e-09 0)
(0.012120728 1.5452123e-09 0)
(0.012114175 1.4577009e-09 0)
(0.012107664 1.3730648e-09 0)
(0.012101194 1.291212e-09 0)
(0.012094765 1.2120524e-09 0)
(0.012088378 1.1354494e-09 0)
(0.012082033 1.0613613e-09 0)
(0.012075731 9.8867572e-10 0)
(0.012069487 9.2025165e-10 0)
(0.012063266 8.3607827e-10 0)
(0.012057508 7.3056646e-10 0)
(0.012052463 6.3593897e-10 0)
(0.012048026 5.6187689e-10 0)
(0.012044076 5.0233321e-10 0)
(0.012040522 4.5361212e-10 0)
(0.012037295 4.1271366e-10 0)
(0.012034349 3.7762256e-10 0)
(0.012031644 3.4709785e-10 0)
(0.012029152 3.2030058e-10 0)
(0.012026847 2.9660108e-10 0)
(0.012024708 2.7551256e-10 0)
(0.012022717 2.5666195e-10 0)
(0.012020859 2.3975587e-10 0)
(0.01201912 2.245783e-10 0)
(0.012017489 2.1093135e-10 0)
(0.012015955 1.9882336e-10 0)
(0.012014504 1.8789559e-10 0)
(0.012013133 1.7951691e-10 0)
(0.012011808 1.7018976e-10 0)
(0.012010576 1.7153415e-10 0)
(0.012009232 1.5861695e-10 0)
(0.012008196 1.7757259e-10 0)
(0.012006557 1.0951113e-10 -6.771465e-26)
(1 5.2197335e-10 0)
(0.9999969 1.2377837e-09 0)
(0.99999311 1.5792903e-09 0)
(0.99998907 2.005766e-09 0)
(0.99998437 2.6677749e-09 0)
(0.99997883 3.5580095e-09 0)
(0.99997234 4.7518249e-09 0)
(0.99996468 6.3778787e-09 0)
(0.99995559 8.605413e-09 0)
(0.99994475 1.1666627e-08 0)
(0.99993173 1.5891454e-08 0)
(0.99991599 2.1772102e-08 0)
(0.99989682 3.0010882e-08 0)
(0.99987324 4.1799072e-08 0)
(0.99984376 5.8635698e-08 0)
(0.99980664 8.435653e-08 0)
(0.99975769 1.21053e-07 0)
(0.9996948 1.8815476e-07 0)
(0.99959986 2.7172846e-07 0)
(0.99948419 5.1083962e-07 0)
(0.99923572 6.8294179e-07 0)
(0.99901866 1.7438903e-06 0)
(0.99811577 3.1082611e-07 0)
(0.99880463 0.0017525168 0)
(0.048123671 0.0017752686 0)
(0.023997086 2.4999967e-05 0)
(0.020152908 4.6289272e-06 0)
(0.01869174 1.880942e-06 1.2476442e-23)
(0.017968404 1.0365243e-06 0)
(0.017474485 7.2342454e-07 0)
(0.017111037 5.3688963e-07 0)
(0.016832122 4.1514446e-07 0)
(0.016609321 3.3218919e-07 0)
(0.016426509 2.7223568e-07 0)
(0.016273398 2.2728979e-07 0)
(0.016143006 1.9262098e-07 0)
(0.01603047 1.6523871e-07 0)
(0.015932243 1.4322558e-07 0)
(0.015845661 1.252652e-07 0)
(0.015768688 1.1041353e-07 0)
(0.015699745 9.798787e-08 0)
(0.015637583 8.7487394e-08 0)
(0.015581203 7.8535079e-08 0)
(0.01552979 7.0841992e-08 2.1672061e-35)
(0.015482679 6.4183883e-08 0)
(0.015439316 5.8384385e-08 0)
(0.01539924 5.3303395e-08 0)
(0.015362061 4.8828329e-08 0)
(0.015327449 4.486771e-08 0)
(0.01529512 4.1346568e-08 0)
(0.015264831 3.82031e-08 0)
(0.015236373 3.5386046e-08 0)
(0.015209562 3.2852522e-08 0)
(0.015184238 3.0566374e-08 0)
(0.01516026 2.8496962e-08 0)
(0.015137506 2.6618213e-08 0)
(0.015115865 2.4907842e-08 0)
(0.01509524 2.3346691e-08 0)
(0.015075545 2.1918184e-08 0)
(0.0150567 2.0607879e-08 0)
(0.015038638 1.94032e-08 0)
(0.015021294 1.8293215e-08 0)
(0.015004613 1.7268356e-08 0)
(0.014988544 1.6320177e-08 0)
(0.014973039 1.5441213e-08 0)
(0.014958058 1.4624862e-08 0)
(0.014943561 1.3865268e-08 0)
(0.014929513 1.3157216e-08 0)
(0.014915883 1.2496076e-08 0)
(0.014902641 1.1877702e-08 0)
(0.01488976 1.1298337e-08 0)
(0.014877215 1.0754612e-08 0)
(0.014864983 1.0243526e-08 0)
(0.014853045 9.762363e-09 0)
(0.014841379 9.3086503e-09 0)
(0.014829969 8.880308e-09 -1.9615497e-25)
(0.014818797 8.4752209e-09 0)
(0.014807849 8.0914831e-09 0)
(0.01479711 7.7275823e-09 0)
(0.014786567 7.3820036e-09 0)
(0.014776207 7.0533807e-09 0)
(0.01476602 6.7404379e-09 0)
(0.014755995 6.4420387e-09 0)
(0.014746121 6.1571953e-09 0)
(0.01473639 5.8849504e-09 0)
(0.014726794 5.6242626e-09 0)
(0.014717324 5.3749716e-09 0)
(0.014707971 5.1356778e-09 0)
(0.014698732 4.9055752e-09 0)
(0.014689599 4.6848753e-09 0)
(0.014680565 4.472572e-09 0)
(0.014671626 4.2682004e-09 0)
(0.014662776 4.0713169e-09 0)
(0.01465401 3.881519e-09 0)
(0.014645324 3.6984352e-09 0)
(0.014636714 3.5217015e-09 0)
(0.014628177 3.3509969e-09 0)
(0.014619708 3.1860697e-09 0)
(0.014611305 3.0266774e-09 0)
(0.014602965 2.8725723e-09 0)
(0.014594686 2.7235376e-09 0)
(0.014586464 2.5793903e-09 0)
(0.014578299 2.4399574e-09 0)
(0.014570187 2.3050668e-09 0)
(0.014562129 2.174581e-09 0)
(0.014554122 2.0483854e-09 0)
(0.014546165 1.9263424e-09 0)
(0.014538259 1.8083167e-09 0)
(0.014530402 1.6941044e-09 0)
(0.014522597 1.5836423e-09 0)
(0.014514844 1.4752798e-09 0)
(0.014507163 1.3732482e-09 0)
(0.014499508 1.2479839e-09 0)
(0.014492416 1.0911887e-09 0)
(0.014486194 9.5046519e-10 0)
(0.014480717 8.4017066e-10 0)
(0.014475838 7.5141103e-10 0)
(0.014471445 6.7873179e-10 0)
(0.014467455 6.1769069e-10 0)
(0.014463809 5.6529719e-10 0)
(0.014460462 5.1970737e-10 0)
(0.014457377 4.7967366e-10 0)
(0.014454522 4.4425923e-10 0)
(0.014451872 4.1273952e-10 0)
(0.014449406 3.8455905e-10 0)
(0.014447103 3.5928086e-10 0)
(0.014444948 3.3658315e-10 0)
(0.014442925 3.1617105e-10 0)
(0.014441022 2.980572e-10 0)
(0.014439222 2.8170707e-10 0)
(0.014437521 2.6916194e-10 0)
(0.014435877 2.5520723e-10 0)
(0.014434348 2.5716175e-10 0)
(0.014432682 2.377878e-10 -4.3862013e-25)
(0.014431394 2.6643227e-10 0)
(0.01442936 1.6417437e-10 0)
(1 6.3947895e-10 0)
(0.99999672 1.5186878e-09 0)