/*--------------------------------*- C++ -*----------------------------------*\
| =========                 |                                                 |
| \\      /  F ield         | OpenFOAM: The Open Source CFD Toolbox           |
|  \\    /   O peration     | Version:  2206                                  |
|   \\  /    A nd           | Website:  www.openfoam.com                      |
|    \\/     M anipulation  |                                                 |
\*---------------------------------------------------------------------------*/
FoamFile
{
    version     2.0;
    format      ascii;
    arch        "LSB;label=32;scalar=64";
    class       volScalarField;
    location    "900";
    object      k;
}
// * * * * * * * * * * * * * * * * * * * * * * * * * * * * * * * * * * * * * //

dimensions      [0 2 -2 0 0 0 0];

internalField   nonuniform List<scalar> 
7480
(
0.01144492
0.014109063
0.011690507
0.0076593406
0.0045413823
0.0027808028
0.0019366885
0.0015256343
0.0012978441
0.0011495475
0.0010350019
0.00093676643
0.00085118326
0.00077715151
0.00071295932
0.00065695295
0.00060811012
0.00056522057
0.00052705572
0.00049285106
0.00046213909
0.00043441266
0.00040920551
0.00038622323
0.00036523238
0.00034598058
0.00032824371
0.00031187921
0.00029677428
0.00028279997
0.00026984398
0.00025783305
0.00024670276
0.00023638114
0.00022680785
0.00021794191
0.00020974594
0.00020218331
0.00019522923
0.00018887136
0.0001830993
0.0001779022
0.00017328034
0.00016923423
0.00016577965
0.00016294014
0.00016075866
0.0001592788
0.00015849014
0.00015837846
0.00015892221
0.00016009229
0.00016182729
0.00016401476
0.00016654455
0.00016934073
0.00017223599
0.00017498074
0.00017733134
0.00017912779
0.00018032407
0.00018094377
0.00018104224
0.00018069537
0.00018000016
0.00017904472
0.00017790672
0.00017664825
0.00017531386
0.00017393664
0.00017254172
0.00017114391
0.00016975268
0.00016837809
0.00016702257
0.00016568752
0.0001643734
0.00016302601
0.0001616499
0.00016026133
0.0001588669
0.00015746982
0.00015606475
0.00015464967
0.00015322409
0.00015178773
0.00015034286
0.00014889011
0.00014743276
0.00014597191
0.00014450985
0.00014304754
0.00014158825
0.00014012387
0.00013867866
0.00013716437
0.00013584306
0.00013394166
0.00013287053
0.00012997017
0.0014157344
0.0025664875
0.0028347352
0.0024740636
0.0020071079
0.001560813
0.0011994576
0.00093123991
0.00073504665
0.00059087523
0.00048467797
0.0004059449
0.00034684052
0.00030172209
0.00026652515
0.00023840879
0.00021547736
0.00019642042
0.00018030662
0.00016650497
0.00015459044
0.00014424069
0.0001352016
0.00012728333
0.00012020352
0.00011382207
0.00010805326
0.00010284647
9.8168419e-05
9.3990005e-05
9.0288357e-05
8.7049577e-05
8.4263637e-05
8.1921358e-05
8.0017506e-05
7.8552256e-05
7.7529887e-05
7.6961976e-05
7.6871714e-05
7.7294865e-05
7.8278116e-05
7.9879471e-05
8.2171208e-05
8.5238669e-05
8.9186144e-05
9.4126282e-05
0.00010014252
0.00010729265
0.00011560108
0.00012506027
0.00013563775
0.00014733716
0.00015989586
0.00017301688
0.0001864118
0.00019965009
0.00021209243
0.00022315209
0.00023248246
0.00024001691
0.00024590397
0.00025041276
0.00025380165
0.00025616454
0.00025772216
0.00025867354
0.0002591764
0.00025934735
0.00025927163
0.00025901133
0.00025860949
0.0002580926
0.00025748457
0.00025680374
0.00025605698
0.00025524535
0.00025434916
0.0002531635
0.00025177396
0.00025025129
0.00024861834
0.00024688158
0.00024504313
0.00024311002
0.0002410889
0.00023898987
0.00023682296
0.00023459823
0.00023232669
0.00023001739
0.00022767934
0.00022532054
0.00022294886
0.00022056899
0.0002181849
0.000215795
0.00021343668
0.00021076437
0.00020884818
0.00020445347
0.00021000795
0.00055721124
0.00084138324
0.00095105622
0.00092898731
0.00084358723
0.00075622015
0.00069803341
0.0006593178
0.00062435503
0.00059314725
0.00056409121
0.00053580738
0.00050888192
0.00048357606
0.0004599145
0.00043796012
0.00041773073
0.0003992284
0.00038246223
0.0003674216
0.00035406418
0.00034234249
0.00033219708
0.00032246635
0.00031327919
0.00030475033
0.00029700945
0.00029018409
0.000284393
0.00027975495
0.00027638748
0.00027439994
0.00027389787
0.00027499168
0.00027779696
0.00028244097
0.00028909153
0.00029797425
0.00030937517
0.00032363933
0.00034117653
0.00036246906
0.00038807063
0.00041862923
0.00045479988
0.00049699948
0.00054545159
0.00060020522
0.0006610972
0.00072759027
0.00079925323
0.00087487488
0.00095272957
0.0010311352
0.0011075467
0.0011784931
0.0012410309
0.0012936523
0.0013363216
0.0013700278
0.0013963731
0.0014161464
0.0014304576
0.0014405907
0.001447588
0.0014522525
0.0014551685
0.0014567618
0.001457341
0.0014571166
0.0014562177
0.001454769
0.0014528621
0.0014505307
0.0014477759
0.0014444814
0.001439468
0.0014332954
0.0014263503
0.001418746
0.0014105132
0.0014016697
0.0013922579
0.0013823172
0.001371906
0.0013610796
0.0013498953
0.0013384129
0.001326684
0.0013147578
0.0013026805
0.0012904942
0.0012782367
0.0012659019
0.0012535877
0.0012411884
0.001227644
0.0012174009
0.0011948728
3.6613536e-05
0.00011641821
0.00022889506
0.00032891457
0.00038970872
0.00041116146
0.00040819923
0.0003950541
0.00038064747
0.00036978741
0.00036656532
0.00037470427
0.00038619612
0.00039601235
0.0004041931
0.00041047556
0.00041546776
0.00041967041
0.00042340262
0.00042692484
0.00043045385
0.00043417778
0.00043825239
0.0004427861
0.00044761675
0.00045255845
0.00045765803
0.00046312854
0.00046924721
0.0004763152
0.00048465095
0.00049458671
0.00050646286
0.0005206299
0.00053745271
0.00055730822
0.0005806128
0.00060789732
0.00063982096
0.00067716046
0.00072080109
0.00077174016
0.00083109303
0.00090008649
0.00098009205
0.0010721939
0.0011768443
0.0012939541
0.0014230898
0.0015633732
0.0017133573
0.0018699708
0.0020313404
0.0021939024
0.0023543463
0.0025073104
0.0026463608
0.0027670799
0.0028680394
0.0029502124
0.0030161022
0.0030681927
0.0031080793
0.0031385219
0.0031617967
0.0031796701
0.003193473
0.0032041652
0.003212438
0.0032187887
0.00322355
0.0032269249
0.0032291305
0.0032303165
0.003230531
0.0032297588
0.0032278061
0.0032223458
0.0032146864
0.0032054972
0.0031949415
0.0031830725
0.0031699356
0.0031556155
0.003140196
0.0031237891
0.0031065004
0.0030884378
0.0030697117
0.0030504199
0.0030306511
0.0030104958
0.00299003
0.0029693354
0.0029483774
0.0029274366
0.0029059794
0.0028832376
0.0028646601
0.0028272325
1.2523899e-05
2.7574738e-05
5.86299e-05
9.9481066e-05
0.0001389879
0.00016943778
0.00018922203
0.00020027824
0.00020549798
0.00020736274
0.00020804141
0.00020960318
0.00021296428
0.00021862739
0.00022752531
0.00024063842
0.00025528534
0.00027045313
0.00028572077
0.00030135248
0.00031749717
0.00033433867
0.0003519506
0.00037026492
0.00038900493
0.00040786479
0.00042732323
0.00044782945
0.00046970935
0.00049324121
0.00051870507
0.00054641268
0.0005767217
0.00061003724
0.00064680511
0.00068750722
0.00073274346
0.00078337352
0.00084043257
0.00090506173
0.00097850409
0.0010621114
0.0011573473
0.0012657817
0.0013891319
0.0015278862
0.0016816154
0.0018495774
0.0020308531
0.0022241003
0.0024273127
0.0026372657
0.0028492565
0.003059281
0.0032642246
0.003456125
0.0036272408
0.0037742506
0.0038973985
0.0039988864
0.0040813503
0.0041476503
0.0042007478
0.0042434199
0.0042780247
0.0043064157
0.0043299986
0.0043497997
0.0043665622
0.0043808229
0.004392935
0.004403118
0.0044116376
0.0044186539
0.0044242042
0.0044282465
0.0044305979
0.0044302915
0.0044275126
0.0044225573
0.0044155865
0.0044066937
0.0043959688
0.0043835409
0.0043695444
0.0043541382
0.0043374719
0.0043196934
0.0043009503
0.0042813761
0.0042610862
0.0042402041
0.0042188268
0.004197066
0.0041748799
0.0041526528
0.0041295755
0.0041056752
0.0040847946
0.0040463472
9.3805136e-06
1.175264e-05
1.8506561e-05
3.0348306e-05
4.5494783e-05
6.1125648e-05
7.5215175e-05
8.6943553e-05
9.6296023e-05
0.0001035891
0.0001092206
0.00011369849
0.0001175163
0.00012112469
0.00012503068
0.00012980826
0.00013573351
0.00014308205
0.00015227964
0.00016377483
0.00017689044
0.0001919077
0.00020810759
0.0002255118
0.00024420226
0.00026423656
0.00028584265
0.00030932301
0.00033501311
0.00036329192
0.00039457851
0.00042933148
0.00046805235
0.00051127801
0.00055959319
0.00061371383
0.00067463683
0.00074338634
0.00082097942
0.00090850864
0.0010071826
0.0011183311
0.0012433966
0.0013839506
0.0015416675
0.0017147768
0.0019013121
0.0021004567
0.0023115471
0.0025334104
0.0027640087
0.0030000289
0.0032366642
0.0034696478
0.0036957586
0.0039040019
0.0040875069
0.0042460288
0.0043811669
0.0044954448
0.0045918704
0.0046731609
0.0047417491
0.0047999171
0.0048497029
0.0048927457
0.0049303362
0.0049634653
0.0049928701
0.0050190928
0.0050424879
0.0050632816
0.0050818068
0.0050982213
0.0051125446
0.0051247128
0.0051345826
0.0051415018
0.0051454266
0.0051465424
0.0051450263
0.0051410195
0.0051346642
0.005126136
0.0051156209
0.0051033221
0.0050894296
0.0050741268
0.0050575943
0.0050399969
0.005021471
0.0050021686
0.0049822035
0.0049617093
0.0049406498
0.0049194598
0.0048972035
0.0048744901
0.0048537758
0.0048171207
8.9898136e-06
9.2310219e-06
1.0392186e-05
1.3067188e-05
1.7353902e-05
2.2794145e-05
2.8764888e-05
3.4798358e-05
4.0624624e-05
4.6102351e-05
5.1148682e-05
5.5732484e-05
5.9872559e-05
6.3624783e-05
6.7093196e-05
7.0434436e-05
7.3814195e-05
7.7407016e-05
8.1425283e-05
8.6125578e-05
9.169457e-05
9.8408207e-05
0.00010650644
0.00011619679
0.00012735117
0.00014017637
0.00015492044
0.00017143347
0.00018974246
0.00021021493
0.00023328941
0.00025948618
0.00028941631
0.00032376337
0.00036329402
0.00040891908
0.00046181718
0.00052345978
0.00059539005
0.00067926023
0.00077681796
0.00088988762
0.0010203542
0.0011702186
0.0013416004
0.0015227331
0.0017160004
0.0019249325
0.0021499768
0.0023895858
0.0026406486
0.0028984549
0.0031568864
0.0034119346
0.0036611158
0.0038827257
0.0040755928
0.0042466802
0.0043985029
0.0045331063
0.0046525349
0.0047583209
0.0048518438
0.0049347051
0.0050084711
0.0050744237
0.005133707
0.0051872948
0.005235939
0.0052802263
0.0053206083
0.0053574129
0.0053909374
0.0054213619
0.0054487189
0.0054729614
0.0054940054
0.0055114393
0.0055251481
0.0055352586
0.0055419736
0.0055454948
0.0055460299
0.0055438134
0.005539092
0.0055321212
0.0055231382
0.0055123687
0.0055000343
0.0054863367
0.0054714535
0.0054555558
0.0054387754
0.005421269
0.0054030209
0.0053844807
0.0053647199
0.0053446194
0.0053258275
0.0052923071
8.9407753e-06
8.8618428e-06
8.9453623e-06
9.3735454e-06
1.0288597e-05
1.1705906e-05
1.3542343e-05
1.5694426e-05
1.8078423e-05
2.0628417e-05
2.3282744e-05
2.5982853e-05
2.8678616e-05
3.1329467e-05
3.3911066e-05
3.6421337e-05
3.8877581e-05
4.1312639e-05
4.3779074e-05
4.6352692e-05
4.912075e-05
5.2192461e-05
5.5695813e-05
5.977662e-05
6.4567151e-05
7.0245445e-05
7.7051803e-05
8.5132235e-05
9.4552073e-05
0.00010555088
0.00011843702
0.00013358814
0.00015135363
0.00017185191
0.00019571637
0.00022371773
0.00025683019
0.00029629935
0.00034366052
0.00040074513
0.00046971903
0.0005530944
0.00065368807
0.00077454354
0.00091879007
0.001082559
0.0012631376
0.0014616085
0.0016783369
0.0019124414
0.0021612883
0.0024201927
0.0026829759
0.0029481051
0.0032141468
0.0034582983
0.0036787714
0.0038799608
0.004062731
0.0042298984
0.004383282
0.0045233508
0.0046507685
0.0047668334
0.0048726654
0.0049691264
0.0050572734
0.0051380685
0.0052122435
0.0052804538
0.0053432688
0.0054011128
0.0054543255
0.0055031362
0.0055475994
0.0055877126
0.0056234683
0.0056546752
0.0056812535
0.0057033094
0.0057210651
0.0057347762
0.0057447173
0.0057511874
0.0057544991
0.0057549662
0.0057528786
0.0057485116
0.0057421371
0.0057340015
0.0057243217
0.005713302
0.0057011022
0.0056879066
0.0056737335
0.0056590272
0.0056429547
0.0056264542
0.0056108101
0.0055810577
8.932775e-06
8.8091365e-06
8.7105712e-06
8.6774116e-06
8.7584606e-06
8.9873984e-06
9.3746948e-06
9.9176487e-06
1.0611261e-05
1.1450422e-05
1.2427062e-05
1.3528002e-05
1.4736566e-05
1.603328e-05
1.7398418e-05
1.8815191e-05
2.0271433e-05
2.1759669e-05
2.3279175e-05
2.4838227e-05
2.6453668e-05
2.8151817e-05
2.9970072e-05
3.1958032e-05
3.4174309e-05
3.6691609e-05
3.9604494e-05
4.3017313e-05
4.7039257e-05
5.1814829e-05
5.7538285e-05
6.4399552e-05
7.2613955e-05
8.2424758e-05
9.417786e-05
0.00010831682
0.00012541971
0.0001462382
0.00017146596
0.00020215544
0.00023987449
0.00028662996
0.00034496751
0.00041806898
0.0005098538
0.00062312023
0.00075700637
0.00091179779
0.0010885262
0.0012875346
0.0015078563
0.0017466248
0.0019991199
0.0022629614
0.0025354724
0.0028006005
0.0030436528
0.0032703951
0.0034831875
0.0036836183
0.0038727613
0.0040493247
0.0042134243
0.0043664278
0.0045087198
0.0046404971
0.0047627378
0.0048762009
0.0049813823
0.0050789683
0.0051695801
0.0052536634
0.0053315722
0.0054035792
0.0054697152
0.0055300244
0.0055845897
0.0056334016
0.0056764701
0.0057139253
0.0057460102
0.0057730213
0.0057952958
0.0058131969
0.005827105
0.0058373979
0.0058444243
0.0058485186
0.0058500133
0.0058492095
0.0058463749
0.0058417573
0.0058355544
0.005827987
0.0058191193
0.0058093853
0.0057980983
0.005786142
0.0057747014
0.0057492748
8.9300762e-06
8.7999154e-06
8.6731888e-06
8.5570827e-06
8.4632544e-06
8.4039356e-06
8.3886259e-06
8.4242655e-06
8.5169698e-06
8.672693e-06
8.8966087e-06
9.1920491e-06
9.5604309e-06
1.0000993e-05
1.0511206e-05
1.1087403e-05
1.1725179e-05
1.2419869e-05
1.3167455e-05
1.3965504e-05
1.4813725e-05
1.5714523e-05
1.6674167e-05
1.7703911e-05
1.8820106e-05
2.0045032e-05
2.1409008e-05
2.2950484e-05
2.4715891e-05
2.6763351e-05
2.9168331e-05
3.2022446e-05
3.5438042e-05
3.9553893e-05
4.4552065e-05
5.0627006e-05
5.8053427e-05
6.7199433e-05
7.8494913e-05
9.2502704e-05
0.00011000867
0.00013207884
0.00016014701
0.00019612759
0.00024246439
0.00030211069
0.00037781427
0.0004715638
0.00058579158
0.00072276541
0.00088417481
0.0010705383
0.0012806411
0.0015124272
0.001763247
0.0020239284
0.0022816072
0.0025302576
0.0027636921
0.0029864303
0.0032004732
0.0034057697
0.0036021185
0.0037897864
0.0039678523
0.0041352133
0.0042930708
0.0044416251
0.0045808604
0.0047114635
0.0048338796
0.0049484293
0.0050554065
0.005155112
0.0052473811
0.0053322666
0.0054099404
0.0054804956
0.0055440204
0.0056006956
0.0056507839
0.0056946054
0.0057325471
0.0057650246
0.0057924774
0.0058153499
0.005834051
0.0058489797
0.0058605371
0.005869088
0.0058749624
0.0058784636
0.0058798395
0.0058793577
0.0058771405
0.005873616
0.0058682716
0.0058618931
0.0058557106
0.0058352937
8.928481e-06
8.7968418e-06
8.6656219e-06
8.5358156e-06
8.4096369e-06
8.290107e-06
8.1804634e-06
8.0839456e-06
8.0039657e-06
7.9442174e-06
7.9085481e-06
7.900709e-06
7.924178e-06
7.9819525e-06
8.0764788e-06
8.2096409e-06
8.3827066e-06
8.5963632e-06
8.850888e-06
9.1463824e-06
9.4829949e-06
9.8611941e-06
1.0282084e-05
1.0747863e-05
1.126222e-05
1.1830814e-05
1.2461936e-05
1.3167191e-05
1.3961976e-05
1.4866401e-05
1.5906888e-05
1.7117186e-05
1.8540175e-05
2.0230255e-05
2.2257823e-05
2.4709732e-05
2.7699708e-05
3.1380639e-05
3.5950135e-05
4.1644924e-05
4.8802155e-05
5.7883983e-05
6.9527617e-05
8.4614093e-05
0.00010434503
0.00013034305
0.00016464144
0.00020946024
0.00026741124
0.00034144711
0.0004347248
0.00055029589
0.00069060466
0.00085719133
0.0010505689
0.0012680454
0.0015024602
0.0017455451
0.0019879349
0.0022269466
0.0024574974
0.0026784144
0.0028932113
0.003102479
0.0033057116
0.0035019601
0.0036911751
0.0038724201
0.0040445139
0.0042082815
0.0043636384
0.0045106875
0.0046494449
0.0047797717
0.0049013871
0.0050143652
0.0051188715
0.0052149689
0.0053027626
0.005382455
0.0054542918
0.0055185824
0.0055757338
0.0056261801
0.0056703889
0.0057088655
0.0057420783
0.005770487
0.0057945594
0.005814727
0.0058313912
0.0058449209
0.0058556304
0.0058638436
0.0058697531
0.0058737933
0.0058756392
0.0058759757
0.0058761565
0.0058615843
8.9274782e-06
8.7951586e-06
8.662889e-06
8.5307137e-06
8.3989664e-06
8.2682228e-06
8.1392784e-06
8.013123e-06
7.8909483e-06
7.774156e-06
7.6643387e-06
7.563244e-06
7.4727391e-06
7.3947553e-06
7.3312326e-06
7.2840851e-06
7.2551557e-06
7.2461616e-06
7.2586771e-06
7.2941463e-06
7.3539051e-06
7.4392279e-06
7.5513705e-06
7.6916918e-06
7.861796e-06
8.0636929e-06
8.3000935e-06
8.5747388e-06
8.8926346e-06
9.2603588e-06
9.6865837e-06
1.0182731e-05
1.0763719e-05
1.1448845e-05
1.2263236e-05
1.3239209e-05
1.4418644e-05
1.5857002e-05
1.7627483e-05
1.9824412e-05
2.2575254e-05
2.6055789e-05
3.050871e-05
3.6266086e-05
4.3803858e-05
5.3793181e-05
6.7160393e-05
8.5114384e-05
0.00010922434
0.00014149711
0.00018443753
0.00024105039
0.0003147253
0.00040901715
0.00052736057
0.00067215514
0.00084334016
0.0010380531
0.0012502989
0.0014744026
0.00170325
0.00193159
0.0021584284
0.0023800064
0.0025943482
0.0028048506
0.003011629
0.003214296
0.0034115684
0.003603134
0.0037878098
0.0039648813
0.0041343055
0.004295267
0.0044471918
0.0045900822
0.004723871
0.0048483965
0.0049636556
0.0050697614
0.0051668581
0.005255179
0.0053350914
0.0054069867
0.0054713182
0.0055286256
0.0055794078
0.0056241719
0.0056634465
0.0056977239
0.0057274811
0.0057531592
0.0057751492
0.0057938432
0.0058095165
0.0058226247
0.0058330375
0.0058413541
0.0058490998
0.0058413773
8.9269254e-06
8.7942266e-06
8.6615541e-06
8.5288512e-06
8.3961441e-06
8.263507e-06
8.1310982e-06
7.9991784e-06
7.8681088e-06
7.738342e-06
7.6104147e-06
7.484949e-06
7.3626582e-06
7.2443469e-06
7.1309038e-06
7.0232958e-06
6.9225583e-06
6.8297769e-06
6.7460722e-06
6.6725891e-06
6.6104847e-06
6.5609185e-06
6.5250572e-06
6.5040881e-06
6.4992368e-06
6.5117975e-06
6.5432149e-06
6.5951963e-06
6.6697962e-06
6.7694996e-06
6.89744e-06
7.057642e-06
7.255273e-06
7.4970766e-06
7.7919029e-06
8.151103e-06
8.5893819e-06
9.1260657e-06
9.786698e-06
1.0604778e-05
1.1624992e-05
1.2908293e-05
1.4538525e-05
1.6631828e-05
1.935337e-05
2.2940457e-05
2.7732264e-05
3.4202039e-05
4.3013529e-05
5.5085626e-05
7.1678015e-05
9.4489134e-05
0.00012574991
0.00016828264
0.00022550129
0.00030119746
0.00039891776
0.00052112902
0.0006681964
0.00083856439
0.0010283396
0.0012323665
0.0014464096
0.0016649925
0.0018836394
0.0021020764
0.002317696
0.0025280667
0.0027360225
0.0029415723
0.0031443814
0.0033426681
0.0035359483
0.0037232693
0.0039027639
0.0040742857
0.0042373191
0.0043911893
0.0045355572
0.004670277
0.0047952609
0.0049105252
0.0050162989
0.0051128403
0.0052005175
0.0052798543
0.0053513181
0.0054154294
0.0054727557
0.005523828
0.0055691921
0.0056093568
0.005644791
0.0056759631
0.0057032376
0.005727105
0.005747632
0.0057653538
0.0057820066
0.0057823358
8.9266143e-06
8.7936847e-06
8.6608129e-06
8.5279573e-06
8.3951075e-06
8.2622563e-06
8.1294283e-06
7.9966993e-06
7.8641929e-06
7.7320688e-06
7.6005135e-06
7.4697406e-06
7.3399974e-06
7.2115724e-06
7.0847991e-06
6.9600599e-06
6.8377889e-06
6.7184725e-06
6.6026475e-06
6.4909007e-06
6.3838658e-06
6.2822189e-06
6.1866769e-06
6.0979975e-06
6.0169781e-06
5.9444571e-06
5.8813291e-06
5.8285664e-06
5.7872421e-06
5.7585616e-06
5.7439245e-06
5.7449987e-06
5.7637991e-06
5.8028396e-06
5.8653296e-06
5.9553152e-06
6.0779472e-06
6.2398964e-06
6.4499269e-06
6.7196338e-06
7.0643161e-06
7.5043974e-06
8.067659e-06
8.7923125e-06
9.7319948e-06
1.096347e-05
1.259774e-05
1.4794842e-05
1.7786332e-05
2.1907631e-05
2.7642899e-05
3.5686866e-05
4.7036227e-05
6.3094457e-05
8.5792918e-05
0.00011768884
0.00016194644
0.00022209657
0.00030150592
0.00040282589
0.00052726976
0.00067424842
0.0008418467
0.001026496
0.0012236598
0.0014299761
0.0016412367
0.0018531827
0.0020658873
0.0022773949
0.0024853721
0.0026914106
0.0028957315
0.0030980109
0.0032964475
0.0034900984
0.0036780681
0.0038584038
0.0040302905
0.004193284
0.0043467875
0.0044903121
0.0046238473
0.0047473568
0.0048609828
0.0049651509
0.0050601768
0.0051465285
0.0052247636
0.0052953998
0.005359027
0.0054161955
0.0054674386
0.0055132983
0.0055542243
0.0055907497
0.0056231341
0.005651869
0.0056789444
0.0056887426
8.9264334e-06
8.7933173e-06
8.6602879e-06
8.527333e-06
8.3944509e-06
8.2616308e-06
8.1288759e-06
7.99622e-06
7.8637247e-06
7.7314699e-06
7.5995436e-06
7.4680395e-06
7.3370594e-06
7.2067175e-06
7.0771435e-06
6.9484854e-06
6.8209132e-06
6.6946214e-06
6.569831e-06
6.4467922e-06
6.325786e-06
6.2071253e-06
6.0911561e-06
5.9782585e-06
5.8688479e-06
5.7633748e-06
5.6623277e-06
5.5662383e-06
5.4756852e-06
5.3913021e-06
5.3137938e-06
5.2439566e-06
5.1827001e-06
5.1310867e-06
5.0903917e-06
5.0621695e-06
5.0483335e-06
5.0512772e-06
5.0740588e-06
5.1206782e-06
5.1963217e-06
5.3077702e-06
5.4641021e-06
5.6776549e-06
5.965624e-06
6.3520822e-06
6.871436e-06
7.5736128e-06
8.5315924e-06
9.8529999e-06
1.1697625e-05
1.4303134e-05
1.8025401e-05
2.3397099e-05
3.1209117e-05
4.2614489e-05
5.9252584e-05
8.3325781e-05
0.00011757836
0.00016513939
0.00022916687
0.00031237388
0.00041665141
0.00054257349
0.000689155
0.00085445722
0.0010353885
0.0012278514
0.0014290352
0.0016354862
0.0018431925
0.0020521705
0.0022605258
0.002465826
0.0026702157
0.002873673
0.0030753037
0.0032732106
0.0034662607
0.0036533941
0.0038326766
0.0040029194
0.0041639395
0.0043150204
0.0044558577
0.0045867003
0.004707467
0.004818478
0.0049201965
0.0050130244
0.0050975469
0.0051742946
0.0052438306
0.005306749
0.0053635615
0.0054148415
0.0054610265
0.0055025746
0.0055417859
0.0055627031
8.9263619e-06
8.793081e-06
8.6598976e-06
8.5268267e-06
8.3938817e-06
8.2610624e-06
8.1283748e-06
7.9958445e-06
7.8635166e-06
7.7314484e-06
7.5997017e-06
7.4683387e-06
7.3374225e-06
7.2070186e-06
7.0771964e-06
6.9480302e-06
6.8196008e-06
6.691997e-06
6.5653172e-06
6.4396706e-06
6.3151794e-06
6.1919801e-06
6.0702253e-06
5.9500853e-06
5.8317498e-06
5.7154294e-06
5.6013572e-06
5.4897912e-06
5.3810161e-06
5.2753457e-06
5.1731275e-06
5.074749e-06
4.980643e-06
4.8912987e-06
4.8072771e-06
4.7292331e-06
4.6579396e-06
4.5943229e-06
4.5395171e-06
4.4949418e-06
4.4623936e-06
4.4441696e-06
4.4432734e-06
4.463691e-06
4.5108712e-06
4.5922842e-06
4.7184056e-06
4.9042935e-06
5.1720091e-06
5.5541729e-06
6.0992862e-06
6.8805952e-06
8.0099506e-06
9.6596754e-06
1.2096516e-05
1.5732312e-05
2.1198319e-05
2.943725e-05
4.1798958e-05
6.0109701e-05
8.6685181e-05
0.00012423769
0.00017567747
0.00024377445
0.00033074264
0.00043798069
0.00056574439
0.00071287263
0.00087746408
0.0010567367
0.001246887
0.0014453889
0.0016488923
0.0018536533
0.0020600918
0.0022658956
0.0024694723
0.0026723347
0.0028749301
0.0030753504
0.0032717351
0.0034629038
0.0036477881
0.0038240538
0.003990934
0.004148487
0.0042957026
0.0044327102
0.0045597292
0.0046768468
0.0047845713
0.0048832951
0.0049735485
0.0050559281
0.0051309549
0.005199224
0.0052613172
0.0053176547
0.0053709176
0.0054048448
8.9263957e-06
8.7929752e-06
8.6596495e-06
8.5264535e-06
8.3934145e-06
8.2605443e-06
8.1278559e-06
7.9953756e-06
7.8631436e-06
7.7312098e-06
7.599628e-06
7.4684523e-06
7.3377364e-06
7.2075343e-06
7.0779005e-06
6.9488901e-06
6.8205595e-06
6.6929667e-06
6.5661718e-06
6.4402376e-06
6.3152306e-06
6.1912216e-06
6.0682865e-06
5.9465075e-06
5.8259742e-06
5.7067849e-06
5.5890473e-06
5.4728808e-06
5.3584169e-06
5.2458015e-06
5.1351964e-06
5.0267816e-06
4.9207579e-06
4.8173501e-06
4.7168114e-06
4.61943e-06
4.5255366e-06
4.4355144e-06
4.3498147e-06
4.2689787e-06
4.1936652e-06
4.1246878e-06
4.0630731e-06
4.0101434e-06
3.9676358e-06
3.9378808e-06
3.9240847e-06
3.9307578e-06
3.9644239e-06
4.0346556e-06
4.1555932e-06
4.3486194e-06
4.6466971e-06
5.1011871e-06
5.7926682e-06
6.8491612e-06
8.474653e-06
1.0991977e-05
1.4901703e-05
2.095622e-05
3.0240938e-05
4.42526e-05
6.4925686e-05
9.4606496e-05
0.0001359268
0.00019159708
0.0002641078
0.00035534119
0.00046637137
0.00059722378
0.00074657388
0.00091248208
0.0010921405
0.0012818581
0.0014794361
0.0016811275
0.0018842389
0.0020890936
0.0022927126
0.002494753
0.0026961252
0.0028973385
0.0030956736
0.0032894805
0.0034775291
0.0036588782
0.0038305996
0.0039929592
0.0041456056
0.0042879497
0.0044203716
0.0045428899
0.0046559148
0.0047599476
0.0048554222
0.0049429178
0.005023093
0.005096309
0.0051657039
0.0052147558
8.926526e-06
8.7929938e-06
8.6595462e-06
8.5262322e-06
8.39309e-06
8.2601418e-06
8.1274078e-06
7.9949172e-06
7.8627087e-06
7.7308289e-06
7.5993284e-06
7.4682587e-06
7.3376712e-06
7.2076174e-06
7.0781489e-06
6.9493169e-06
6.8211724e-06
6.6937662e-06
6.5671492e-06
6.4413717e-06
6.3164846e-06
6.1925388e-06
6.0695861e-06
5.947679e-06
5.8268716e-06
5.7072201e-06
5.5887832e-06
5.4716229e-06
5.3558053e-06
5.2414018e-06
5.1284894e-06
5.0171522e-06
4.9074829e-06
4.7995836e-06
4.693568e-06
4.5895634e-06
4.4877132e-06
4.3881804e-06
4.2911516e-06
4.196844e-06
4.1055126e-06
4.0174615e-06
3.9330602e-06
3.8527666e-06
3.7771599e-06
3.7069887e-06
3.6432525e-06
3.5873192e-06
3.5411109e-06
3.5073968e-06
3.4902379e-06
3.4957155e-06
3.5331736e-06
3.6171874e-06
3.770691e-06
4.0305303e-06
4.456845e-06
5.1470965e-06
6.2588817e-06
8.0434271e-06
1.0891944e-05
1.5398345e-05
2.243011e-05
3.3200226e-05
4.9326925e-05
7.2836322e-05
0.00010610578
0.00015172714
0.00021228505
0.00029007907
0.00038673061
0.00050302275
0.00063865619
0.00079201593
0.00096106211
0.0011426655
0.0013334527
0.0015314535
0.0017320536
0.0019341572
0.0021374929
0.002339017
0.002539157
0.0027392998
0.0029381947
0.0031334736
0.0033236757
0.0035076461
0.0036836945
0.0038500588
0.0040071148
0.0041540212
0.0042909969
0.0044182652
0.0045360103
0.0046447321
0.0047450413
0.0048372054
0.0049248615
0.0049913171
8.9267411e-06
8.7931228e-06
8.6595762e-06
8.5261596e-06
8.3929195e-06
8.2598865e-06
8.1270877e-06
7.994555e-06
7.8623275e-06
7.7304501e-06
7.5989713e-06
7.4679412e-06
7.3374105e-06
7.2074301e-06
7.0780509e-06
6.9493236e-06
6.8212986e-06
6.6940256e-06
6.5675537e-06
6.4419311e-06
6.3172053e-06
6.1934227e-06
6.070629e-06
5.9488688e-06
5.8281862e-06
5.7086246e-06
5.5902272e-06
5.4730366e-06
5.3570962e-06
5.2424496e-06
5.1291413e-06
5.0172175e-06
4.9067266e-06
4.7977195e-06
4.6902509e-06
4.5843795e-06
4.48017e-06
4.3776936e-06
4.2770294e-06
4.1782671e-06
4.081509e-06
3.9868731e-06
3.894498e-06
3.8045493e-06
3.7172286e-06
3.6327865e-06
3.5515448e-06
3.473929e-06
3.4005174e-06
3.3321194e-06
3.2698988e-06
3.2155697e-06
3.1717242e-06
3.1423739e-06
3.1338352e-06
3.1562533e-06
3.2263368e-06
3.371486e-06
3.6369664e-06
4.0975336e-06
4.8744737e-06
6.1620771e-06
8.26523e-06
1.1649796e-05
1.7007163e-05
2.5324064e-05
3.7948761e-05
5.6639771e-05
8.3536272e-05
0.00012109368
0.00017191325
0.00023849977
0.0003229655
0.00042662247
0.00054989895
0.00069199807
0.00085098157
0.0010246722
0.0012093334
0.0014020899
0.0016007446
0.0018005314
0.002001688
0.0022026511
0.0024022435
0.0026001856
0.0027987321
0.0029945633
0.003186042
0.003371779
0.0035508112
0.0037204769
0.0038809174
0.0040317636
0.0041726801
0.004304002
0.0044260596
0.00453899
0.004646859
0.0047330375
8.9270283e-06
8.7933458e-06
8.6597214e-06
8.5262196e-06
8.3928928e-06
8.2597788e-06
8.1269103e-06
7.9943227e-06
7.8620557e-06
7.7301535e-06
7.5986635e-06
7.4676346e-06
7.3371169e-06
7.2071609e-06
7.0778172e-06
6.9491366e-06
6.8211694e-06
6.6939654e-06
6.5675736e-06
6.4420421e-06
6.3174181e-06
6.1937474e-06
6.0710748e-06
5.9494435e-06
5.8288956e-06
5.7094715e-06
5.5912106e-06
5.4741506e-06
5.3583282e-06
5.2437787e-06
5.1305367e-06
5.0186356e-06
4.9081085e-06
4.798988e-06
4.6913069e-06
4.585098e-06
4.4803953e-06
4.3772341e-06
4.2756513e-06
4.1756869e-06
4.0773841e-06
3.9807908e-06
3.885961e-06
3.7929566e-06
3.7018497e-06
3.612727e-06
3.5256947e-06
3.4408883e-06
3.3584852e-06
3.2787257e-06
3.2019456e-06
3.1286282e-06
3.0594895e-06
2.9956205e-06
2.9387234e-06
2.891516e-06
2.8584498e-06
2.8468835e-06
2.8691088e-06
2.9458166e-06
3.1114269e-06
3.4228944e-06
3.9737674e-06
4.914074e-06
6.4808248e-06
9.0401721e-06
1.3143901e-05
1.9598671e-05
2.9535001e-05
4.4471373e-05
6.6348623e-05
9.7459878e-05
0.00014037991
0.00019773017
0.00027192345
0.00036479916
0.00047725775
0.0006092707
0.0007593291
0.00092513997
0.0011041685
0.0012922953
0.0014872402
0.0016853526
0.0018845779
0.0020845169
0.0022829385
0.0024800543
0.0026767035
0.0028722383
0.0030641891
0.0032510346
0.0034316819
0.003604295
0.0037675444
0.0039216044
0.0040660706
0.0042009501
0.0043304589
0.0044384807
8.9273762e-06
8.7936471e-06
8.659963e-06
8.5263921e-06
8.3929912e-06
8.2598039e-06
8.126868e-06
7.9942221e-06
7.8619072e-06
7.7299675e-06
7.5984495e-06
7.4674017e-06
7.3368734e-06
7.2069148e-06
7.0775762e-06
6.9489083e-06
6.8209612e-06
6.6937849e-06
6.5674284e-06
6.44194e-06
6.317367e-06
6.1937553e-06
6.0711498e-06
5.9495938e-06
5.8291291e-06
5.7097961e-06
5.5916334e-06
5.4746781e-06
5.3589654e-06
5.244529e-06
5.1314009e-06
5.0196114e-06
4.9091892e-06
4.8001617e-06
4.6925546e-06
4.5863927e-06
4.4816995e-06
4.3784979e-06
4.2768099e-06
4.1766574e-06
4.0780621e-06
3.9810464e-06
3.8856333e-06
3.7918476e-06
3.6997162e-06
3.6092695e-06
3.5205429e-06
3.4335794e-06
3.3484329e-06
3.2651742e-06
3.1838992e-06
3.1047429e-06
3.0279008e-06
2.9536659e-06
2.882489e-06
2.8150828e-06
2.7526046e-06
2.6969648e-06
2.6513672e-06
2.6212436e-06
2.6157883e-06
2.6505753e-06
2.7519422e-06
2.9635314e-06
3.3569934e-06
4.0487277e-06
5.223544e-06
7.170888e-06
1.03339e-05
1.537411e-05
2.3247502e-05
3.5272712e-05
5.3191909e-05
7.9169317e-05
0.00011570139
0.00016548699
0.00023112941
0.00031487241
0.00041810444
0.00054113901
0.00068326543
0.00084219676
0.001015374
0.0011992814
0.0013906857
0.0015873217
0.0017844955
0.0019826734
0.0021799413
0.002376005
0.002570787
0.0027654878
0.00295733
0.0031448421
0.0033266487
0.0035014746
0.0036672142
0.0038239664
0.003975523
0.0041068613
8.9277745e-06
8.794013e-06
8.6602839e-06
8.5266577e-06
8.3931947e-06
8.2599428e-06
8.1269445e-06
7.9942414e-06
7.8618762e-06
7.7298935e-06
7.5983396e-06
7.4672625e-06
7.3367113e-06
7.2067357e-06
7.0773859e-06
6.9487122e-06
6.8207646e-06
6.693593e-06
6.5672463e-06
6.441773e-06
6.3172202e-06
6.1936342e-06
6.0710598e-06
5.9495404e-06
5.8291183e-06
5.7098337e-06
5.5917255e-06
5.4748308e-06
5.3591848e-06
5.2448212e-06
5.1317715e-06
5.0200656e-06
4.9097315e-06
4.8007954e-06
4.6932814e-06
4.5872123e-06
4.4826087e-06
4.37949e-06
4.2778736e-06
4.1777758e-06
4.0792114e-06
3.9821942e-06
3.8867369e-06
3.7928515e-06
3.7005495e-06
3.6098426e-06
3.5207424e-06
3.4332619e-06
3.3474165e-06
3.2632251e-06
3.1807128e-06
3.0999142e-06
3.0208794e-06