/*--------------------------------*- C++ -*----------------------------------*\
| =========                 |                                                 |
| \\      /  F ield         | OpenFOAM: The Open Source CFD Toolbox           |
|  \\    /   O peration     | Version:  2206                                  |
|   \\  /    A nd           | Website:  www.openfoam.com                      |
|    \\/     M anipulation  |                                                 |
\*---------------------------------------------------------------------------*/
FoamFile
{
    version     2.0;
    format      ascii;
    arch        "LSB;label=32;scalar=64";
    class       volScalarField;
    location    "900";
    object      nut;
}
// * * * * * * * * * * * * * * * * * * * * * * * * * * * * * * * * * * * * * //

dimensions      [0 2 -1 0 0 0 0];

internalField   nonuniform List<scalar> 
7480
(
1.5120573e-06
1.8587026e-06
1.5440945e-06
1.0160767e-06
6.0450514e-07
3.7086898e-07
2.5853133e-07
2.0375132e-07
1.7337302e-07
1.5358786e-07
1.3830121e-07
1.2518814e-07
1.1376167e-07
1.0387572e-07
9.530241e-08
8.7821375e-08
8.1296455e-08
7.5566255e-08
7.0466837e-08
6.5896196e-08
6.1791976e-08
5.8086492e-08
5.4717499e-08
5.1645701e-08
4.8839941e-08
4.6266518e-08
4.3895502e-08
4.1707857e-08
3.9688525e-08
3.7820281e-08
3.6088128e-08
3.448228e-08
3.2994133e-08
3.1614077e-08
3.0334046e-08
2.9148571e-08
2.8052658e-08
2.7041414e-08
2.6111527e-08
2.5261352e-08
2.44895e-08
2.3794526e-08
2.3176467e-08
2.2635396e-08
2.2173424e-08
2.1793701e-08
2.1501974e-08
2.1304073e-08
2.1198606e-08
2.1183671e-08
2.1256387e-08
2.1412861e-08
2.1644881e-08
2.1937409e-08
2.2275713e-08
2.2649638e-08
2.3036812e-08
2.3403854e-08
2.3718189e-08
2.3958417e-08
2.4118389e-08
2.4201257e-08
2.4214425e-08
2.416804e-08
2.4075074e-08
2.3947309e-08
2.379513e-08
2.3626843e-08
2.3448402e-08
2.3264232e-08
2.3077696e-08
2.2890772e-08
2.2704728e-08
2.2520907e-08
2.2339638e-08
2.2161104e-08
2.1985369e-08
2.1805185e-08
2.1621159e-08
2.1435468e-08
2.124899e-08
2.1062159e-08
2.0874258e-08
2.0685018e-08
2.0494373e-08
2.0302285e-08
2.010906e-08
1.991478e-08
1.9719884e-08
1.952452e-08
1.9328993e-08
1.9133431e-08
1.8938273e-08
1.8742434e-08
1.8549158e-08
1.8346643e-08
1.8169936e-08
1.7915647e-08
1.7772398e-08
1.7384509e-08
1.4111364e-06
1.6301163e-06
1.5385139e-06
1.2880422e-06
1.0361754e-06
8.1129091e-07
6.4377924e-07
5.1799309e-07
4.2143235e-07
3.4676353e-07
2.8964929e-07
2.4637557e-07
2.1351371e-07
1.8822038e-07
1.683405e-07
1.5234961e-07
1.3921388e-07
1.2819664e-07
1.1879251e-07
1.1066949e-07
1.0360074e-07
9.741008e-08
9.1963599e-08
8.716344e-08
8.2837913e-08
7.890643e-08
7.5325323e-08
7.2072774e-08
6.9135484e-08
6.6501617e-08
6.41636e-08
6.211903e-08
6.0366712e-08
5.890552e-08
5.7736981e-08
5.6865838e-08
5.629906e-08
5.604873e-08
5.613525e-08
5.6587843e-08
5.7443394e-08
5.8747065e-08
6.055452e-08
6.2930713e-08
6.5954477e-08
6.9711406e-08
7.4264405e-08
7.9655562e-08
8.5902828e-08
9.2999864e-08
1.0091867e-07
1.0965559e-07
1.190191e-07
1.287872e-07
1.3874535e-07
1.4857431e-07
1.5780134e-07
1.6599666e-07
1.7291041e-07
1.7850205e-07
1.8288584e-07
1.8626414e-07
1.8882347e-07
1.9063489e-07
1.9186262e-07
1.9265119e-07
1.9311462e-07
1.9333646e-07
1.9337771e-07
1.9328271e-07
1.9308211e-07
1.9279457e-07
1.9243728e-07
1.9202344e-07
1.915577e-07
1.9104087e-07
1.9045774e-07
1.8965602e-07
1.8870024e-07
1.8764303e-07
1.8650143e-07
1.8528019e-07
1.8398087e-07
1.8260902e-07
1.811696e-07
1.7967028e-07
1.781185e-07
1.7652178e-07
1.7488833e-07
1.7322482e-07
1.7153802e-07
1.6983384e-07
1.6811814e-07
1.6639462e-07
1.6466567e-07
1.6293228e-07
1.61218e-07
1.5926716e-07
1.5789985e-07
1.5464873e-07
1.1014176e-06
1.4048109e-06
1.4358686e-06
1.34099e-06
1.2076352e-06
1.0741091e-06
9.6692114e-07
8.8446643e-07
8.2037389e-07
7.6811458e-07
7.2394832e-07
6.7969826e-07
6.3738375e-07
6.022523e-07
5.7251931e-07
5.4697659e-07
5.24943e-07
5.0592597e-07
4.8956614e-07
4.7562629e-07
4.6394286e-07
4.5437847e-07
4.4683526e-07
4.4122346e-07
4.3363011e-07
4.2649924e-07
4.2000151e-07
4.143459e-07
4.0973844e-07
4.0637733e-07
4.0447422e-07
4.042493e-07
4.0591559e-07
4.0968688e-07
4.1579233e-07
4.2447298e-07
4.3599044e-07
4.5067919e-07
4.6897213e-07
4.9140346e-07
5.1860652e-07
5.5132693e-07
5.9043743e-07
6.3693474e-07
6.9196939e-07
7.5673283e-07
8.320304e-07
9.1831747e-07
1.0157491e-06
1.1241046e-06
1.2423897e-06
1.369788e-06
1.5043787e-06
1.6432038e-06
1.7833386e-06
1.9204436e-06
2.0486082e-06
2.1627598e-06
2.260203e-06
2.340742e-06
2.4060259e-06
2.4587947e-06
2.5000012e-06
2.531725e-06
2.5562499e-06
2.5753626e-06
2.5904251e-06
2.6024095e-06
2.6120156e-06
2.6197461e-06
2.625939e-06
2.6307942e-06
2.6345114e-06
2.6372383e-06
2.6390198e-06
2.6398553e-06
2.6395219e-06
2.6357463e-06
2.6296141e-06
2.6218859e-06
2.6127948e-06
2.6024062e-06
2.5907561e-06
2.5779347e-06
2.5640191e-06
2.5491239e-06
2.5333541e-06
2.5168173e-06
2.4996265e-06
2.4818754e-06
2.463658e-06
2.4450591e-06
2.4261565e-06
2.4070278e-06
2.3876432e-06
2.3682621e-06
2.3485375e-06
2.3265938e-06
2.31121e-06
2.2731287e-06
5.0849674e-07
9.5920436e-07
1.1798418e-06
1.2285001e-06
1.2004419e-06
1.142916e-06
1.0804164e-06
1.0213691e-06
9.6990613e-07
9.3011072e-07
9.0616622e-07
9.0239656e-07
9.0580405e-07
8.5770541e-07
8.2200108e-07
7.9458264e-07
7.7457343e-07
7.6007205e-07
7.5005333e-07
7.438822e-07
7.4115682e-07
7.4159216e-07
7.4502011e-07
7.5128347e-07
7.5985265e-07
7.7021339e-07
7.8223008e-07
7.9611998e-07
8.1227351e-07
8.311691e-07
8.5335609e-07
8.7945023e-07
9.1012445e-07
9.4611077e-07
9.8820738e-07
1.0372705e-06
1.0942692e-06
1.1604757e-06
1.2374809e-06
1.3271819e-06
1.4317782e-06
1.5537909e-06
1.6960913e-06
1.8619111e-06
2.0548247e-06
2.2781575e-06
2.5344256e-06
2.8249942e-06
3.1503268e-06
3.5099207e-06
3.9018432e-06
4.3201597e-06
4.7615507e-06
5.2183016e-06
5.681962e-06
6.140884e-06
6.5799461e-06
6.9851661e-06
7.3476498e-06
7.6644772e-06
7.9381064e-06
8.1724896e-06
8.3702782e-06
8.5384474e-06
8.683417e-06
8.810476e-06
8.9237727e-06
9.0263565e-06
9.1204077e-06
9.2074666e-06
9.2885639e-06
9.3642966e-06
9.4351799e-06
9.5016089e-06
9.5636851e-06
9.6213398e-06
9.6740927e-06
9.7002964e-06
9.7154423e-06
9.7243206e-06
9.7276553e-06
9.725709e-06
9.7186497e-06
9.7068022e-06
9.6904669e-06
9.6700505e-06
9.6459299e-06
9.6184846e-06
9.5881071e-06
9.5551303e-06
9.5198748e-06
9.4826481e-06
9.4437165e-06
9.4033892e-06
9.3615118e-06
9.3192595e-06
9.2746499e-06
9.2241907e-06
9.1898688e-06
9.0977906e-06
2.2508174e-07
4.272942e-07
6.9868989e-07
8.933639e-07
9.8973256e-07
1.0235545e-06
1.0250716e-06
1.0107803e-06
9.8914945e-07
9.6538569e-07
9.4380138e-07
9.2879888e-07
9.220549e-07
9.2310629e-07
9.3207356e-07
9.4905594e-07
9.6936484e-07
9.5335438e-07
9.2972635e-07
9.1687407e-07
9.1368245e-07
9.185042e-07
9.3042144e-07
9.488082e-07
9.733057e-07
1.0037466e-06
1.0384687e-06
1.0775268e-06
1.1214633e-06
1.170811e-06
1.2261727e-06
1.2882827e-06
1.3580511e-06
1.4365996e-06
1.5252938e-06
1.6257477e-06
1.7396007e-06
1.8684848e-06
2.0151566e-06
2.1829462e-06
2.3756549e-06
2.5975566e-06
2.8534339e-06
3.148621e-06
3.4888548e-06
3.8790644e-06
4.3214272e-06
4.8169349e-06
5.3662568e-06
5.9693063e-06
6.6244241e-06
7.3265913e-06
8.0664441e-06
8.8343241e-06
9.6195494e-06
1.0408312e-05
1.1176815e-05
1.190175e-05
1.2568541e-05
1.3171133e-05
1.3708174e-05
1.4182371e-05
1.460007e-05
1.4969683e-05
1.5299809e-05
1.5598109e-05
1.5871035e-05
1.6123659e-05
1.6359769e-05
1.6582127e-05
1.6792562e-05
1.6992034e-05
1.718171e-05
1.7362357e-05
1.7534136e-05
1.7696851e-05
1.7849634e-05
1.7986697e-05
1.8107981e-05
1.8215006e-05
1.8308843e-05
1.8390091e-05
1.8459104e-05
1.8516455e-05
1.856278e-05
1.8598889e-05
1.8625606e-05
1.8643747e-05
1.8654175e-05
1.8657652e-05
1.865484e-05
1.8646466e-05
1.8633174e-05
1.8615619e-05
1.8593841e-05
1.8569446e-05
1.8540952e-05
1.8499836e-05
1.8478879e-05
1.8401951e-05
1.7530643e-07
2.158937e-07
3.1859064e-07
4.6498471e-07
6.0529268e-07
7.1037899e-07
7.7991611e-07
8.2295542e-07
8.4806295e-07
8.6132109e-07
8.6701626e-07
8.6873192e-07
8.6926979e-07
8.7066072e-07
8.7466487e-07
8.8295978e-07
8.9638636e-07
9.1558729e-07
9.4166791e-07
9.7589016e-07
1.0156809e-06
1.0618667e-06
1.0570784e-06
1.0562755e-06
1.0671034e-06
1.0882526e-06
1.1196997e-06
1.1617522e-06
1.2148949e-06
1.2798348e-06
1.3575418e-06
1.4493455e-06
1.5571719e-06
1.684048e-06
1.8350455e-06
2.0181975e-06
2.2360175e-06
2.4752595e-06
2.7408909e-06
3.0385903e-06
3.3741499e-06
3.753682e-06
4.1839316e-06
4.6727848e-06
5.2302338e-06
5.8556267e-06
6.5396286e-06
7.2800743e-06
8.0787167e-06
8.9366967e-06
9.8530685e-06
1.0823275e-05
1.1837496e-05
1.2882337e-05
1.3946533e-05
1.4997972e-05
1.6005803e-05
1.6954669e-05
1.7838237e-05
1.8655882e-05
1.9409713e-05
2.0102855e-05
2.074003e-05
2.1327475e-05
2.1871822e-05
2.2379525e-05
2.2856691e-05
2.330848e-05
2.3738925e-05
2.4151162e-05
2.4546254e-05
2.4923797e-05
2.5288592e-05
2.5641346e-05
2.5981854e-05
2.6309418e-05
2.6622345e-05
2.6918815e-05
2.7195623e-05
2.7451366e-05
2.7685958e-05
2.7899646e-05
2.8092651e-05
2.826554e-05
2.841909e-05
2.8554372e-05
2.8672574e-05
2.8774924e-05
2.886277e-05
2.893737e-05
2.8999193e-05
2.9049973e-05
2.9090972e-05
2.9123235e-05
2.914722e-05
2.9164561e-05
2.9175566e-05
2.9165175e-05
2.9175122e-05
2.9133619e-05
1.689061e-07
1.7480252e-07
1.9623116e-07
2.416027e-07
3.0838175e-07
3.8396429e-07
4.5676206e-07
5.2099489e-07
5.7524861e-07
6.1999296e-07
6.5627863e-07
6.8544157e-07
7.0895347e-07
7.2826471e-07
7.4483031e-07
7.6012732e-07
7.7549244e-07
7.9216346e-07
8.1147347e-07
8.3492295e-07
8.6346922e-07
8.9847176e-07
9.4051645e-07
9.898658e-07
1.0450252e-06
1.1061435e-06
1.174172e-06
1.2083346e-06
1.2332746e-06
1.2729116e-06
1.3285326e-06
1.4020279e-06
1.495864e-06
1.6130546e-06
1.7575325e-06
1.9347945e-06
2.1513993e-06
2.4124823e-06
2.7238704e-06
3.0927616e-06
3.5277681e-06
4.0393069e-06
4.6407882e-06
5.3516315e-06
6.2045246e-06
6.9696218e-06
7.8049919e-06
8.7625051e-06
9.8397875e-06
1.1030587e-05
1.2322087e-05
1.3690929e-05
1.5103791e-05
1.6564003e-05
1.8073607e-05
1.9178242e-05
2.009585e-05
2.1003604e-05
2.1904685e-05
2.2798067e-05
2.3678514e-05
2.4541047e-05
2.5382112e-05
2.6199155e-05
2.6990628e-05
2.7757053e-05
2.8500227e-05
2.9221766e-05
2.9923258e-05
3.0606455e-05
3.1272597e-05
3.192195e-05
3.2554998e-05
3.3171819e-05
3.3771594e-05
3.4353016e-05
3.4913631e-05
3.5451714e-05
3.59642e-05
3.6448161e-05
3.690194e-05
3.7324845e-05
3.7716634e-05
3.807765e-05
3.8408658e-05
3.8710871e-05
3.8985748e-05
3.9234893e-05
3.946015e-05
3.9663326e-05
3.9846129e-05
4.0010306e-05
4.0157502e-05
4.0289212e-05
4.0406555e-05
4.0510898e-05
4.0605287e-05
4.0668624e-05
4.074524e-05
4.0789881e-05
1.6818116e-07
1.6866204e-07
1.7195876e-07
1.8126286e-07
1.9895965e-07
2.2490982e-07
2.5729526e-07
2.9359597e-07
3.3183353e-07
3.7055014e-07
4.0858325e-07
4.4502137e-07
4.7926234e-07
5.1098801e-07
5.4017661e-07
5.670895e-07
5.9218307e-07
6.1603986e-07
6.3938582e-07
6.6310983e-07
6.881385e-07
7.1553301e-07
7.4637222e-07
7.8172489e-07
8.223515e-07
8.6919493e-07
9.2356491e-07
9.8583726e-07
1.0558462e-06
1.1347841e-06
1.2243559e-06
1.326706e-06
1.4276016e-06
1.4948324e-06
1.5856497e-06
1.7047465e-06
1.8583975e-06
2.0546653e-06
2.3033254e-06
2.6160382e-06
3.0068534e-06
3.4926267e-06
4.0933141e-06
4.8323622e-06
5.7384649e-06
6.7098709e-06
7.7076397e-06
8.817119e-06
1.0049766e-05
1.140573e-05
1.2869761e-05
1.4406969e-05
1.5971816e-05
1.7626935e-05
1.9392888e-05
2.066998e-05
2.1768736e-05
2.2849944e-05
2.3924264e-05
2.5000362e-05
2.6080343e-05
2.7165108e-05
2.8249943e-05
2.932946e-05
3.0400192e-05
3.1460954e-05
3.2510226e-05
3.3545841e-05
3.456724e-05
3.5574717e-05
3.656784e-05
3.7545833e-05
3.8507764e-05
3.9452343e-05
4.0377286e-05
4.1280138e-05
4.2157449e-05
4.3006118e-05
4.3823045e-05
4.4604742e-05
4.5348211e-05
4.6051455e-05
4.6713334e-05
4.7333555e-05
4.7912539e-05
4.8451331e-05
4.8951359e-05
4.9414354e-05
4.9842499e-05
5.0238012e-05
5.0603307e-05
5.0940565e-05
5.1251869e-05
5.1539122e-05
5.1804233e-05
5.2048107e-05
5.2276755e-05
5.2465114e-05
5.2652514e-05
5.2845339e-05
1.6814574e-07
1.678731e-07
1.6803262e-07
1.6934735e-07
1.7271473e-07
1.7877495e-07
1.8775956e-07
1.996137e-07
2.1419962e-07
2.3140014e-07
2.5108102e-07
2.7274895e-07
2.9593514e-07
3.2016688e-07
3.4500804e-07
3.7010884e-07
3.9522155e-07
4.2020004e-07
4.4502399e-07
4.698198e-07
4.9484246e-07
5.2047946e-07
5.4725139e-07
5.7580416e-07
6.0684252e-07
6.4117297e-07
6.7978219e-07
7.2364587e-07
7.7365525e-07
8.3097054e-07
8.9714096e-07
9.7360019e-07
1.0618613e-06
1.1632863e-06
1.2800852e-06
1.4151309e-06
1.5722169e-06
1.756486e-06
1.9284373e-06
2.1213326e-06
2.3730461e-06
2.700912e-06
3.1274728e-06
3.682062e-06
4.4017624e-06
5.3211131e-06
6.2974101e-06
7.3653527e-06
8.5757202e-06
9.9377819e-06
1.1453188e-05
1.3111189e-05
1.4887933e-05
1.6776962e-05
1.8774953e-05
2.062467e-05
2.1909533e-05
2.3189857e-05
2.4438142e-05
2.5675296e-05
2.6933545e-05
2.8217246e-05
2.9508629e-05
3.0809827e-05
3.212686e-05
3.3455261e-05
3.4789431e-05
3.6126066e-05
3.7464485e-05
3.8802525e-05
4.0136363e-05
4.1463914e-05
4.2783328e-05
4.4091204e-05
4.5382452e-05
4.6652666e-05
4.7896559e-05
4.9108892e-05
5.0285581e-05
5.1422486e-05
5.2515425e-05
5.3561077e-05
5.4557093e-05
5.5502054e-05
5.639563e-05
5.7238292e-05
5.8030973e-05
5.8775152e-05
5.9473028e-05
6.0126957e-05
6.0739641e-05
6.1313677e-05
6.1851516e-05
6.2355375e-05
6.282794e-05
6.3269568e-05
6.368892e-05
6.4059453e-05
6.4409292e-05
6.4820375e-05
1.6819005e-07
1.6781433e-07
1.6749293e-07
1.6735589e-07
1.6761861e-07
1.6851677e-07
1.7024716e-07
1.7296378e-07
1.7680605e-07
1.8191416e-07
1.8841926e-07
1.9640013e-07
2.0588866e-07
2.1686755e-07
2.2935073e-07
2.4328959e-07
2.585139e-07
2.748647e-07
2.9221418e-07
3.1047342e-07
3.2960168e-07
3.4961901e-07
3.7061825e-07
3.9277844e-07
4.1636312e-07
4.417296e-07
4.693574e-07
4.9983757e-07
5.338533e-07
5.7222556e-07
6.1598237e-07
6.6631634e-07
7.2461103e-07
7.9243891e-07
8.717559e-07
9.6452756e-07
1.0734868e-06
1.202223e-06
1.3545159e-06
1.5352699e-06
1.7514834e-06
2.0125192e-06
2.3305896e-06
2.7213394e-06
3.1865302e-06
3.7661111e-06
4.5193106e-06
5.3771412e-06
6.3843454e-06
7.5553964e-06
8.9026635e-06
1.0432392e-05
1.2140987e-05
1.4023136e-05
1.6074433e-05
1.8246019e-05
2.0452748e-05
2.2483725e-05
2.3873412e-05
2.5255591e-05
2.6660153e-05
2.8074352e-05
2.9488631e-05
3.0935032e-05
3.2434108e-05
3.3954854e-05
3.54972e-05
3.7070602e-05
3.8671415e-05
4.0292306e-05
4.1928843e-05
4.3580904e-05
4.5243844e-05
4.6911144e-05
4.8574015e-05
5.0225284e-05
5.1856415e-05
5.3459829e-05
5.5029755e-05
5.6560288e-05
5.8045706e-05
5.9481374e-05
6.0863295e-05
6.2188333e-05
6.3454907e-05
6.4662343e-05
6.5810458e-05
6.6899941e-05
6.7932453e-05
6.8910029e-05
6.9835209e-05
7.071068e-05
7.1539054e-05
7.2322676e-05
7.3064865e-05
7.376537e-05
7.4434909e-05
7.5047541e-05
7.5616454e-05
7.6319798e-05
1.6824361e-07
1.6785098e-07
1.6745977e-07
1.6708859e-07
1.6677842e-07
1.6658723e-07
1.6657979e-07
1.6682342e-07
1.6739121e-07
1.683651e-07
1.6983456e-07
1.7189039e-07
1.7462052e-07
1.7810531e-07
1.8242097e-07
1.8763456e-07
1.9379378e-07
2.0092937e-07
2.090601e-07
2.1819875e-07
2.2838524e-07
2.3970402e-07
2.5217376e-07
2.6580123e-07
2.8063785e-07
2.9679015e-07
3.144284e-07
3.3380064e-07
3.5523949e-07
3.7916878e-07
4.0612976e-07
4.3679825e-07
4.7201085e-07
5.127929e-07
5.604215e-07
6.1640248e-07
6.8262078e-07
7.615004e-07
8.5598542e-07
9.6942536e-07
1.1064108e-06
1.2729847e-06
1.4771087e-06
1.7292275e-06
2.0425839e-06
2.43362e-06
2.9205298e-06
3.5193249e-06
4.2473339e-06
5.123087e-06
6.1657498e-06
7.3933635e-06
8.8199883e-06
1.0455743e-05
1.2307993e-05
1.4363875e-05
1.6579201e-05
1.8900204e-05
2.1256817e-05
2.3634546e-05
2.5605826e-05
2.7113879e-05
2.8631031e-05
3.0183387e-05
3.1769236e-05
3.3371674e-05
3.5018087e-05
3.6741049e-05
3.8507384e-05
4.0312053e-05
4.2166698e-05
4.4072731e-05
4.6016073e-05
4.7986949e-05
4.9977565e-05
5.1976982e-05
5.3972706e-05
5.5956317e-05
5.7919394e-05
5.9852384e-05
6.1747758e-05
6.3599013e-05
6.5399404e-05
6.7143461e-05
6.8827615e-05
7.0449108e-05
7.2005943e-05
7.3497256e-05
7.4923293e-05
7.6285051e-05
7.7584319e-05
7.88233e-05
8.000443e-05
8.1129827e-05
8.220317e-05
8.3223505e-05
8.4202927e-05
8.5117437e-05
8.5964092e-05
8.7033596e-05
1.6834533e-07
1.6795315e-07
1.6755467e-07
1.6715127e-07
1.6674941e-07
1.6636056e-07
1.6600057e-07
1.6568906e-07
1.6544985e-07
1.6531184e-07
1.6530932e-07
1.654817e-07
1.6587298e-07
1.665308e-07
1.6750592e-07
1.6885162e-07
1.7062194e-07
1.7287016e-07
1.7564804e-07
1.7900591e-07
1.8299522e-07
1.8767216e-07
1.9309156e-07
1.9930716e-07
2.0637666e-07
2.1436726e-07
2.2336819e-07
2.3354058e-07
2.4508775e-07
2.581718e-07
2.7299062e-07
2.8983079e-07
3.090841e-07
3.3126654e-07
3.5705149e-07
3.8728329e-07
4.2302291e-07
4.6563281e-07
5.1685165e-07
5.7883933e-07
6.5439758e-07
7.4722083e-07
8.6217612e-07
1.0056066e-06
1.1860358e-06
1.4145951e-06
1.7051782e-06
2.0734943e-06
2.5370797e-06
3.1152262e-06
3.8288167e-06
4.6998393e-06
5.7503206e-06
7.0015482e-06
8.473918e-06
1.0180441e-05
1.2116476e-05
1.4259767e-05
1.6566141e-05
1.9000659e-05
2.1510989e-05
2.4054534e-05
2.6628916e-05
2.8806676e-05
3.0460882e-05
3.213387e-05
3.3855273e-05
3.562743e-05
3.7434547e-05
3.9301532e-05
4.1269837e-05
4.3312554e-05
4.5414818e-05
4.7583618e-05
4.9807743e-05
5.2069706e-05
5.43593e-05
5.6668798e-05
5.8983596e-05
6.1290257e-05
6.3580305e-05
6.5843127e-05
6.8067916e-05
7.0246797e-05
7.2373049e-05
7.4440441e-05
7.6444304e-05
7.8381182e-05
8.0248844e-05
8.2046368e-05
8.3773974e-05
8.5432575e-05
8.7023794e-05
8.8549012e-05
9.0011842e-05
9.1410386e-05
9.2757432e-05
9.403147e-05
9.5214463e-05
9.6720729e-05
1.6852049e-07
1.6817136e-07
1.6780873e-07
1.6743212e-07
1.6704293e-07
1.6664386e-07
1.6623897e-07
1.6583367e-07
1.6543478e-07
1.650508e-07
1.6469226e-07
1.6437204e-07
1.641057e-07
1.6391158e-07
1.6381096e-07
1.6382812e-07
1.6399024e-07
1.6432723e-07
1.6487142e-07
1.6565744e-07
1.6672226e-07
1.6810541e-07
1.6984887e-07
1.7199708e-07
1.7459716e-07
1.7769973e-07
1.8136157e-07
1.8565253e-07
1.906584e-07
1.9647621e-07
2.0321961e-07
2.1102874e-07
2.2008215e-07
2.3065346e-07
2.4312159e-07
2.5783751e-07
2.7523151e-07
2.9590687e-07
3.2068152e-07
3.5063871e-07
3.8720065e-07
4.3224877e-07
4.8829631e-07
5.5871813e-07
6.4813462e-07
7.6287653e-07
9.1147077e-07
1.1049041e-06
1.3570469e-06
1.6847776e-06
2.1079453e-06
2.6489936e-06
3.3321899e-06
4.1826654e-06
5.2258829e-06
6.4857508e-06
7.9798844e-06
9.7156033e-06
1.1684515e-05
1.3870227e-05
1.6241666e-05
1.8760638e-05
2.1401563e-05
2.4121253e-05
2.6880598e-05
2.9683199e-05
3.2159038e-05
3.3989244e-05
3.5842647e-05
3.7757873e-05
3.9739404e-05
4.1768411e-05
4.3877519e-05
4.6119999e-05
4.8441004e-05
5.083145e-05
5.3304436e-05
5.5840601e-05
5.8417194e-05
6.1025014e-05
6.3653397e-05
6.6283318e-05
6.890168e-05
7.149837e-05
7.406119e-05
7.6579619e-05
7.904545e-05
8.1451203e-05
8.3791126e-05
8.6061384e-05
8.8259437e-05
9.0383826e-05
9.2434374e-05
9.4410922e-05
9.6316287e-05
9.81471e-05
9.9916079e-05
0.00010160403
0.00010318083
0.00010518903
1.6867666e-07
1.6839204e-07
1.6809293e-07
1.6777787e-07
1.6744674e-07
1.6710022e-07
1.6673963e-07
1.6636674e-07
1.6598362e-07
1.6559263e-07
1.6519659e-07
1.6479899e-07
1.6440427e-07
1.6401804e-07
1.6364726e-07
1.6330046e-07
1.6298786e-07
1.6272152e-07
1.6251546e-07
1.6238578e-07
1.6235067e-07
1.624306e-07
1.6264835e-07
1.6302917e-07
1.6360084e-07
1.6439386e-07
1.6544193e-07
1.6678314e-07
1.6846116e-07
1.7052593e-07
1.730354e-07
1.7605793e-07
1.7967555e-07
1.8399329e-07
1.8914897e-07
1.953086e-07
2.026749e-07
2.1150645e-07
2.2215662e-07
2.3518078e-07
2.5118978e-07
2.7089491e-07
2.9531825e-07
3.259013e-07
3.6467591e-07
4.1449232e-07
4.7935629e-07
5.6485576e-07
6.7872412e-07
8.3150393e-07
1.0372255e-06
1.3139755e-06
1.6842931e-06
2.1747055e-06
2.8145313e-06
3.6337577e-06
4.6597458e-06
5.9136573e-06
7.4074507e-06
9.1454282e-06
1.112244e-05
1.3324392e-05
1.5735162e-05
1.8327339e-05
2.1066118e-05
2.3931344e-05
2.6888641e-05
2.9895413e-05
3.2960045e-05
3.5737904e-05
3.7769478e-05
3.981771e-05
4.1935367e-05
4.4132167e-05
4.638876e-05
4.8756749e-05
5.1280323e-05
5.38908e-05
5.6587217e-05
5.9379285e-05
6.2237375e-05
6.5137615e-05
6.8072903e-05
7.1026349e-05
7.397794e-05
7.6914853e-05
7.9823394e-05
8.2690797e-05
8.5507242e-05
8.8264659e-05
9.0956209e-05
9.3576727e-05
9.6122923e-05
9.8591877e-05
0.00010098446
0.00010329493
0.00010553494
0.0001076868
0.00010971275
0.00011228072
1.6876885e-07
1.6852919e-07
1.6827921e-07
1.6801713e-07
1.6774201e-07
1.6745349e-07
1.6715171e-07
1.6683723e-07
1.6651071e-07
1.6617279e-07
1.6582406e-07
1.6546521e-07
1.6509708e-07
1.6472088e-07
1.6433821e-07
1.6395126e-07
1.6356288e-07
1.631767e-07
1.6279728e-07
1.6243023e-07
1.6208233e-07
1.6176165e-07
1.6147773e-07
1.6124168e-07
1.6106634e-07
1.609664e-07
1.6095862e-07
1.610621e-07
1.6129868e-07
1.6169328e-07
1.6227458e-07
1.6307583e-07
1.6413575e-07
1.6550058e-07
1.6722697e-07
1.6938425e-07
1.7205731e-07
1.7535165e-07
1.7940262e-07
1.8439544e-07
1.9056704e-07
1.9821601e-07
2.0773782e-07
2.1969051e-07
2.3496579e-07
2.546023e-07
2.8001646e-07
3.1334705e-07
3.5774956e-07
4.1782386e-07
5.0020344e-07
6.1438407e-07
7.7382098e-07
9.97118e-07
1.3089651e-06
1.7401622e-06
2.3259906e-06
3.1015387e-06
4.0956219e-06
5.3270295e-06
6.8040488e-06
8.5274253e-06
1.0495305e-05
1.2701099e-05
1.5131401e-05
1.777268e-05
2.0602522e-05
2.3586845e-05
2.6708557e-05
2.9938187e-05
3.3229616e-05
3.6594174e-05
3.9599487e-05
4.1819561e-05
4.407478e-05
4.6416802e-05
4.8847945e-05
5.134692e-05
5.4008422e-05
5.6835519e-05
5.9752986e-05
6.2776549e-05
6.5904789e-05
6.909911e-05
7.23395e-05
7.5615094e-05
7.8901005e-05
8.2181159e-05
8.5441484e-05
8.8667488e-05
9.1846828e-05
9.4969178e-05
9.8026712e-05
0.00010101207
0.0001039227
0.00010674924
0.00010950082
0.00011216001
0.00011468607
0.00011786162
1.6881516e-07
1.6859884e-07
1.6837589e-07
1.6814491e-07
1.6790491e-07
1.6765521e-07
1.6739553e-07
1.6712592e-07
1.6684656e-07
1.6655766e-07
1.6625927e-07
1.6595139e-07
1.6563399e-07
1.6530704e-07
1.6497061e-07
1.646249e-07
1.642703e-07
1.6390742e-07
1.635372e-07
1.6316095e-07
1.6278042e-07
1.6239792e-07
1.6201637e-07
1.6163946e-07
1.612717e-07
1.6091858e-07
1.6058669e-07
1.6028385e-07
1.6001931e-07
1.5980394e-07
1.5965048e-07
1.5957386e-07
1.5959159e-07
1.5972425e-07
1.5999637e-07
1.6043742e-07
1.6108293e-07
1.6197615e-07
1.6317057e-07
1.6473447e-07
1.6675503e-07
1.6934347e-07
1.7264434e-07
1.7685103e-07
1.8223926e-07
1.8917829e-07
1.9817337e-07
2.0994994e-07
2.2568488e-07
2.4705552e-07
2.7630732e-07
3.1695616e-07
3.7440939e-07
4.5687106e-07
5.7660831e-07
7.5160153e-07
1.0072664e-06
1.3770793e-06
1.9006157e-06
2.6178756e-06
3.5615896e-06
4.7515336e-06
6.1952263e-06
7.8925667e-06
9.8406111e-06
1.203787e-05
1.4480795e-05
1.7157788e-05
2.0057129e-05
2.3158954e-05
2.6428126e-05
2.9848841e-05
3.3388e-05
3.6999802e-05
4.0697869e-05
4.3787435e-05
4.6216078e-05
4.8697326e-05
5.1285826e-05
5.396662e-05
5.6736286e-05
5.9723972e-05
6.2873344e-05
6.6131031e-05
6.9508738e-05
7.2988694e-05
7.6530328e-05
8.0123829e-05
8.3747992e-05
8.7379127e-05
9.1000345e-05
9.4594154e-05
9.8147351e-05
0.00010164606
0.00010508303
0.00010844366
0.00011173265
0.00011493152
0.00011799863
0.00012181541
1.6883689e-07
1.6863134e-07
1.6842122e-07
1.682056e-07
1.679837e-07
1.6775493e-07
1.6751894e-07
1.6727564e-07
1.6702511e-07
1.6676743e-07
1.6650261e-07
1.6623057e-07
1.6595115e-07
1.6566417e-07
1.653694e-07
1.6506663e-07
1.6475566e-07
1.6443634e-07
1.6410858e-07
1.6377238e-07
1.6342786e-07
1.6307531e-07
1.6271522e-07
1.6234832e-07
1.6197567e-07
1.6159869e-07
1.6121926e-07
1.6083978e-07
1.6046329e-07
1.6009357e-07
1.5973523e-07
1.5939392e-07
1.5907644e-07
1.58791e-07
1.5854748e-07
1.5835776e-07
1.5823623e-07
1.5820026e-07
1.5827107e-07
1.5847488e-07
1.5884443e-07
1.5942087e-07
1.6025663e-07
1.6141969e-07
1.6300106e-07
1.6512317e-07
1.6795318e-07
1.7172535e-07
1.7678846e-07
1.8365691e-07
1.930736e-07
2.0616431e-07
2.2480046e-07
2.518201e-07
2.9140798e-07
3.5036883e-07
4.3950236e-07
5.7538367e-07
7.8234718e-07
1.0937028e-06
1.5505866e-06
2.1973659e-06
3.0728839e-06
4.2027676e-06
5.5972115e-06
7.256595e-06
9.1789761e-06
1.1363119e-05
1.3810562e-05
1.6520741e-05
1.9482433e-05
2.2683951e-05
2.610277e-05
2.9701617e-05
3.3465493e-05
3.7346661e-05
4.1312549e-05
4.5377226e-05
4.8386019e-05
5.103313e-05
5.3761364e-05
5.6613119e-05
5.9554211e-05
6.266847e-05
6.6002948e-05
6.9489445e-05
7.3110378e-05
7.6864022e-05
8.0715258e-05
8.4632596e-05
8.8598678e-05
9.2585173e-05
9.6574556e-05
0.0001005442
0.00010448186
0.00010836559
0.00011219368
0.00011594566
0.00011957435
0.00012404535
1.6884642e-07
1.6864548e-07
1.6844098e-07
1.682323e-07
1.6801889e-07
1.6780029e-07
1.6757621e-07
1.6734656e-07
1.6711139e-07
1.6687078e-07
1.6662477e-07
1.6637334e-07
1.6611639e-07
1.658538e-07
1.6558538e-07
1.6531096e-07
1.650303e-07
1.6474318e-07
1.6444938e-07
1.6414866e-07
1.6384081e-07
1.6352563e-07
1.6320297e-07
1.6287273e-07
1.6253488e-07
1.6218952e-07
1.6183685e-07
1.6147727e-07
1.6111138e-07
1.6074005e-07
1.6036447e-07
1.5998624e-07
1.5960741e-07
1.5923061e-07
1.5885917e-07
1.584972e-07
1.5814986e-07
1.5782347e-07
1.5752586e-07
1.572667e-07
1.5705799e-07
1.569147e-07
1.5685566e-07
1.5690484e-07
1.5709325e-07
1.5746165e-07
1.5806473e-07
1.5897738e-07
1.6030596e-07
1.6220474e-07
1.6489926e-07
1.6872741e-07
1.7422222e-07
1.8222058e-07
1.940268e-07
2.1175376e-07
2.3913396e-07
2.8176392e-07
3.4875559e-07
4.5464247e-07
6.2135281e-07
8.8006653e-07
1.2713155e-06
1.8417677e-06
2.6368783e-06
3.691074e-06
5.0221947e-06
6.6339852e-06
8.524759e-06
1.0695049e-05
1.3147265e-05
1.5885888e-05
1.891041e-05
2.2207362e-05
2.5763488e-05
2.9546822e-05
3.3521068e-05
3.7672332e-05
4.1926897e-05
4.6279556e-05
5.0557326e-05
5.3451403e-05
5.6331406e-05
5.9331222e-05
6.24551e-05
6.5685899e-05
6.9196701e-05
7.2903302e-05
7.6782269e-05
8.0807931e-05
8.4962013e-05
8.9203758e-05
9.3513939e-05
9.7860825e-05
0.00010222724
0.00010658151
0.0001109142
0.00011520217
0.00011937889
0.00012448708
1.6885e-07
1.6865083e-07
1.6844855e-07
1.6824275e-07
1.6803307e-07
1.6781914e-07
1.6760073e-07
1.6737777e-07
1.671503e-07
1.6691841e-07
1.6668217e-07
1.6644159e-07
1.6619667e-07
1.6594733e-07
1.656935e-07
1.6543507e-07
1.651719e-07
1.6490386e-07
1.6463077e-07
1.6435246e-07
1.6406874e-07
1.637794e-07
1.6348425e-07
1.6318307e-07
1.6287565e-07
1.625618e-07
1.6224133e-07
1.6191411e-07
1.6158004e-07
1.612391e-07
1.6089133e-07
1.6053692e-07
1.6017621e-07
1.5980971e-07
1.5943819e-07
1.5906269e-07
1.5868465e-07
1.5830594e-07
1.5792897e-07
1.5755686e-07
1.5719356e-07
1.5684408e-07
1.5651476e-07
1.5621369e-07
1.5595122e-07
1.5574078e-07
1.5560004e-07
1.5555278e-07
1.5563177e-07
1.5588332e-07
1.5637436e-07
1.5720377e-07
1.5852288e-07
1.605682e-07
1.6371336e-07
1.6856306e-07
1.7614674e-07
1.8814576e-07
2.0736091e-07
2.3868797e-07
2.8979925e-07
3.7291101e-07
5.0712133e-07
7.2042488e-07
1.0510406e-06
1.5460324e-06
2.2558433e-06
3.2248166e-06
4.4815028e-06
6.0373425e-06
7.892988e-06
1.004838e-05
1.2508139e-05
1.5277797e-05
1.8363289e-05
2.1759576e-05
2.5449355e-05
2.9416771e-05
3.3613118e-05
3.8007655e-05
4.2577857e-05
4.7236449e-05
5.2006799e-05
5.5894055e-05
5.9005874e-05
6.2157234e-05
6.5463845e-05
6.8874712e-05
7.2531804e-05
7.6445313e-05
8.0563677e-05
8.4862968e-05
8.9312438e-05
9.3883989e-05
9.8549005e-05
0.00010326768
0.00010802138
0.000112783
0.0001174536
0.00012313347
1.6885072e-07
1.6865202e-07
1.6845042e-07
1.6824564e-07
1.6803743e-07
1.678255e-07
1.6760968e-07
1.673899e-07
1.671662e-07
1.6693865e-07
1.6670734e-07
1.6647229e-07
1.6623354e-07
1.6599108e-07
1.6574489e-07
1.6549491e-07
1.6524109e-07
1.6498336e-07
1.6472164e-07
1.6445582e-07
1.6418581e-07
1.6391148e-07
1.6363269e-07
1.633493e-07
1.6306116e-07
1.6276809e-07
1.6246991e-07
1.6216645e-07
1.6185751e-07
1.6154292e-07
1.6122249e-07
1.6089608e-07
1.6056355e-07
1.6022482e-07
1.5987987e-07
1.5952875e-07
1.5917164e-07
1.5880884e-07
1.5844085e-07
1.5806837e-07
1.576924e-07
1.5731431e-07
1.569359e-07
1.5655957e-07
1.5618843e-07
1.5582659e-07
1.5547944e-07
1.5515421e-07
1.5486072e-07
1.5461262e-07
1.5442937e-07
1.5433929e-07
1.5438488e-07
1.5463163e-07
1.5518265e-07
1.5620401e-07
1.5797315e-07
1.6095363e-07
1.6592907e-07
1.7425869e-07
1.8822232e-07
2.1163593e-07
2.5110442e-07
3.1685396e-07
4.2505705e-07
6.0028878e-07
8.7751755e-07
1.3025943e-06
1.9289355e-06
2.8093397e-06
3.9852495e-06
5.4784857e-06
7.295703e-06
9.4371758e-06
1.1907043e-05
1.471367e-05
1.7864085e-05
2.1363341e-05
2.5195897e-05
2.9339254e-05
3.3769103e-05
3.8422912e-05
4.3279261e-05
4.8272373e-05
5.3370604e-05
5.8440861e-05
6.1809092e-05
6.515697e-05
6.8616206e-05
7.2219412e-05
7.6017313e-05
8.0139521e-05
8.4476571e-05
8.9062201e-05
9.3826052e-05
9.8740663e-05
0.00010377038
0.0001088828
0.00011395637
0.00012006662
1.6885015e-07
1.6865135e-07
1.6844973e-07
1.6824512e-07
1.6803733e-07
1.6782614e-07
1.6761142e-07
1.6739309e-07
1.671712e-07
1.6694579e-07
1.6671693e-07
1.6648469e-07
1.6624909e-07
1.6601015e-07
1.6576788e-07
1.6552228e-07
1.6527332e-07
1.6502099e-07
1.6476526e-07
1.6450608e-07
1.642434e-07
1.6397718e-07
1.6370734e-07
1.6343382e-07
1.6315653e-07
1.6287537e-07
1.6259024e-07
1.6230103e-07
1.620076e-07
1.6170982e-07
1.6140754e-07
1.611006e-07
1.6078885e-07
1.6047211e-07
1.6015024e-07
1.5982307e-07
1.5949048e-07
1.5915237e-07
1.5880866e-07
1.5845936e-07
1.5810453e-07
1.5774436e-07
1.5737916e-07
1.5700941e-07
1.5663582e-07
1.5625941e-07
1.5588154e-07
1.5550414e-07
1.5512986e-07
1.5476239e-07
1.5440704e-07
1.5407151e-07
1.5376727e-07
1.5351186e-07
1.5333274e-07
1.5327397e-07
1.5340832e-07
1.5385788e-07
1.548305e-07
1.5668656e-07
1.6004673e-07
1.6597978e-07
1.7635071e-07
1.9428138e-07
2.2497839e-07
2.773128e-07
3.6482719e-07
5.0878258e-07
7.4064267e-07
1.1038439e-06
1.652921e-06
2.4472035e-06
3.5399625e-06
4.9670076e-06
6.7433407e-06
8.8725945e-06
1.1357362e-05
1.4207607e-05
1.7432845e-05
2.1038185e-05
2.5021969e-05
2.9355198e-05
3.4011071e-05
3.8937884e-05
4.4088544e-05
4.9437936e-05
5.4879491e-05
6.044464e-05
6.4707264e-05
6.829253e-05
7.1933827e-05
7.5736239e-05
7.9679083e-05
8.4014653e-05
8.8605008e-05
9.3481256e-05