/*--------------------------------*- C++ -*----------------------------------*\
| =========                 |                                                 |
| \\      /  F ield         | OpenFOAM: The Open Source CFD Toolbox           |
|  \\    /   O peration     | Version:  2206                                  |
|   \\  /    A nd           | Website:  www.openfoam.com                      |
|    \\/     M anipulation  |                                                 |
\*---------------------------------------------------------------------------*/
FoamFile
{
    version     2.0;
    format      ascii;
    arch        "LSB;label=32;scalar=64";
    class       volScalarField;
    location    "900";
    object      omega;
}
// * * * * * * * * * * * * * * * * * * * * * * * * * * * * * * * * * * * * * //

dimensions      [0 0 -1 0 0 0 0];

internalField   nonuniform List<scalar> 
7480
(
7569.1045
7590.8124
7571.1087
7538.1522
7512.562
7498.0733
7491.1175
7487.7273
7485.8482
7484.6246
7483.6793
7482.8685
7482.1621
7481.5509
7481.0209
7480.5587
7480.1554
7479.8012
7479.486
7479.2035
7478.9499
7478.7209
7478.5127
7478.3229
7478.1495
7477.9905
7477.844
7477.7088
7477.584
7477.4686
7477.3616
7477.2624
7477.1704
7477.0851
7477.0061
7476.9328
7476.8651
7476.8026
7476.7452
7476.6926
7476.6449
7476.602
7476.5638
7476.5304
7476.5018
7476.4785
7476.4604
7476.4481
7476.4416
7476.4407
7476.4452
7476.4548
7476.4692
7476.4872
7476.5081
7476.5312
7476.5551
7476.5778
7476.5972
7476.612
7476.6219
7476.627
7476.6278
7476.625
7476.6192
7476.6113
7476.6019
7476.5915
7476.5805
7476.5691
7476.5576
7476.546
7476.5346
7476.5232
7476.512
7476.501
7476.4901
7476.479
7476.4676
7476.4561
7476.4446
7476.4331
7476.4215
7476.4098
7476.398
7476.3861
7476.3742
7476.3622
7476.3501
7476.3381
7476.326
7476.3139
7476.3019
7476.2898
7476.2778
7476.2653
7476.2544
7476.2387
7476.2298
7476.2059
1003.2584
1574.4199
1842.5152
1920.794
1937.0348
1923.8635
1863.1505
1797.7844
1744.1629
1703.9716
1673.327
1647.667
1624.4414
1603.0256
1583.2503
1564.8795
1547.8152
1532.1807
1517.8282
1504.5245
1492.175
1480.7573
1470.1643
1460.2834
1451.069
1442.4943
1434.4878
1426.9809
1419.9426
1413.3492
1407.1585
1401.3351
1395.8626
1390.7246
1385.897
1381.3611
1377.108
1373.1261
1369.4018
1365.927
1362.7001
1359.7185
1356.9789
1354.4844
1352.2379
1350.2278
1348.4592
1346.9574
1345.7192
1344.7361
1344.0304
1343.6356
1343.447
1343.4322
1343.5535
1343.7726
1344.0471
1344.3168
1344.5255
1344.6171
1344.5763
1344.396
1344.1213
1343.7442
1343.264
1342.7041
1342.0859
1341.4301
1340.7524
1340.0646
1339.3757
1338.6923
1338.0181
1337.3562
1336.7094
1336.0772
1335.4624
1334.8561
1334.2535
1333.6562
1333.0639
1332.477
1331.8946
1331.3144
1330.7359
1330.1581
1329.5809
1329.0044
1328.4288
1327.8547
1327.2821
1326.7117
1326.144
1325.5777
1325.0175
1324.446
1323.901
1323.3385
1322.6623
1322.0508
190.6706
396.64501
585.9751
709.2195
769.26155
785.38321
782.09082
789.21414
803.67964
812.84102
819.32265
823.53878
825.03583
824.13797
821.413
817.39485
811.92861
805.27042
797.68164
789.37866
780.57301
771.46885
762.20981
752.89985
743.64383
734.53634
725.59342
716.81523
708.21789
699.82497
691.65087
683.70552
676.00247
668.55416
661.36786
654.45146
647.8146
641.45747
635.3773
629.57468
624.05565
618.82797
613.89918
609.27848
604.9823
601.00455
597.33332
593.96844
590.89909
588.11002
585.63774
583.48682
581.5523
579.8
578.20495
576.71397
575.26522
573.81821
572.36111
570.89658
569.41523
567.90957
566.45828
565.01302
563.5563
562.09096
560.62322
559.16199
557.71558
556.29094
554.89353
553.52781
552.1969
550.90285
549.64752
548.43002
547.25113
546.13301
545.05924
544.01692
542.9994
542.00347
541.02726
540.06716
539.12128
538.18727
537.26387
536.35013
535.44517
534.54899
533.66082
532.78075
531.9089
531.0436
530.1889
529.32812
528.49418
527.65722
526.73744
525.6512
72.003483
121.36956
194.00488
267.7367
324.63772
359.74774
377.81659
386.78876
392.45805
397.57354
404.52327
415.23237
426.21411
437.93865
452.2876
470.56056
485.15051
496.5408
505.31014
511.8685
516.53989
519.61592
521.35567
522.02854
521.95029
521.36743
520.00948
517.82409
514.89921
511.35901
507.32269
502.89409
498.16404
493.21299
488.11555
482.94607
477.75217
472.5169
467.23986
461.93813
456.63791
451.3669
446.15056
441.01196
435.98397
431.06407
426.21225
421.40321
416.63437
411.91165
407.2555
402.76475
398.34029
393.99391
389.76105
385.59677
381.46562
377.41313
373.52265
369.86481
366.45964
363.32481
360.4939
357.89139
355.46784
353.18793
351.02472
348.95947
346.97935
345.07564
343.24227
341.47572
339.77383
338.13426
336.55543
335.03477
333.57139
332.19045
330.88421
329.63714
328.43902
327.28437
326.17037
325.09321
324.05002
323.03752
322.05297
321.09401
320.15826
319.2442
318.34989
317.47416
316.61582
315.77289
314.94671
314.1276
313.32497
312.57351
311.71936
310.76034
55.641557
64.533379
83.914052
111.35559
140.42976
165.53859
184.59397
198.1422
207.75221
214.79782
220.42922
225.67122
230.96703
236.8388
244.1066
253.55557
263.35321
273.15696
282.75311
292.01101
300.83716
309.31179
317.72813
326.71903
337.34926
349.83588
359.69808
366.93099
372.21345
375.99599
378.58509
380.20198
381.02509
381.22209
380.98387
380.52194
379.81482
378.47018
376.48388
373.94073
370.93596
367.55219
363.85741
359.91222
355.79304
351.50136
346.96483
342.16284
337.12618
331.9005
326.53395
321.08653
315.6314
310.17813
304.76286
299.33995
293.9347
288.6712
283.66638
279.00029
274.73697
270.89115
267.42225
264.27321
261.39034
258.72719
256.24425
253.9105
251.7023
249.6019
247.59651
245.67814
243.83951
242.07482
240.38005
238.75136
237.1877
235.69189
234.26677
232.90828
231.61066
230.36946
229.18201
228.04499
226.95551
225.91018
224.90577
223.93921
223.00733
222.10762
221.23768
220.39529
219.57822
218.78421
218.01274
217.25858
216.51836
215.85028
215.10055
214.28328
53.50924
54.437163
58.088841
65.26732
75.161629
86.046531
96.440085
105.64795
113.5482
120.26769
125.97295
130.87868
135.18968
139.11813
142.94696
147.01492
151.423
156.27353
161.71268
167.82097
174.15947
180.72673
187.52834
194.61637
202.1029
210.07159
218.05391
225.69176
232.8108
239.34993
245.32268
250.8085
255.97819
261.16158
266.96845
274.11997
281.53544
286.10877
288.75699
290.08779
290.45558
290.07768
289.10693
287.68926
286.00697
284.20693
281.8424
278.81972
275.2399
271.21154
266.83481
262.20785
257.43096
252.53556
247.57398
242.61851
237.72365
232.97371
228.44741
224.19641
220.24239
216.59223
213.22909
210.12443
207.24832
204.57046
202.0618
199.69823
197.45962
195.32946
193.29519
191.34861
189.48229
187.69032
185.96844
184.31277
182.7224
181.19222
179.72368
178.31836
176.97535
175.69268
174.46868
173.30092
172.18696
171.12381
170.10838
169.13756
168.208
167.3168
166.46118
165.63852
164.84623
164.08187
163.34403
162.62941
161.93107
161.30246
160.63057
159.89052
53.223734
52.808289
52.9589
54.085441
56.274088
59.365273
62.97565
66.792131
70.620985
74.359475
77.937449
81.308877
84.452029
87.364913
90.078499
92.661365
95.183643
97.715963
100.34251
103.15392
106.19321
109.52844
113.2425
117.3864
121.86421
126.7253
131.94016
137.42485
143.08264
148.82956
154.59311
160.31612
165.96737
171.55682
177.13997
182.82288
188.52696
193.80282
198.43802
202.38743
205.68753
208.42576
210.75388
212.95096
215.48313
218.48146
219.85935
219.67833
218.49829
216.6327
214.30206
211.70621
209.01285
205.98491
202.56696
199.06277
195.62546
192.30267
189.05236
185.88421
182.82557
179.89021
177.07937
174.39501
171.83745
169.39952
167.07165
164.847
162.71628
160.67054
158.70273
156.80806
154.98266
153.2238
151.52909
149.8956
148.32304
146.80723
145.34689
143.94369
142.59878
141.31219
140.08348
138.9112
137.79353
136.72815
135.7125
134.74381
133.81891
132.93498
132.08905
131.27852
130.50088
129.75371
129.03529
128.34301
127.67044
127.05804
126.43568
125.7347
53.161573
52.542011
52.020392
51.712445
51.71198
52.04711
52.633473
53.455863
54.480398
55.669705
56.984087
58.38563
59.839078
61.31155
62.777739
64.225024
65.651287
67.061633
68.47051
69.901983
71.38207
72.942072
74.622034
76.467592
78.515272
80.816676
83.428682
86.355262
89.55099
93.014063
96.734142
100.69159
104.86339
109.22998
113.78236
118.52113
123.42641
128.40569
133.35487
138.1776
142.79311
147.13941
151.17325
154.87872
158.27905
161.33827
163.88125
165.76939
167.00259
167.67374
167.93539
167.98764
167.98189
167.25001
165.73843
163.8903
162.06329
160.2835
158.32793
156.29895
154.2592
152.20805
150.14136
148.08088
146.04342
144.03277
142.05528
140.12316
138.23482
136.39083
134.59284
132.84215
131.13942
129.48765
127.88751
126.33746
124.83884
123.39003
121.98905
120.63678
119.3348
118.08428
116.88581
115.73896
114.64259
113.59534
112.59556
111.64114
110.72935
109.85782
109.02396
108.22538
107.45998
106.72552
106.02037
105.34225
104.68647
104.08089
103.4886
102.80773
53.125194
52.474974
51.838574
51.240315
50.710558
50.272134
49.929255
49.684209
49.539123
49.48321
49.494231
49.598732
49.796609
50.077886
50.429021
50.836912
51.291315
51.784071
52.309933
52.867561
53.458767
54.088238
54.764725
55.501565
56.314954
57.225758
58.260564
59.445254
60.801315
62.354592
64.135166
66.145789
68.383651
70.855094
73.571554
76.541905
79.772524
83.256116
86.970055
90.883583
94.960831
99.161356
103.44116
107.75419
112.06106
116.26084
120.20916
123.79554
126.93117
129.55955
131.65385
133.21635
134.27787
134.88506
135.04548
134.79727
134.37895
133.85055
133.00097
132.01815
130.99766
129.85184
128.5521
127.16962
125.73004
124.23281
122.7002
121.15096
119.59187
118.03238
116.48181
114.94771
113.4353
111.95696
110.51491
109.10727
107.73868
106.40875
105.11539
103.85984
102.64374
101.46858
100.33558
99.245227
98.196863
97.190503
96.225695
95.301187
94.41474
93.564879
92.74975
91.967446
91.216626
90.495357
89.80236
89.135741
88.492693
87.89129
87.317546
86.648338
53.095151
52.438403
51.782416
51.131052
50.491139
49.870025
49.273222
48.705373
48.171259
47.674646
47.217089
46.802664
46.434955
46.115673
45.830271
45.572862
45.356086
45.18539
45.060974
44.981318
44.944324
44.947564
44.990139
45.073529
45.201185
45.378512
45.613444
45.915884
46.297158
46.770631
47.352543
48.058922
48.906297
49.914123
51.106123
52.488917
54.079313
55.895981
57.950527
60.251753
62.808855
65.628613
68.715235
72.070243
75.693985
79.564913
83.599979
87.697865
91.754369
95.662144
99.315761
102.61677
105.48081
107.85228
109.69264
110.92438
111.55504
111.76235
111.74557
111.56556
111.32781
110.96478
110.42395
109.77641
109.01978
108.09791
107.07428
105.9735
104.80103
103.5784
102.32206
101.04746
99.764977
98.506927
97.268037
96.045828
94.843732
93.663614
92.505685
91.371516
90.262984
89.181898
88.130179
87.109242
86.118581
85.159832
84.235153
83.344071
82.485006
81.657215
80.859787
80.091476
79.352186
78.640135
77.954672
77.294457
76.658238
76.057224
75.492346
74.827874
53.068768
52.408642
51.747485
51.085568
50.424012
49.764361
49.10838
48.458099
47.815926
47.184466
46.566188
45.963645
45.379419
44.815916
44.273851
43.753352
43.255809
42.78301
42.336573
41.917667
41.521925
41.139044
40.773807
40.435714
40.130793
39.862555
39.633622
39.446273
39.302994
39.207872
39.167008
39.187854
39.279129
39.451121
39.716219
40.087009
40.578472
41.208959
41.998537
42.95836
44.10853
45.471076
47.070073
48.93173
51.084818
53.559327
56.373829
59.517165
62.959787
66.648704
70.506397
74.431062
78.299952
81.982824
85.35664
88.280179
90.623197
92.355884
93.519877
94.224218
94.589204
94.758595
94.78794
94.713331
94.549693
94.22732
93.787488
93.229862
92.524369
91.718982
90.833956
89.898066
88.921167
87.937917
86.94189
85.934192
84.920633
83.90521
82.891053
81.882017
80.881435
79.892468
78.918563
77.962541
77.026094
76.111596
75.221558
74.357202
73.518839
72.706763
71.921012
71.161317
70.427646
69.719309
69.036273
68.377556
67.743226
67.139791
66.577224
65.912941
53.030743
52.366737
51.701864
51.035888
50.368791
49.700618
49.031628
48.362415
47.693897
47.027218
46.36362
45.704412
45.050973
44.404732
43.767005
43.138971
42.521821
41.916787
41.325125
40.748075
40.186324
39.639486
39.107718
38.592151
38.094405
37.616251
37.158798
36.716269
36.283472
35.868979
35.483211
35.133364
34.824565
34.560825
34.345846
34.184819
34.084783
34.054735
34.105498
34.248557
34.497764
34.870266
35.385705
36.063892
36.932997
38.027263
39.386143
41.048766
43.051204
45.421136
48.170896
51.289072
54.731784
58.418101
62.233381
66.02417
69.602757
72.795934
75.473154
77.597443
79.180457
80.300453
81.055811
81.524604
81.797161
81.939125
81.962168
81.888301
81.681179
81.362617
80.92756
80.398687
79.79576
79.126547
78.398925
77.626364
76.819286
75.983887
75.126654
74.254411
73.372542
72.486115
71.600388
70.719569
69.847084
68.986548
68.141149
67.313283
66.504662
65.716553
64.94989
64.205265
63.483178
62.783717
62.10727
61.453222
60.822666
60.219245
59.65851
58.995549
52.972345
52.293246
51.615635
50.939157
50.26339
49.587828
48.912107
48.236153
47.560184
46.884607
46.209911
45.536631
44.865343
44.196676
43.531297
42.869905
42.213233
41.562052
40.917172
40.27944
39.649682
39.028599
38.416841
37.815107
37.224184
36.644948
36.078288
35.524409
34.982965
34.454552
33.940819
33.443984
32.966204
32.503638
32.049407
31.613333
31.207843
30.841007
30.518434
30.244174
30.023174
29.863111
29.773982
29.767833
29.860108
30.070996
30.42584
30.954758
31.69642
32.696081
34.003736
35.669824
37.737917
40.233349
43.15085
46.439876
49.990419
53.638359
57.186491
60.457872
63.314907
65.688945
67.584298
69.025955
70.074313
70.817045
71.311044
71.628207
71.81898
71.890899
71.863771
71.726509
71.497708
71.187239
70.775686
70.288316
69.738461
69.130984
68.474302
67.778298
67.050667
66.298337
65.528778
64.747941
63.961179
63.173955
62.390578
61.614758
60.849636
60.097581
59.36059
58.640198
57.937634
57.253787
56.589611
55.945024
55.321966
54.722347
54.165046
53.505514
52.921455
52.221498
51.523957
50.828857
50.135986
49.444915
48.755226
48.066695
47.379331
46.693314
46.008901
45.326375
44.646028
43.968167
43.29311
42.621189
41.952751
41.288163
40.627811
39.972101
39.321461
38.676326
38.037133
37.404334
36.778405
36.15985
35.549206
34.946975
34.35357
33.769419
33.195083
32.631297
32.078928
31.538322
31.009048
30.491823
29.988652
29.502156
29.033242
28.572206
28.123422
27.702246
27.318525
26.978452
26.686695
26.450356
26.280534
26.192248
26.20554
26.346997
26.650809
27.15946
27.92639
29.012874
30.482134
32.38764
34.75435
37.556551
40.703061
44.046695
47.405944
50.602565
53.500987
56.009
58.08663
59.753272
61.03829
61.988864
62.678536
63.151889
63.472091
63.661974
63.741594
63.740886
63.649282
63.473749
63.226571
62.891846
62.478721
62.002765
61.471469
60.89105
60.272145
59.622346
58.948732
58.259281
57.559567
56.854904
56.150166
55.449003
54.754748
54.070032
53.397003
52.737475
52.093091
51.464448
50.85426
50.263494
49.713017
49.060385
52.891474
52.176821
51.463802
50.75276
50.043819
49.336869
48.631723
47.92827
47.22654
46.526692
45.828957
45.133595
44.440879
43.751088
43.064503
42.381408
41.702086
41.026822
40.355901
39.689608
39.028228
38.372045
37.721338
37.076384
36.437457
35.804831
35.178779
34.559578
33.94749
33.342772
32.745694
32.156554
31.575694
31.003436
30.440016
29.885715
29.341
28.806557
28.283081
27.770092
27.267683
26.777707
26.302876
25.843879
25.38933
24.949037
24.5394
24.170046
23.847946
23.581707
23.385734
23.280444
23.294019
23.464725
23.84259
24.488803
25.474129
26.865949
28.708304
31.000276
33.680956
36.631676
39.698838
42.718626
45.544693
48.077004
50.255423
52.056618
53.504771
54.628766
55.468365
56.07916
56.501727
56.778722
56.951906
57.03461
57.044077
56.97444
56.82574
56.609443
56.314722
55.943106
55.513249
55.030507
54.502349
53.94062
53.350981
52.740749
52.117054
51.484882
50.849304
50.214246
49.583009
48.958569
48.343386
47.738908
47.148629
46.573125
46.034591
45.39379
52.876543
52.153865
51.431933
50.711179
49.991877
49.274116
48.557896
47.843235
47.130228
46.419052
45.709943
45.003169
44.299015
43.597772
42.899741
42.205221
41.51451
40.827908
40.14571
39.468209
38.795693
38.128445
37.46674
36.810846
36.161023
35.517522
34.880582
34.250433
33.627292
33.011362
32.402831
31.801881
31.208681
30.623395
30.046163
29.47712
28.916407
28.364194
27.820685
27.285983
26.760174
26.243526
25.736572
25.239836
24.752466
24.274901
23.809484
23.359347
22.91695
22.481476
22.074284
21.70835
21.393562
21.143111
20.978741
20.931719
21.045395
21.376583
21.992325
22.961252
24.338902
26.146861
28.356909
30.886588
33.60997
36.383571
39.0686
41.548049
43.74824
45.629724
47.180303
48.423619
49.385777
50.099006
50.619157
50.983987
51.221011
51.363468
51.435112
51.437274
51.366965
51.223334
51.019258
50.737972
50.387899
49.988322
49.538853
49.050389
48.532781
47.991549
47.434121
46.86576
46.291216
45.714978
45.140454
44.5702
44.008564
43.456161
42.936414
42.313919
52.869937
52.143187
51.416617
50.690665
49.965648
49.241737
48.519026
47.797608
47.077614
46.359232
45.642697
44.928273
44.216242
43.506899
42.800546
42.097487
41.39803
40.70248
40.011143
39.324321
38.642313
37.965413
37.293908
36.628081
35.968206
35.314549
34.667368
34.02691
33.393412
32.767097
32.148176
31.536847
30.933292
30.337677
29.750151
29.170846
28.599876
28.037339
27.483321
26.93789
26.401085
25.872947
25.353542
24.842963
24.341165
23.848142
23.364158
22.889794
22.424676
21.968439
21.523363
21.092979
20.670319
20.257268
19.878207
19.548432
19.282383
19.103735
19.04743
19.160799
19.502901
20.138931
21.128584
22.510523
24.284736
26.403166
28.773122
31.27145
33.76918
36.149938
38.320363
40.225888
41.840024
43.157854
44.207808
45.014131
45.60936
46.038372
46.340312
46.530221
46.63556
46.68341
46.666195
46.580878
46.430367
46.22796
45.946281
45.608705
45.226207
44.801375
44.345573
43.864515
43.364771
42.852716
42.332724
41.808878
41.286473
40.766573
40.274187
39.67813
52.867726
52.138923
51.409972
50.681304
49.953253
49.226027
48.499771
47.774613
47.050705
46.328237
45.607436
44.888555
44.171867
43.457657
42.746218
42.037848
41.332849
40.631522
39.934168
39.241086
38.552572
37.868919
37.190414
36.517341
35.849976
35.188588
34.53344
33.884786
33.242874
32.607939
31.980209
31.359898
30.747212
30.142342
29.545466
28.956747
28.376334
27.804358
27.240934
26.686158
26.140107
25.602838
25.074391
24.554798
24.044062
23.542168
23.049118
22.564966
22.089703
21.62327
21.16588
20.718124
20.279695
19.850598
19.433868
19.034044
18.637441
18.267408
17.946326
17.691764
17.529404
17.496796
17.643228
18.026283
18.706561
19.733097
21.127374
22.871191
24.902176
27.122744
29.415289
31.664755
33.772731
35.664566
37.303261
38.673044
39.77954
40.651943
41.311277
41.792907
42.133003
42.367952
42.502896
42.575042
42.590999
42.547667
42.440824
42.279248
42.061564
41.778483
41.451016
41.080906
40.677425
40.248902
39.800218
39.337615
38.867245
38.391152
37.936474
37.376859
52.867879
52.138036
51.407841
50.677723
49.948022
49.218978
48.490765
47.763541
47.037471
46.312746
45.589587
44.868239
44.148963
43.432034
42.717734
42.006351
41.298178
40.593505
39.892627
39.195831
38.503407
37.815639
37.132806
36.455184
35.783042
35.116643
34.456245
33.802097
33.154442
32.513514
31.879538
31.252732
30.633304
30.021452
29.417362
28.821212
28.233166
27.653376
27.081981
26.519106
25.964861
25.419341
24.882624
24.354775
23.835841
23.325853
22.824832
22.332799
21.849764
21.375728
20.910709
20.454788
20.00799
19.570338
19.142208
18.724466
18.316188
17.919543
17.539306
17.166905
16.820174
16.524256
16.298328
16.17073
16.181262
16.380034
16.822428
17.563718
18.640236
20.057448
21.780503
23.735147
25.820429
27.924344
29.945559
31.802001
33.438237
34.832928
35.97802
36.889671
37.595707
38.117416
38.488968
38.74893
38.916489
38.995336
39.033928
39.016971
38.944146
38.816478
38.643995
38.40766
38.123647
37.801042
37.443297
37.059939
36.657063
36.238542
35.83376
35.322959
52.869352
52.138988
51.408133
50.67721
49.946569
49.21647
48.487118
47.758692
47.031372
46.305354
45.580859
44.858123
44.137403
43.418964
42.70308
41.990033
41.280104
40.573579
39.87074
39.17187
38.477247
37.787149
37.101845
36.421603
35.746683
35.07734
34.413822
33.75637
33.105218
32.460592
31.82271
31.191783
30.568012
29.95159
29.342699
28.741515
28.148201
27.562911
26.985789
26.416967
25.856567
25.304697
24.761454
24.226923
23.701178
23.184278
22.676276
22.177215
21.687135
21.206067
20.734045
20.271106
19.817287
19.372624
18.937191
18.511151
18.094529
17.6876
17.291176
16.904847
16.530595
16.173503
15.825159
15.508956
15.246953
15.059705
14.978505
15.045875
15.311555
15.829831
16.648549
17.789565
19.24145
20.952261
22.837194
24.793214
26.716047
28.519449
30.137014
31.532498
32.697595
33.633456
34.363807
34.913399
35.311158
35.581523
35.766783
35.869333
35.912158
35.912351
35.862661
35.761821
35.616777
35.423049
35.176495
34.893317
34.575836
34.231546
33.890844
33.444217
52.871592
52.140984
51.409777
50.678391
49.947183
49.216431
48.486363
47.75718
47.029078
46.302261
45.576951
44.853385
44.131812
43.412495
42.695703
41.98171
41.270794
40.563232
39.859303
39.159283
38.463444
37.772057
37.085384
36.403687
35.727219
35.056228
34.390953
33.731629
33.078481
32.431729
31.791582
31.158241
30.531901
29.912747
29.300953
28.696687
28.100106
27.511359
26.930584
26.35791
25.793455
25.23733
24.689631
24.150448
23.61986
23.097934
22.584732
22.080308
21.58471
21.097982
20.620169
20.151311
19.691453
19.240637
18.798914
18.366347
17.942995
17.528935
17.124321
16.729218
16.343904
15.969266
15.60494
15.253811
14.921404
14.599859
14.317858
14.094209
13.952613
13.927794
14.064497
14.413477
15.026122
15.939037
17.157874
18.651476
20.350625
22.162241
23.983718
25.721754
27.306621
28.689868
29.85422
30.799862
31.543018
32.107362
32.516618
32.801475
32.992255
33.108172
33.155138
33.165393
33.131336
33.05152
32.929011
32.767968
32.553547
32.302522
32.04197
31.678013
52.874298
52.143594
51.412206
50.680548
49.948978
49.217792
48.487238
47.757536
47.028899
46.301539
45.575684
44.85157
44.129447
43.409575
42.692219
41.97765
41.266143
40.557971
39.853408
39.152727
38.456196
37.76408
37.076639
36.39413
35.7168
35.044892
34.378642
33.718278
33.06402
32.41608
31.774664
31.139966
30.512173
29.891464
29.278008
28.671964
28.073483
27.482706
26.899767
26.324786
25.757878
25.199146
24.648684
24.106576
23.572898
23.047717
22.53109
22.023069
21.523702
21.033029
20.551091
20.077925
19.613568
19.15806
18.71144
18.273753
17.845044
17.425362
17.014759
16.613282
16.220984
15.838016
15.464448
15.100702
14.747873
14.405811
14.07845
13.766749
13.477197
13.232949
13.052979
12.96546
13.009306
13.231408
13.683357
14.410749
15.43324
16.737026
18.268757
19.943652
21.663786
23.332399
24.872492
26.231254
27.383117
28.326446
29.068991
29.636598
30.050775
30.341606
30.532997
30.654515
30.709308
30.722013
30.699226
30.635388
30.532199
30.393451
30.229139
29.968198
52.877294
52.146581
51.41511
50.683288
49.951477
49.219985
48.489076
47.758989
47.029952
46.302188
45.57593
44.851417
44.1289
43.408638
42.690895
41.97594
41.264044
40.555479
39.850517
39.149427
38.452475
37.759923
37.072029
36.389046
35.711218
35.038786
34.371982
33.71103
33.056148
32.407543
31.765417
31.12996
30.501355
29.879776
29.265386
28.658342
28.058788
27.466861
26.882687
26.306384
25.73806
25.177812
24.62573
24.081892
23.54637
23.019225
22.50051
21.990271
21.488549
20.995378
20.51079
20.034812
19.567473
19.108797
18.658811
18.217542
17.785021
17.361277
16.946338
16.540227
16.14296
15.754563
15.375058
15.004506
14.643095
14.290954
13.948725
13.617077
13.29751
12.994643
12.706401
12.45186
12.248814
12.119642
12.097612
12.225841
12.554246
13.132122
13.992143
15.133155
16.516293
18.066217
19.688002
21.284669
22.773988
24.100046
25.22931
26.157182
26.89058
27.452046
27.864071
28.1532
28.34365
28.464511
28.525104
28.538951
28.525336
28.474095
28.405518
28.265628
52.88048
52.149805
51.418307
50.686387
49.954409
49.222689
48.491507
47.761117
47.031759
46.30367
45.577087
44.852256
44.129429
43.408864
42.690826
41.975582
41.263402
40.554557
39.849316
39.147946
38.450713
37.757876
37.069692
36.386411
35.708276
35.035525
34.368388
33.707088
33.051839
32.402848
31.760313
31.124421
30.495353
29.873281
29.258364
28.650754
28.050595
27.458019
26.873148
26.296097
25.726969
25.165859
24.612851
24.068021
23.531435
23.00315
22.483215
21.971671
21.468552
20.973887
20.4877
20.010009
19.540831
19.08018
18.628069
18.184511
17.749518
17.323103
16.905275
16.496041
16.095402
15.703351
15.319883
14.944989
14.578681
14.22098
13.871979
13.531845
13.200917
12.880119
12.569937
12.27357
11.994845
11.736934
11.520382
11.363988
11.29595
11.355227
11.58957
12.049621
12.776357
13.780011
15.033456
16.470667
18.00017
19.525841
20.96131
22.246202
23.344803
24.248594
24.9652
25.512923
25.917294
26.198489
26.385662
26.502917
26.567308
26.585913
26.592915
26.547931
52.883791
52.15318
51.42169
50.689715
49.957617
49.225721
48.494317
47.763675
47.034048
46.305681
45.578822
44.853719
44.130627
43.409807
42.691522
41.976041
41.263632
40.554565
39.849107
39.147526
38.450084
37.757041
37.068651
36.385163
35.706819
35.033857
34.366503
33.704981
33.049502
32.400272
31.757487
31.121333
30.49199
29.869626
29.2544
28.646462
28.045952
27.453002
26.867732
26.290253
25.720666
25.159063
24.605527
24.06013
23.522936
22.993997
22.473361
21.961064
21.457137
20.961603
20.474481
19.995782
19.525517
19.06369
18.610305
18.165361
17.728859
17.300797
16.881169
16.46997
16.067183
15.672791
15.286769
14.909088
14.53972
14.178636
13.825819
13.481271
13.145034
12.817264
12.498154
12.18831
11.88878
11.600917
11.328928
11.073832
10.851455
10.678768
10.579798
10.589568
10.753102
11.121271
11.739746
12.62924
13.771703
15.109561
16.554832
18.011007
19.39031
20.629069
21.691032
22.564209
23.25783
23.785454
24.175294
24.445913
24.628337
24.743004
24.822829
24.850008
52.887186
52.156654
51.425192
50.693188
49.961002
49.228965
48.497377
47.76652
47.036657
46.308045
45.580939
44.855592
44.132263
43.411214
42.69271
41.97702
41.26441
40.555151
39.84951
39.147752
38.45014
37.756931
37.068379
36.384733
35.706233
35.033114
34.365606
33.703927
33.04829
32.398899
31.755949
31.119625
30.490106
29.867558
29.252141
28.644002
28.04328
27.450106
26.864597
26.286865
25.717008
25.155118
24.601274
24.055548
23.518
22.988684
22.467643
21.954911
21.450516
20.95448
20.466816
19.987534
19.516636
19.054123
18.599991
18.154233
17.71684
17.287799
16.867095
16.45471
16.050621
15.654795
15.267198
14.88779
14.516525
14.153356
13.798234
13.451115
13.111961
12.780756
12.457509
12.142305
11.835355
11.537022
11.248205
10.969807
10.704968
10.456939
10.233537
10.051798
9.932471
9.9070182
10.017716
10.315041
10.847357
11.643406
12.692778
13.944215
15.313046
16.702791
18.02545
19.215117
20.23601
21.073229
21.736876
22.240249
22.612775
22.872241
23.062601
23.17869
52.890638
52.160192
51.428771
50.696754
49.964503
49.23235
48.500605
47.769559
47.039486
46.310652
45.583319
44.857746
44.134197
43.412936
42.694229
41.978344
41.26555
40.556116
39.850308
39.148392
38.450628
37.757275
37.068585
36.384804
35.706175
35.032931
34.365299
33.7035
33.047743
32.398232
31.755163
31.118719
30.489077
29.866404
29.250858
28.642587
28.041728
27.44841
26.862752
26.284862
25.714839
25.152773
24.598743
24.052819
23.515061
22.98552
22.464239
21.951251
21.446583
20.950253
20.462273
19.98265
19.511384
19.048472
18.593906
18.147673
17.709759
17.280145
16.85881
16.445728
16.040866
15.644188
15.255649
14.875201
14.50279
14.138357
13.781843
13.433183
13.092316
12.759182
12.433728
12.115916
11.80574
11.503238
11.208563
10.921965
10.644099
10.375985
10.119652
9.8794253
9.6586102
9.4729881
9.3410615
9.2912242
9.3633385
9.6068832
10.071999
10.792916
11.765315
12.942772
14.243409
15.570882
16.837604
17.976225
18.951306
19.74813
20.378882
20.856378
21.225069
21.474627
52.894127
52.16377
51.432395
50.700378
49.968076
49.235827
48.503946
47.772732
47.042469
46.313431
45.585886
44.860102
44.136345
43.414882
42.69598
41.97991
41.26694
40.557339
39.851373
39.149308
38.451403
37.757916
37.069099
36.385198
35.706453
35.033099
34.365361
33.703459
33.047603
32.397995
31.75483
31.118292
30.488557
29.865791
29.250151
28.641785
28.040829
27.447413
26.861653
26.283658
25.713527
25.151347
24.597198
24.051149
23.513259
22.98358
22.462152
21.949009
21.444175
20.947669
20.459501
19.979676
19.508193
19.045046
18.590225
18.143715
17.705496
17.275548
16.853844
16.440353
16.035039
15.637859
15.248764
14.8677
14.494608
14.129422
13.772075
13.422494
13.080608
12.746341
12.41962
12.100374
11.788536
11.484055
11.186901
10.897081
10.614688
10.339938
10.073297
9.8157835
9.5687435
9.335742
9.1202984
8.9348145
8.7961404
8.7302921
8.7750001
8.9786295
9.3923783
10.054211
10.964434
12.079907
13.320792
14.590537
15.801847
16.887356
17.814974
18.569559
19.182574
19.638352
52.897639
52.16737
51.436045
50.704035
49.971695
49.239364
48.507363
47.775998
47.04556
46.316333
45.588591
44.862606
44.138649
43.416991
42.697902
41.981652
41.26851
40.558747
39.852628
39.150418
38.452376
37.758761
37.069822
36.385807
35.706954
35.033497
34.365661
33.703666
33.047721
32.398028
31.75478
31.118162
30.48835
29.865508
29.249793
28.641352
28.040323
27.446833
26.860998
26.282928
25.712719
25.150461
24.59623
24.050098
23.512121
22.982351
22.460829
21.947587
21.44265
20.946034
20.457751
19.977803
19.506189
19.042902
18.587929
18.141255
17.702857
17.272712
16.85079
16.437059
16.031479
15.634004
15.244581
14.863154
14.489659
14.124026
13.766184
13.416056
13.073563
12.738625
12.411157
12.091078
11.778304
11.472755
11.174355
10.883037
10.598756
10.321497
10.05131
9.7883761
9.5330342
9.2860853
9.0487228
8.8238597
8.6154067
8.4325219
8.2912776
8.2155554
8.2415403
8.416386
8.7921475
9.4089218
10.270775
11.335764
12.524873
13.740526
14.898837
15.931029
16.830094
17.551749
52.901163
52.17098
51.439706
50.707707
49.975337
49.242936
48.510828
47.779326
47.048729
46.319324
45.591395
44.865219
44.141071
43.419224
42.699952
41.983525
41.270216
40.560292
39.854022
39.151669
38.453493
37.759751
37.070693
36.386566
35.707607
35.034051
34.366122
33.704038
33.048009
32.398236
31.754913
31.118223
30.48834
29.865431
29.249652
28.641149
28.040058
27.446507
26.860613
26.282484
25.712216
25.149898
24.595608
24.049415