/*--------------------------------*- C++ -*----------------------------------*\
| =========                 |                                                 |
| \\      /  F ield         | OpenFOAM: The Open Source CFD Toolbox           |
|  \\    /   O peration     | Version:  2206                                  |
|   \\  /    A nd           | Website:  www.openfoam.com                      |
|    \\/     M anipulation  |                                                 |
\*---------------------------------------------------------------------------*/
FoamFile
{
    version     2.0;
    format      ascii;
    arch        "LSB;label=32;scalar=64";
    class       volScalarField;
    location    "900";
    object      p;
}
// * * * * * * * * * * * * * * * * * * * * * * * * * * * * * * * * * * * * * //

dimensions      [0 2 -2 0 0 0 0];

internalField   nonuniform List<scalar> 
7480
(
0.054529108
0.042278127
0.028159947
0.016355101
0.0057509107
0.00030609164
-0.00094776986
7.1154787e-05
0.0016269429
0.0026599775
0.0031382187
0.0033439961
0.0034379037
0.0034697318
0.0034749046
0.0034829248
0.0034937371
0.0034903646
0.0034767665
0.0034618434
0.0034443808
0.0034201796
0.0033920693
0.0033633992
0.0033328918
0.0032981411
0.0032605635
0.0032217145
0.0031807074
0.0031367383
0.0030909226
0.0030440317
0.002995452
0.0029449927
0.002893514
0.0028416218
0.0027893607
0.0027373904
0.0026869454
0.0026390467
0.0025945369
0.0025549728
0.0025228714
0.0025006664
0.0024923409
0.0025033684
0.0025359817
0.0025896334
0.0026648016
0.0027615345
0.0028780637
0.0030115102
0.0031573814
0.0033093614
0.003465241
0.0036186069
0.0037513717
0.0038507333
0.00390891
0.00392782
0.0039104618
0.0038637851
0.0037963949
0.0037153973
0.0036258772
0.0035317954
0.0034364955
0.0033412546
0.0032469828
0.003154236
0.003063134
0.0029731796
0.0028844065
0.0027967866
0.002709524
0.0026232087
0.0025369212
0.0024485466
0.0023584963
0.0022668868
0.00217453
0.0020810153
0.0019852032
0.0018881443
0.0017889141
0.0016881691
0.0015857344
0.0014816747
0.001376614
0.0012701578
0.0011636028
0.001056631
0.00095108041
0.00084633874
0.00074922544
0.00064632299
0.00059425629
0.00031191727
0.00083880637
-0.00087493933
0.049550952
0.039041665
0.027093721
0.016205899
0.0063513788
0.0011072183
-0.00024068388
0.00054073829
0.0018538253
0.0027838685
0.0032159272
0.0034031843
0.0034887325
0.0035137476
0.0035148185
0.0035208495
0.0035256464
0.0035171625
0.0035006535
0.0034834224
0.0034638258
0.0034376752
0.0034079561
0.0033778981
0.0033461144
0.0033102036
0.0032716226
0.003231876
0.0031900327
0.0031452989
0.0030988013
0.0030512854
0.0030021196
0.0029511184
0.0028991418
0.0028467834
0.0027940802
0.0027416926
0.0026908508
0.0026425687
0.0025976852
0.0025577572
0.002525299
0.0025027386
0.0024942062
0.0025048332
0.0025368676
0.0025902386
0.0026651231
0.0027615701
0.0028778351
0.0030110494
0.0031567256
0.0033085601
0.0034643529
0.0036176843
0.00375047
0.0038499334
0.0039082589
0.0039272925
0.0039101566
0.0038636861
0.0037964381
0.0037155532
0.0036261146
0.0035320879
0.0034368222
0.0033415996
0.0032473348
0.0031545872
0.003063479
0.0029735153
0.0028847309
0.0027970984
0.002709823
0.0026234953
0.0025372015
0.0024488263
0.0023587727
0.0022671571
0.0021747936
0.0020812726
0.0019854549
0.0018883908
0.0017891556
0.0016884057
0.0015859659
0.001481901
0.0013768348
0.0012703731
0.0011638125
0.0010568349
0.00095127864
0.00084653123
0.00074941353
0.00064650322
0.00059450222
0.00031289743
0.00084102084
-0.00087445192
0.045490713
0.037360639
0.026730155
0.016479993
0.0077257241
0.0026358001
0.00093252647
0.0012026878
0.0021902679
0.0029682242
0.0033368936
0.0035040611
0.0035768762
0.0035868456
0.0035788222
0.0035777291
0.0035738767
0.0035580892
0.0035368491
0.0035159603
0.003492792
0.0034632847
0.0034310324
0.0033988486
0.0033650222
0.00332727
0.0032872107
0.0032461933
0.0032031443
0.0031573121
0.0031098802
0.0030615268
0.0030115673
0.0029598399
0.0029072172
0.0028542625
0.0028009956
0.0027480881
0.0026967666
0.002648028
0.0026027025
0.0025623522
0.0025294887
0.002506531
0.0024977582
0.0025081127
0.0025395396
0.0025923901
0.0026669422
0.0027630311
0.0028789463
0.0030118231
0.0031571772
0.0033087244
0.0034643002
0.0036174638
0.0037501058
0.0038495337
0.0039079333
0.0039270395
0.003910138
0.0038638855
0.0037968065
0.0037160631
0.0036267286
0.0035327716
0.0034375474
0.0033423425
0.0032480788
0.0031553203
0.0030641931
0.0029742049
0.0028853933
0.0027977318
0.0027104265
0.0026240697
0.002537747
0.0024493494
0.0023592796
0.0022676463
0.0021752655
0.0020817281
0.0019858955
0.0018888186
0.001789571
0.0016888097
0.0015863587
0.0014822827
0.0013772056
0.0012707329
0.0011641615
0.001057173
0.00095160653
0.00084684825
0.00074972323
0.00064679616
0.00059490251
0.0003144733
0.00084494525
-0.00087384014
0.042769865
0.036059002
0.026375206
0.016779463
0.0090119027
0.0040985029
0.0020144963
0.0018966707
0.0025822677
0.0032057307
0.0035188465
0.0036616156
0.003711292
0.0036916063
0.0036630077
0.0036500223
0.0036355752
0.0036093262
0.0035815091
0.0035563348
0.0035287334
0.0034947062
0.0034592611
0.0034245067
0.0033880616
0.0033478786
0.0033060185
0.0032635397
0.0032190646
0.0031719425
0.0031235031
0.0030742877
0.0030234972
0.0029710275
0.0029177897
0.0028642874
0.0028105103
0.0027571686
0.0027054892
0.002656433
0.0026108124
0.0025702065
0.0025371227
0.0025139683
0.0025051104
0.0025155049
0.0025466476
0.0025989836
0.0026732974
0.00276907
0.0028845963
0.0030170255
0.0031618658
0.0033128635
0.0034679175
0.0036205463
0.0037526474
0.0038515688
0.0039097078
0.0039285685
0.0039116454
0.0038654328
0.0037984023
0.0037177164
0.0036284248
0.0035344886
0.0034392641
0.0033440352
0.0032497312
0.0031569202
0.0030657314
0.0029756755
0.0028867946
0.0027990623
0.0027116853
0.0026252584
0.0025388347
0.0024503382
0.0023602116
0.002268531
0.0021761067
0.0020825283
0.0019866583
0.0018895491
0.0017902715
0.0016894833
0.0015870069
0.001482907
0.0013778073
0.0012713125
0.0011647205
0.0010577115
0.00095212605
0.00084734813
0.00075020938
0.00064725501
0.0005955181
0.00031696723
0.00085137233
-0.00087278861
0.040300798
0.034465424
0.025750484
0.017131746
0.010079749
0.0053049056
0.0030534197
0.0026653698
0.0030585495
0.0035046521
0.0037406995
0.0038328293
0.0038504903
0.0038128943
0.0037733113
0.0037506387
0.0037233335
0.0036814153
0.0036426674
0.0036106734
0.0035766303
0.0035362673
0.0034965854
0.0034587152
0.0034190248
0.0033756476
0.0033314533
0.0032870924
0.0032407108
0.0031918526
0.0031421218
0.0030918389
0.0030400174
0.0029866604
0.0029327526
0.0028786937
0.0028244096
0.0027706866
0.0027187716
0.0026695562
0.0026238157
0.0025831569
0.0025500788
0.0025269562
0.0025182671
0.0025289741
0.0025599846
0.0026119513
0.0026860254
0.0027814122
0.002896415
0.0030281865
0.0031722132
0.003322293
0.0034764636
0.0036282437
0.0037593566
0.0038571832
0.0039146439
0.0039328185
0.0039154803
0.0038690572
0.0038018833
0.0037211104
0.0036317466
0.0035377361
0.0034424306
0.0033471039
0.0032526908
0.0031597619
0.0030684475
0.002978261
0.0028892517
0.0028013907
0.0027138847
0.0026273315
0.0025407427
0.0024520849
0.0023618498
0.0022700739
0.0021775624
0.0020839024
0.0019879576
0.0018907827
0.0017914444
0.001690602
0.0015880752
0.0014839288
0.0013787857
0.0012722496
0.0011656193
0.0010585733
0.00095295381
0.00084814172
0.0007509767
0.00064798172
0.00059646205
0.00032067123
0.00086087405
-0.0008707525
0.03798728
0.032873155
0.025162199
0.017443554
0.010964586
0.0064019523
0.0040525825
0.0034128683
0.003556375
0.0038272555
0.0039752321
0.004015188
0.0040019252
0.0039500401
0.0038971057
0.0038559119
0.0038131819
0.0037614791
0.0037159522
0.0036780559
0.0036364538
0.0035882007
0.0035426091
0.0035005238
0.0034567513
0.0034094755
0.0033625764
0.0033161237
0.0032675671
0.0032166944
0.0031655079
0.0031140304
0.0030610377
0.0030067291
0.0029522357
0.0028978023
0.0028431286
0.0027890693
0.0027369958
0.0026877358
0.002642016
0.0026014826
0.0025686254
0.0025457588
0.0025374132
0.0025484302
0.0025792254
0.0026308602
0.0027044392
0.0027991604
0.0029133724
0.0030442026
0.0031870817
0.0033358708
0.0034888154
0.0036393698
0.003768994
0.0038652823
0.0039218146
0.003939019
0.0039210129
0.0038742888
0.0038068961
0.0037259709
0.003636472
0.0035423277
0.0034468871
0.0033514102
0.0032568384
0.003163743
0.003072252
0.0029818863
0.0028927063
0.0028046747
0.0027169962
0.002630272
0.0025434976
0.0024546661
0.0023642837
0.0022723643
0.0021797193
0.0020859335
0.0019898716
0.0018925928
0.0017931577
0.0016922286
0.0015896213
0.0014854009
0.0013801893
0.0012735881
0.0011668978
0.0010597949
0.00095412291
0.00084925964
0.00075205157
0.00064900398
0.00059777154
0.00032571116
0.00087356239
-0.00086725725
0.035886107
0.03139454
0.024609493
0.017672965
0.011722558
0.0074001983
0.0049887042
0.0041212562
0.0040407407
0.004158172
0.0042210088
0.0042108897
0.0041655768
0.0040956266
0.0040252295
0.0039652763
0.0039087016
0.003848946
0.0037953551
0.0037477823
0.0036977822
0.0036442974
0.0035946146
0.0035486036
0.0035002147
0.003448526
0.0033983435
0.0033491913
0.0032979388
0.0032447018
0.0031919016
0.0031391368
0.0030848521
0.0030295171
0.0029744599
0.0029196982
0.0028646736
0.0028103754
0.0027583184
0.0027092323
0.0026637808
0.00262368
0.002591435
0.0025693859
0.0025611921
0.0025716203
0.0026021897
0.0026537076
0.0027268625
0.0028209095
0.0029341927
0.0030637804
0.0032051486
0.0033523891
0.0035030088
0.0036505982
0.003778051
0.003872894
0.0039288597
0.0039452937
0.0039267798
0.0038799878
0.0038125521
0.0037316015
0.0036420485
0.0035478202
0.003452273
0.0033566555
0.0032619239
0.0031686544
0.0030769738
0.0029864115
0.0028970413
0.0028088162
0.0027209381
0.0026340139
0.0025470307
0.002458006
0.0023674485
0.0022753501
0.0021825346
0.0020885852
0.0019923688
0.0018949511
0.0017953855
0.0016943386
0.0015916214
0.0014872998
0.0013819949
0.0012753053
0.0011685338
0.0010613539
0.00095561102
0.00085067966
0.00075341048
0.00065030049
0.00059942269
0.00033203075
0.00088908966
-0.00086215705
0.033987437
0.030012664
0.024042726
0.017816458
0.01236924
0.0082914139
0.0058515259
0.004798762
0.0045230284
0.0044991086
0.0044769229
0.0044155044
0.0043359912
0.0042445981
0.004156344
0.0040796994
0.0040097581
0.0039405762
0.0038772599
0.0038197354
0.0037625126
0.003704377
0.0036499208
0.0035983342
0.0035451419
0.0034902869
0.0034375305
0.0033856894
0.0033314572
0.0032755745
0.0032209023
0.0031666024
0.0031106094
0.0030537759
0.0029977878
0.0029423409
0.0028866801
0.0028320235
0.0027799724
0.0027311124
0.0026860265
0.0026465296
0.0026151631
0.0025942849
0.0025862908
0.0025958872
0.0026261281
0.0026776064
0.0027504523
0.0028438709
0.002956116
0.0030841598
0.0032237811
0.0033695369
0.0035168751
0.0036600123
0.0037849145
0.0038786847
0.0039345632
0.0039506183
0.0039319543
0.0038854382
0.0038182304
0.0037374702
0.0036480277
0.0035538378
0.0034582708
0.0033625679
0.0032677136
0.0031742952
0.0030824421
0.0029916896
0.0029021258
0.0028136976
0.0027256048
0.0026384626
0.0025512486
0.0024620092
0.0023712571
0.0022789556
0.0021859427
0.0020918004
0.0019953994
0.0018978137
0.0017980888
0.0016968969
0.0015940438
0.0014895967
0.0013841755
0.0012773764
0.0011705044
0.0010632292
0.00095739769
0.00085238223
0.00075503387
0.00065185338
0.00060138243
0.00033950514
0.00090692717
-0.00085560991
0.03226676
0.028721192
0.023468249
0.017895722
0.012919317
0.0090823696
0.0066456014
0.0054478735
0.0050017892
0.0048462724
0.0047404521
0.0046269061
0.0045122887
0.0043978023
0.0042909315
0.0041977632
0.0041139873
0.0040342844
0.0039614141
0.0038949003
0.0038305431
0.0037669447
0.0037069546
0.003649769
0.0035923277
0.0035344011
0.0034785193
0.0034233291
0.0033662612
0.003308378
0.0032520959
0.0031961254
0.0031382036
0.0030796845
0.0030225747
0.0029662411
0.0029097202
0.002854369
0.0028018626
0.0027527563
0.0027075893
0.0026682812
0.0026374159
0.0026172426
0.0026097602
0.0026193064
0.0026491949
0.0027002487
0.0027724824
0.0028650869
0.0029762266
0.0031027817
0.003240795
0.003385141
0.0035296945
0.0036686352
0.0037906224
0.0038832665
0.003938985
0.0039548678
0.0039363442
0.0038903416
0.0038235481
0.0037431691
0.0036540153
0.0035600005
0.0034645192
0.0033688133
0.003273903
0.0031803857
0.0030883962
0.0029974805
0.0029077437
0.0028191238
0.0027308191
0.0026434577
0.0025560044
0.00246654
0.0023755853
0.0022830691
0.0021898446
0.0020954923
0.0019988869
0.0019011135
0.0018012087
0.0016998518
0.0015968428
0.0014922506
0.0013866947
0.0012797684
0.0011727795
0.0010653929
0.00095945732
0.00085434371
0.00075689922
0.0006536421
0.00060360783
0.00034798602
0.00092649129
-0.0008476847
0.030703465
0.027521456
0.022897478
0.017920861
0.01338071
0.0097799568
0.0073730195
0.0060650041
0.0054717497
0.0051958083
0.0050098914
0.004844674
0.00469444
0.0045554857
0.0044293452
0.0043192977
0.0042214917
0.0041306748
0.0040477924
0.0039724134
0.0039006891
0.0038311122
0.0037656777
0.0037033373
0.0036416107
0.0035801153
0.0035208156
0.0034624132
0.0034027537
0.0033428353
0.0032844872
0.0032264383
0.0031667946
0.0031070303
0.0030489203
0.0029915875
0.0029340496
0.0028777985
0.0028246371
0.0027750499
0.0027294751
0.002689922
0.0026590158
0.0026388376
0.002631371
0.0026407724
0.0026702051
0.0027205684
0.0027919557
0.0028835984
0.0029936388
0.0031189112
0.0032555043
0.0033983766
0.0035410498
0.0036772501
0.0037967361
0.0038873517
0.0039419368
0.0039577653
0.0039395912
0.0038942154
0.0038280085
0.0037482398
0.0036595731
0.0035658588
0.0034705839
0.0033749949
0.0032801199
0.0031865742
0.0030945112
0.003003489
0.0029136266
0.00282485
0.0027363582
0.0026487958
0.0025611125
0.0024714298
0.0023802794
0.0022875509
0.0021941151
0.0020995495
0.0020027331
0.0019047641
0.0018046693
0.0017031367
0.0015999597
0.0014952102
0.0013895071
0.0012824406
0.0011753225
0.0010678122
0.00096176011
0.00085653694
0.00075898112
0.00065564346
0.0006060503
0.00035732774
0.00094721136
-0.00083831398
0.029280113
0.02641118
0.022335346
0.0178967
0.01376067
0.010391054
0.0080352221
0.0066474029
0.0059298294
0.0055455955
0.0052840288
0.0050680667
0.0048819221
0.0047174329
0.0045713976
0.0044442093
0.004332067
0.0042297155
0.0041366848
0.0040522985
0.0039731096
0.003897302
0.0038260499
0.0037585097
0.0036924425
0.0036271388
0.0035644364
0.003503013
0.0034406981
0.0033784288
0.0033178879
0.0032579375
0.0031967349
0.0031356809
0.0030762297
0.0030176852
0.0029592281
0.0029022356
0.0028485097
0.0027984047
0.0027523156
0.0027123261
0.0026811178
0.0026605836
0.0026526294
0.0026614151
0.0026900824
0.0027394429
0.0028096043
0.0028998978
0.0030085033
0.0031322446
0.0032672288
0.0034085112
0.0035496651
0.0036842979
0.0038022283
0.0038909712
0.0039445797
0.0039603646
0.0039418192
0.0038966331
0.0038312318
0.0037523032
0.003664246
0.003570966
0.0034760745
0.003380757
0.0032860052
0.003192514
0.0031004763
0.0030094268
0.0029194987
0.0028306172
0.0027419817
0.0026542534
0.0025663673
0.0024764926
0.0023851706
0.0022922475
0.0021986167
0.00210385
0.0020068299
0.0019086707
0.0018083878
0.0017066794
0.0016033318
0.0014984206
0.0013925645
0.0012853508
0.001178096
0.0010704535
0.00096427593
0.00085893468
0.00076125432
0.00065783453
0.00060865993
0.00036739631
0.00096855318
-0.00082736694
0.027981471
0.025385471
0.021785583
0.017829654
0.01406773
0.010922902
0.0086345283
0.0071936263
0.0063736208
0.005893361
0.0055611107
0.0052958504
0.0050739396
0.0048832724
0.0047168608
0.0045723594
0.0044456405
0.0043314265
0.0042280951
0.0041345586
0.0040476872
0.0039654195
0.0038882434
0.0038154164
0.0037448923
0.0036757968
0.0036094363
0.0035447402
0.0034798103
0.0034151073
0.0033523631
0.0032905814
0.0032277697
0.0031652294
0.003104374
0.0030447684
0.0029854846
0.0029277228
0.002873249
0.0028225294
0.0027759907
0.0027355823
0.0027040161
0.0026830398
0.002674494
0.0026824784
0.0027101332
0.0027581964
0.0028267502
0.0029152593
0.003021965
0.0031436974
0.0032766204
0.0034159507
0.0035553518
0.0036883078
0.0038047491
0.0038926178
0.0039461846
0.0039621587
0.0039435632
0.0038987357
0.0038341034
0.0037554402
0.0036676715
0.0035750332
0.0034807279
0.0033857586
0.0032912203
0.0031979156
0.0031060288
0.0030150195
0.002925087
0.002836173
0.002747447
0.0026595992
0.0025715582
0.0024815376
0.002390084
0.0022970009
0.0022032087
0.0021082681
0.0020110658
0.0019127355
0.0018122785
0.0017104051
0.0016068942
0.0015018254
0.0013958178
0.001288456
0.0011810621
0.0010732835
0.00096697501
0.0008615102
0.00076369421
0.00066019311
0.000611387
0.00037806679
0.00099000721
-0.00081468091
0.026794179
0.024438528
0.021251532
0.017726489
0.014309717
0.011382
0.0091734867
0.0077026369
0.0068006871
0.0062366588
0.0058392799
0.0055268056
0.0052697528
0.0050526564
0.0048655418
0.0047036034
0.0045621316
0.0044357688
0.0043219626
0.0042191515
0.0041244034
0.0040354854
0.003952298
0.0038740802
0.0037989582
0.00372594
0.0036558284
0.0035877942
0.0035201587
0.0034530969
0.0033880201
0.0033241338
0.0032597086
0.0031956923
0.0031334336
0.0030727579
0.0030126124
0.0029539912
0.002898744
0.0028475048
0.0028005592
0.0027596836
0.0027276656
0.0027062238
0.0026971176
0.0027042851
0.0027308468
0.0027774684
0.0028442223
0.0029306984
0.0030351966
0.0031545446
0.0032849775
0.0034219014
0.0035590853
0.0036899284
0.0038045963
0.0038916031
0.0039449991
0.0039614356
0.0039438091
0.0039001747
0.0038363879
0.0037580293
0.003670815
0.0035788829
0.0034846806
0.0033897118
0.0032955486
0.0032025965
0.0031108948
0.0030199755
0.0029301438
0.0028412953
0.0027525261
0.0026646209
0.0025764989
0.0024863858
0.0023948509
0.0023016594
0.0022077531
0.0021126762
0.0020153264
0.0019168575
0.0018162517
0.001714235
0.0016105776
0.001505364
0.0013992143
0.0012917102
0.0011841807
0.0010762669
0.00096982617
0.00086423575
0.00076627548
0.00066269666
0.00061418167
0.00038921625
0.0010110554
-0.00080007731
0.025706473
0.023564228
0.020735604
0.017593372
0.014493649
0.011774421
0.0096549735
0.0081739059
0.0072089008
0.0065732582
0.0061168103
0.0057597507
0.0054685865
0.0052251503
0.0050171737
0.0048377413
0.00468141
0.0045426751
0.0044182403
0.0043060508
0.0042032637
0.0041075162
0.004018208
0.0039344951
0.0038546444
0.0037775658
0.003703655
0.0036322241
0.0035617766
0.0034922737
0.0034247932
0.0033587498
0.0032926656
0.0032271894
0.0031635171
0.0031015754
0.0030404752
0.0029810514
0.0029250292
0.0028732399
0.0028258606
0.0027844743
0.0027520146
0.0027301511
0.0027204683
0.0027267635
0.0027521558
0.0027972953
0.0028622386
0.002946624
0.0030487885
0.0031655639
0.003293266
0.0034274804
0.003562085
0.0036904244
0.0038029329
0.0038887208
0.0039416255
0.0039584088
0.0039418227
0.0038995053
0.003836846
0.003759611
0.0036735314
0.0035823196
0.0034881965
0.0033934449
0.0032997376
0.0032067089
0.0031148391
0.0030241268
0.0029345259
0.002845761
0.0027570068
0.0026691548
0.0025810354
0.0024908725
0.0023993238
0.0023060907
0.0022121166
0.0021169494
0.0020194991
0.0019209326
0.0018202118
0.0017180835
0.0016143056
0.0015089687
0.0014026945
0.0012950615
0.0011874066
0.0010793642
0.00097279476
0.00086708083
0.00076897065
0.00066532095
0.00061699357
0.00040071675
0.0010311276
-0.00078338209
0.024707961
0.022756432
0.020239273
0.017435882
0.01462613
0.012106028
0.01008214
0.0086074027
0.0075965011
0.0069011214
0.0063920185
0.0059934518
0.0056695835
0.0054002309
0.0051714322
0.0049745406
0.0048033207
0.0046520613
0.0045168723
0.0043952168
0.0042842526
0.0041815112
0.004085973
0.0039966707
0.0039119721
0.003830708
0.0037529363
0.0036780353
0.0036046704
0.0035326302
0.0034627127
0.0033944822
0.003326665
0.0032596716
0.0031945431
0.0031312895
0.0030692028
0.0030089809
0.002952191
0.0028997089
0.0028518145
0.0028099478
0.0027770324
0.0027547619
0.0027444587
0.0027498144
0.0027740267
0.0028177001
0.0028808231
0.0029630611
0.0030627978
0.0031769254
0.0033018345
0.0034332341
0.0035650892
0.0036907113
0.0038007957
0.0038850501
0.0039371342
0.0039539947
0.0039384036
0.0038971671
0.003835657
0.0037596624
0.0036746909
0.0035843386
0.0034909307
0.0033969002
0.0033036285
0.0032104588
0.0031186105
0.0030281558
0.0029383803
0.002849407
0.0027607977
0.0026730982
0.0025849867
0.0024948399
0.0024033869
0.0023101724
0.002216168
0.0021209769
0.0020234793
0.0019248549
0.0018240605
0.0017218606
0.0016179939
0.0015125636
0.0014061914
0.0012984504
0.0011906876
0.0010825297
0.00097584088
0.00087001043
0.00077174845
0.00066803878
0.00061977166
0.00041243019
0.0010495556
-0.00076444363
0.023789438
0.022009202
0.019763262
0.017259019
0.014713366
0.012382391
0.010458244
0.0090034973
0.0079620668
0.0072183808
0.0066632651
0.0062266551
0.0058718461
0.0055773215
0.0053279512
0.0051137405
0.0049276825
0.0047638184
0.0046177838
0.004486594
0.0043673405
0.0042574617
0.004155591
0.0040606125
0.0039709556
0.003885388
0.0038036858
0.0037252438
0.0036488645
0.0035742014
0.0035018078
0.0034313431
0.0033617123
0.0032931417
0.0032265237
0.0031619374
0.0030988219
0.0030377578
0.0029801704
0.0029269596
0.0028785175
0.0028362145
0.0028027224
0.002779933
0.0027690696
0.0027734892
0.0027964904
0.0028386561
0.0028999074
0.0029799426
0.0030772134
0.003188674
0.0033107603
0.0034392725
0.0035682648
0.003691086
0.0037986682
0.0038812598
0.0039323746
0.0039491637
0.0039343082
0.003893917
0.0038333995
0.0037585066
0.0036745706
0.003585139
0.0034925499
0.00339918
0.0033063875
0.0032135836
0.0031221977
0.0030319594
0.0029419522
0.0028529591
0.0027644576
0.0026765123
0.002588228
0.0024982374
0.0024069292
0.0023137414
0.0022197867
0.0021246679
0.0020271641
0.0019285217
0.0018277068
0.0017254747
0.0016215552
0.0015160694
0.001409632
0.0013018105
0.0011939642
0.0010857105
0.00097891787
0.00087298333
0.00077457232
0.00067081857
0.00062246449
0.00042420495
0.0010655377
-0.00074315025
0.022942741
0.021316936
0.019307712
0.017067152
0.014761112
0.012608771
0.01078659
0.0093629209
0.008304531
0.0075233728
0.0069289945
0.0064581201
0.0060744531
0.0057557963
0.0054863167
0.0052550436
0.0050542824
0.004877809
0.0047208804
0.0045801128
0.0044524859
0.0043353503
0.004227053
0.0041263178
0.0040316019
0.0039416207
0.0038559167
0.0037738671
0.0036943829
0.0036170134
0.0035420968
0.003469349
0.0033978313
0.0033276281
0.0032594873
0.0031935362
0.0031293399
0.0030673871
0.0030089728
0.0029550144
0.0029059939
0.0028632169
0.0028291567
0.0028057346
0.0027942575
0.0027978027
0.0028195296
0.0028601135
0.002919456
0.0029972556
0.0030920031
0.0032007578
0.0033200078
0.0034455772
0.0035716472
0.0036916437
0.0037966943
0.003877556
0.0039276293
0.003944263
0.0039300351
0.0038903917
0.0038307695
0.0037567579
0.0036737228
0.0035851116
0.0034932669
0.0034004846
0.003308204
0.0032158447
0.0031248486
0.0030348519
0.0029450565
0.0028563956
0.00276792
0.0026797122
0.0025914518
0.0025014568
0.0024098957
0.0023167056
0.0022229424
0.0021278935
0.0020304167
0.001931838
0.0018310634
0.0017288322
0.0016249104
0.0015194112
0.0014129425
0.0013050718
0.001197172
0.0010888468
0.000981972
0.00087595122
0.00077739934
0.00067362305
0.00062502088
0.00043587456
0.0010781394
-0.00071944876
0.022160613
0.020674434
0.018872332
0.01686402
0.014774656
0.01279013
0.011070494
0.0096867131
0.0086231711
0.007814653
0.007187751
0.0066866309
0.0062764644
0.0059349841
0.0056460675
0.0053981168
0.0051828776
0.0049938691
0.0048260483
0.0046756892
0.0045396346
0.0044151481
0.0043003416
0.0041937778
0.004093913
0.0039994175
0.0039096409
0.0038239194
0.003741245
0.0036610872
0.0035835978
0.0035085198
0.0034350468
0.0033631546
0.0032934538
0.0032261028
0.003160776
0.0030978913
0.0030386216
0.0029838892
0.0029342506
0.0028909552
0.0028563029
0.0028322122
0.0028200741
0.0028227196
0.0028431257
0.0028820725
0.0029394748
0.0030150008
0.0031071855
0.0032131953
0.0033295573
0.0034521268
0.0035752175
0.0036923442
0.0037948473
0.0038739397
0.0039229523
0.0039394058
0.0039257676
0.0038868306
0.0038280457
0.0037548717
0.0036727112
0.0035847355
0.0034935236
0.0034012371
0.0033093829
0.003217377
0.0031267119
0.0030369877
0.0029474583
0.0028590303
0.0027706548
0.0026826007
0.0025945878
0.0025044693
0.0024127196
0.0023196895
0.0022258435
0.0021305239
0.002033166
0.0019347341
0.0018340014
0.001731836
0.0016279913
0.0015225151
0.0014160512
0.0013081686
0.0012002453
0.0010918767
0.00098494451
0.00087886018
0.00078018073
0.00067640909
0.00062739127
0.000447259
0.0010863675
-0.00069336122
0.021436597
0.020076928
0.018456524
0.016652766
0.014758809
0.012931138
0.011313246
0.0099761606
0.0089175857
0.0080910051
0.0074381938
0.0069110107
0.0064769342
0.0061141799
0.0058067015
0.005542593
0.0053131962
0.0051118073
0.0049331523
0.0047732234
0.0046287181
0.004496814
0.0043754307
0.0042629765
0.0041578849
0.0040587846
0.0039648665
0.0038754113
0.0037894672
0.0037064425
0.003626329
0.0035488745
0.0034733808
0.003399742
0.0033284421
0.0032596559
0.0031931511
0.0031292907
0.0030691343
0.0030135983
0.0029633017
0.0029194462
0.0028841723
0.0028593855
0.0028465352
0.0028482357
0.002867288
0.0029045616
0.0029599862
0.0030331962
0.0031227731
0.0032259825
0.0033393964
0.0034589126
0.003578976
0.0036932041
0.0037931586
0.0038703811
0.0039183334
0.0039345945
0.0039214789
0.0038832372
0.0038252615
0.0037530215
0.0036717276
0.0035843412
0.0034936114
0.0034018514
0.0033103604
0.0032185484
0.0031281058
0.0030385832
0.0029492508
0.0028610024
0.0027727637
0.0026848829
0.0025969898
0.0025069208
0.0024153931
0.002322592
0.0022285448
0.0021331065
0.0020358372
0.0019372458
0.0018364478
0.0017344651
0.0016306925
0.0015252769
0.0014188831
0.0013110337
0.0012031178
0.0010947409
0.00098777581
0.00088165621
0.00078286487
0.00067912966
0.00062953019
0.00045817003
0.0010893583
-0.00066499482
0.020764943
0.019520078
0.018059488
0.016435999
0.014717903
0.013036162
0.011518076
0.010232744
0.0091876698
0.008351447
0.0076791131
0.0071301375
0.0066749245
0.0062926553
0.005967681
0.0056880722
0.0054449369
0.0052314053
0.005042035
0.0048725979
0.0047196528
0.0045802941
0.0044522846
0.0043338906
0.0042235068
0.0041197223
0.0040215976
0.0039283502
0.0038390632
0.0037530968
0.0036703072
0.00359043
0.0035128531
0.0034374105
0.0033644714
0.0032942144
0.0032264849
0.003161604
0.0031005272
0.0030441571
0.0029931629
0.0029487051
0.0029127786
0.0028872624
0.0028736478
0.0028743595
0.0028920281
0.0029275902
0.0029809938
0.0030518447
0.0031387686
0.0032391256
0.0033495393
0.003465954
0.003582942
0.0036942326
0.0037916161
0.0038669031
0.0039137719
0.0039298122
0.0039171843
0.0038796277
0.0038224542
0.0037511466
0.0036706685
0.0035840676
0.003493679
0.0034025087
0.0033113217
0.0032196606
0.0031293724
0.0030399396
0.0029506968
0.0028625476
0.002774388
0.0026866233
0.0025988122
0.0025088515
0.0024175174
0.002324835
0.0022308633
0.0021356583
0.0020384027
0.0019396494
0.0018389414
0.0017369116
0.0016329115
0.0015276437
0.0014213641
0.0013135652
0.0012057155
0.0010973778
0.00099040677
0.00088429094
0.00078540147
0.00068173834
0.00063140236
0.00046842031
0.0010865855
-0.00063453879
0.020140531
0.018999962
0.017680304
0.016215851
0.014655799
0.013109261
0.011688128
0.01045809
0.0094335843
0.0085952305
0.007909442
0.0073429581
0.006869517
0.0064696686
0.0061284389
0.0058341239
0.0055777706
0.0053524177
0.0051525162
0.0049736774
0.0048123398
0.0046655209
0.004530857
0.0044064881
0.0042907605
0.0041822246
0.0040798337
0.0039827398
0.0038900429
0.0038010647
0.0037155471
0.0036332017
0.0035534824
0.0034761795
0.0034015602
0.0033297959
0.0032607959
0.003194849
0.0031328169
0.0030755809
0.0030238493
0.0029787456
0.0029421331
0.0029158522
0.0029014223
0.0029011017
0.0029173544
0.0029511642
0.0030025029
0.0030709528
0.0031551793
0.0032526337
0.0033599961
0.0034732601
0.0035871229
0.0036954416
0.003790182
0.0038635426
0.0039092887
0.003925066
0.0039128777
0.0038759891
0.0038196316
0.0037492544
0.0036695816
0.0035837735
0.0034938037
0.0034031654
0.0033122762
0.0032208416
0.0031306801
0.003041278
0.0029520865
0.0028639554
0.0027757666
0.0026880265
0.0026002338
0.0025103367
0.002419145
0.0023265697
0.0022327396
0.0021376797
0.002040484
0.0019418817
0.0018413936
0.0017392083
0.0016351276
0.0015299368
0.0014234977
0.0013157086
0.0012079978
0.0010996927
0.00099277191
0.00088670946
0.00078773824
0.00068419039
0.00063299117
0.0004778373
0.0010779542
-0.0006022635
0.019558793
0.01851305
0.017317994
0.015994049
0.014575902
0.013154181
0.011826434
0.010653932
0.0096557231
0.008821834
0.0081282663
0.0075485005
0.0070598254
0.0066444754
0.0062883858
0.0059802903
0.0057113415
0.0054745736
0.0052643925
0.0050763077
0.0049066638
0.0047524125
0.0046110901
0.0044807279
0.0043596199
0.0042462786
0.0041395694
0.0040385799
0.0039424129
0.0038503579
0.0037620611
0.0036772029
0.0035952855
0.0035160671
0.0034397255
0.0033664171
0.0032961015
0.0032290431
0.0031660193
0.0031078844
0.0030553751
0.0030095813
0.0029722469
0.0029451646
0.0029298689
0.0029284709
0.0029432732
0.0029752901
0.0030245207
0.0030905279
0.0031720131
0.0032665151
0.0033707751
0.0034808391
0.0035915287
0.0036968419
0.0037888715
0.0038603101
0.0039048917
0.0039203682
0.0039085592
0.0038723156
0.0038167813
0.0037473341
0.0036684874
0.0035833821
0.0034940399
0.003403832
0.0033132338
0.0032220507
0.0031320162
0.0030426927
0.0029535687
0.0028653965
0.0027771246
0.002689352
0.0026014844
0.0025115572
0.0024204324
0.0023279211
0.0022342022
0.0021392454
0.0020421422
0.0019436876
0.0018433114
0.0017411956
0.0016373415
0.0015321459
0.0014255902
0.0013178584
0.0012100583
0.0011016376
0.00099485694
0.00088881884
0.00078980293
0.00068642704
0.00063428103
0.00048628445
0.0010637614
-0.00056854659
0.019015659
0.018056177
0.016971562
0.015771971
0.014481197
0.013174352
0.0119359
0.010822072
0.0098546795
0.0090309517
0.0083348295
0.0077458848
0.0072450066
0.0068163394
0.0064469179
0.0061260909
0.0058452698
0.0055975774
0.0053774376
0.0051803152
0.0050024929
0.0048408722
0.0046929138
0.0045565593
0.0044300506
0.0043118642
0.0042007933
0.0040958654
0.003996175
0.0039009843
0.0038098592
0.003722445
0.0036382769
0.0035570896
0.0034789836
0.0034040938
0.0033324183
0.003264203
0.0032001499
0.0031410818
0.003087754
0.0030412252
0.0030031309
0.0029752091
0.0029589971
0.0029564749
0.002969791
0.002999975
0.0030470542
0.0031105768
0.0031892768