/*--------------------------------*- C++ -*----------------------------------*\
| =========                 |                                                 |
| \\      /  F ield         | OpenFOAM: The Open Source CFD Toolbox           |
|  \\    /   O peration     | Version:  2206                                  |
|   \\  /    A nd           | Website:  www.openfoam.com                      |
|    \\/     M anipulation  |                                                 |
\*---------------------------------------------------------------------------*/
FoamFile
{
    version     2.0;
    format      ascii;
    arch        "LSB;label=32;scalar=64";
    class       surfaceScalarField;
    location    "900";
    object      phi;
}
// * * * * * * * * * * * * * * * * * * * * * * * * * * * * * * * * * * * * * //

dimensions      [0 3 -1 0 0 0 0];

oriented        oriented;

internalField   nonuniform List<scalar> 
14782
(
0.00061767826
8.7780027e-05
-0.00070545829
0.00051028436
0.00010739391
0.00040011216
0.0001101722
0.00030664779
9.3464368e-05
0.00023997502
6.6672768e-05
0.00019923601
4.0739006e-05
0.00017531939
2.3916628e-05
0.00016114994
1.4169448e-05
0.00015174027
9.4096661e-06
0.00014417194
7.5683311e-06
0.00013730138
6.8705628e-06
0.00013093933
6.3620479e-06
0.00012513123
5.8081021e-06
0.00011983934
5.2918829e-06
0.0001150012
4.8381495e-06
0.00011059532
4.4058728e-06
0.00010658989
4.0054318e-06
0.00010290054
3.6893507e-06
9.947359e-05
3.42695e-06
9.6290333e-05
3.1832572e-06
9.3328997e-05
2.9613355e-06
9.0554855e-05
2.774142e-06
8.7946606e-05
2.6082489e-06
8.5494857e-05
2.451749e-06
8.3186781e-05
2.3080762e-06
8.1003769e-05
2.1830118e-06
7.893484e-05
2.0689288e-06
7.697522e-05
1.9596202e-06
7.5117585e-05
1.8576353e-06
7.335247e-05
1.765115e-06
7.1674739e-05
1.6777312e-06
7.0082037e-05
1.5927012e-06
6.8570175e-05
1.5118624e-06
6.7134447e-05
1.435728e-06
6.5772648e-05
1.3617993e-06
6.4483871e-05
1.2887764e-06
6.3266397e-05
1.2174744e-06
6.2119214e-05
1.1471826e-06
6.1043244e-05
1.0759697e-06
6.0040229e-05
1.0030155e-06
5.9111381e-05
9.2884824e-07
5.8258378e-05
8.5300282e-07
5.7484451e-05
7.7392697e-07
5.6792571e-05
6.9187977e-07
5.6186273e-05
6.0629796e-07
5.5676774e-05
5.0949842e-07
5.5274484e-05
4.0229071e-07
5.4981048e-05
2.9343596e-07
5.4796205e-05
1.848431e-07
5.4718917e-05
7.7287575e-08
5.4745131e-05
-2.6214081e-08
5.4868006e-05
-1.2287447e-07
5.5075341e-05
-2.0733541e-07
5.534731e-05
-2.7196889e-07
5.5670766e-05
-3.2345602e-07
5.6032929e-05
-3.62163e-07
5.6400382e-05
-3.6745348e-07
5.6735228e-05
-3.3484588e-07
5.7004187e-05
-2.6895848e-07
5.7191484e-05
-1.8729672e-07
5.7291916e-05
-1.0043285e-07
5.7310057e-05
-1.8140772e-08
5.7256135e-05
5.3922009e-08
5.7143447e-05
1.1268782e-07
5.6985433e-05
1.5801391e-07
5.6794012e-05
1.9142166e-07
5.6579925e-05
2.1408691e-07
5.635098e-05
2.2894486e-07
5.611302e-05
2.3795984e-07
5.5870504e-05
2.4251596e-07
5.5626668e-05
2.438363e-07
5.5383208e-05
2.4346004e-07
5.5141647e-05
2.4156046e-07
5.490325e-05
2.3839766e-07
5.4667914e-05
2.3533568e-07
5.443625e-05
2.3166456e-07
5.420495e-05
2.3129914e-07
5.3969564e-05
2.3538656e-07
5.3731384e-05
2.3817991e-07
5.3491739e-05
2.3964493e-07
5.3251532e-05
2.402066e-07
5.3010659e-05
2.4087367e-07
5.2767872e-05
2.4278667e-07
5.2523355e-05
2.4451727e-07
5.2276504e-05
2.4685051e-07
5.2027582e-05
2.4892216e-07
5.1776663e-05
2.509194e-07
5.1523856e-05
2.5280687e-07
5.1269681e-05
2.5417464e-07
5.1013999e-05
2.5568217e-07
5.0757389e-05
2.566097e-07
5.0499706e-05
2.5768306e-07
5.0241113e-05
2.5859363e-07
4.9981303e-05
2.5980925e-07
4.9719452e-05
2.6185146e-07
4.9455521e-05
2.6393136e-07
4.921017e-05
2.4535087e-07
4.8807237e-05
4.0293236e-07
4.8816458e-05
-9.2207429e-09
8.4020116e-07
0.00079173892
9.1057878e-05
-0.00079501677
0.00077876055
0.00012037227
0.00075191947
0.00013701328
0.00070876707
0.00013661677
0.0006552277
0.00012021214
0.00060113693
9.482977e-05
0.00055304141
7.2012146e-05
0.00051310878
5.4102081e-05
0.00048024644
4.2272003e-05
0.00045274828
3.5066492e-05
0.00042911843
3.0500419e-05
0.00040845534
2.7025137e-05
0.00039014536
2.4118081e-05
0.00037370295
2.173429e-05
0.00035878694
1.9754161e-05
0.00034519288
1.7999939e-05
0.00033274632
1.645199e-05
0.00032127156
1.5164111e-05
0.00031063414
1.4064369e-05
0.00030074331
1.3074083e-05
0.00029152112
1.2183528e-05
0.00028288589
1.1409366e-05
0.00027477532
1.0718819e-05
0.00026714355
1.008352e-05
0.00025994709
9.5045426e-06
0.00025314223
8.9878634e-06
0.0002466962
8.5149609e-06
0.00024058634
8.0694871e-06
0.00023479016
7.6538076e-06
0.00022928441
7.270869e-06
0.00022405224
6.9099037e-06
0.00021908225
6.5626901e-06
0.00021436269
6.2314228e-06
0.00020988209
5.9163302e-06
0.00020563303
5.610854e-06
0.00020161133
5.3104747e-06
0.0001978133
5.0155073e-06
0.00019423727
4.7232132e-06
0.00019088545
4.4277861e-06
0.00018776278
4.1256857e-06
0.00018487478
3.8168468e-06
0.00018222867
3.4991177e-06
0.00017983479
3.1678042e-06
0.00017770554
2.8211248e-06
0.00017585048
2.4613591e-06
0.00017430386
2.0561175e-06
0.00017308592
1.6202303e-06
0.00017219891
1.1804499e-06
0.00017164551
7.3824305e-07
0.00017141816
3.0464251e-07
0.00017150109
-1.0914947e-07
0.00017187012
-4.9190491e-07
0.0001724864
-8.2360999e-07
0.00017329488
-1.0804556e-06
0.00017424748
-1.2760495e-06
0.0001752894
-1.4040908e-06
0.00017632677
-1.4048217e-06
0.00017725513
-1.2632081e-06
0.00017799061
-1.0044363e-06
0.00017848588
-6.8256518e-07
0.00017873093
-3.4548124e-07
0.00017874138
-2.85943e-08
0.00017854378
2.5152275e-07
0.00017817568
4.8079028e-07
0.00017767572
6.5797196e-07
0.00017707842
7.8872241e-07
0.00017641386
8.7864397e-07
0.00017570501
9.3779907e-07
0.0001749692
9.7377151e-07
0.00017421952
9.9219573e-07
0.00017346537
9.979867e-07
0.00017271239
9.9643699e-07
0.00017196521
9.887373e-07
0.00017122729
9.7631998e-07
0.0001704992
9.6342487e-07
0.00016978169
9.4918128e-07
0.00016906382
9.4916916e-07
0.00016833382
9.653835e-07
0.00016759595
9.7605254e-07
0.00016685443
9.8115756e-07
0.00016611107
9.8357372e-07
0.00016536511
9.8683365e-07
0.0001646139
9.9398997e-07
0.00016385712
1.001306e-06
0.00016309354
1.0104265e-06
0.00016232362
1.0188376e-06
0.00016154769
1.026857e-06
0.00016076629
1.0342059e-06
0.00015998062
1.0398392e-06
0.00015919092
1.0453885e-06
0.00015839841
1.0491198e-06
0.00015760334
1.0527524e-06
0.00015680574
1.0561922e-06
0.00015600636
1.059189e-06
0.00015519914
1.0690698e-06
0.00015439721
1.0658601e-06
0.00015358759
1.054975e-06
0.00015257163
1.4188924e-06
0.00015201628
5.4612374e-07
2.5258026e-06
0.00083153711
8.6587597e-05
-0.00082706683
0.00083705409
0.00011485529
0.00084158268
0.00013248469
0.00084048709
0.00013771236
0.00083137027
0.00012932896
0.00081408325
0.00011211679
0.00079123652
9.4858873e-05
0.00076524415
8.0094453e-05
0.00073800467
6.951148e-05
0.00071102848
6.2042687e-05
0.00068515551
5.6373391e-05
0.0006606828
5.1497844e-05
0.0006376181
4.7182775e-05
0.00061585896
4.3493439e-05
0.00059534106
4.0272053e-05
0.0005760343
3.7306702e-05
0.00055787932
3.4606973e-05
0.0005407823
3.2261133e-05
0.00052465948
3.0187181e-05
0.00050944552
2.828805e-05
0.00049507497
2.6554073e-05
0.00048147407
2.5010268e-05
0.00046858255
2.3610341e-05
0.00045635299
2.2313079e-05
0.00044473922
2.1118316e-05
0.00043369276
2.0034319e-05
0.00042317467
1.903305e-05
0.00041315512
1.8089038e-05
0.00040360536
1.7203569e-05
0.00039449722
1.637901e-05
0.00038580924
1.559788e-05
0.00037752564
1.4846291e-05
0.00036963142
1.4125643e-05
0.00036211302
1.3434726e-05
0.00035496164
1.276224e-05
0.00034817265
1.2099462e-05
0.00034174334
1.1444821e-05
0.00033567401
1.0792542e-05
0.00032996965
1.0132147e-05
0.00032463907
9.4562594e-06
0.00031969311
8.7628088e-06
0.00031514561
8.0466118e-06
0.00031101452
7.2988935e-06
0.00030732033
6.5153205e-06
0.00030408602
5.6956641e-06
0.00030134904
4.7930981e-06
0.00029913444
3.8348302e-06
0.00029744595
2.8689476e-06
0.00029627806
1.9061274e-06
0.00029561376
9.6894787e-07
0.0002954228
8.1804235e-08
0.00029566227
-7.3137359e-07
0.00029627056
-1.4318967e-06
0.00029716688
-1.9767802e-06
0.00029827308
-2.3822496e-06
0.0002994942
-2.6252098e-06
0.00030069193
-2.6025472e-06
0.00030172344
-2.2947258e-06
0.00030247895
-1.7599391e-06
0.00030289992
-1.1035384e-06
0.0003029766
-4.2215998e-07
0.000302729
2.1900059e-07
0.00030219509
7.854333e-07
0.00030142773
1.2481569e-06
0.00030047992
1.6057828e-06
0.00029939922
1.8694174e-06
0.00029822694
2.050922e-06
0.00029699549
2.1692578e-06
0.00029572969
2.2395715e-06
0.00029444834
2.2735389e-06
0.00029316493
2.2813998e-06
0.00029188806
2.2733085e-06
0.00029062463
2.2521694e-06
0.00028937954
2.2214069e-06
0.00028815406
2.1889036e-06
0.00028694833
2.1549066e-06
0.00028574509
2.152419e-06
0.00028452939
2.1810806e-06
0.00028330891
2.196534e-06
0.00028208822
2.2018431e-06
0.00028086799
2.2038042e-06
0.0002796463
2.2085219e-06
0.00027841948
2.2208149e-06
0.00027718616
2.2346217e-06
0.00027594462
2.2519695e-06
0.00027469501
2.2684474e-06
0.00027343763
2.2842387e-06
0.00027217322
2.298617e-06
0.00027090321
2.3098412e-06
0.00026962818
2.3204264e-06
0.00026834954
2.3277538e-06
0.00026706802
2.3342768e-06
0.00026578335
2.3408613e-06
0.00026449741
2.3451283e-06
0.00026319943
2.3670534e-06
0.00026191489
2.3504003e-06
0.0002605856
2.3842586e-06
0.00025910082
2.9036778e-06
0.0002578289
1.8180458e-06
4.6052975e-06
0.00086132607
8.2258868e-05
-0.00085699734
0.00086786192
0.00010831944
0.00087515231
0.0001251943
0.00088217825
0.00013068642
0.00088608583
0.00012542138
0.00088507184
0.00011313078
0.00088098612
9.8944597e-05
0.00087426153
8.681904e-05
0.000865175
7.8598011e-05
0.00085397063
7.3247055e-05
0.00084097845
6.9365572e-05
0.00082639932
6.6076979e-05
0.00081059795
6.2984142e-05
0.00079416396
5.9927425e-05
0.00077743713
5.6998882e-05
0.00076064241
5.410143e-05
0.00074391825
5.1331128e-05
0.0007273527
4.8826684e-05
0.00071103095
4.6508936e-05
0.0006950317
4.4287298e-05
0.00067941008
4.2175694e-05
0.00066419306
4.0227286e-05
0.00064940227
3.8401128e-05
0.00063505603
3.665932e-05
0.00062116318
3.5011168e-05
0.00060772035
3.3477146e-05
0.00059472443
3.2028974e-05
0.00058217332
3.0640148e-05
0.00057006062
2.931627e-05
0.00055837676
2.8062867e-05
0.00054711533
2.6859306e-05
0.0005362725
2.5689121e-05
0.00052584354
2.4554604e-05
0.00051582428
2.3453983e-05
0.00050621465
2.2371875e-05
0.00049701854
2.1295569e-05
0.00048824092
2.0222447e-05
0.00047988814
1.9145322e-05
0.00047197025
1.8050031e-05
0.00046450098
1.6925533e-05
0.00045749644
1.576735e-05
0.00045097616
1.4566892e-05
0.00044496348
1.3311564e-05
0.00043948474
1.1994068e-05
0.00043457148
1.0608923e-05
0.00043025294
9.1116318e-06
0.00042654267
7.5451031e-06
0.00042343796
5.9736568e-06
0.00042092457
4.4195192e-06
0.0004189797
2.9138231e-06
0.00041756949
1.4920063e-06
0.00041664463
1.9349459e-07
0.00041613451
-9.2178231e-07
0.00041595583
-1.7980981e-06
0.00041602239
-2.4488072e-06
0.00041621654
-2.8193609e-06
0.00041638615
-2.7721642e-06
0.00041639694
-2.3055134e-06
0.00041615866
-1.5216561e-06
0.00041562772
-5.7259524e-07
0.00041480006
4.0550033e-07
0.00041369612
1.3229391e-06
0.00041235163
2.1299184e-06
0.00041081234
2.7874493e-06
0.00040912382
3.2943038e-06
0.00040732789
3.665342e-06
0.00040546193
3.9168874e-06
0.0004035562
4.0749839e-06
0.00040163458
4.1611969e-06
0.00039971541
4.1927094e-06
0.00039781188
4.1849214e-06
0.00039593286
4.1523341e-06
0.0003940856
4.0994331e-06
0.00039227495
4.0320489e-06
0.00039050198
3.9618807e-06
0.00038876539
3.8914937e-06
0.00038705982
3.8579894e-06
0.00038537784
3.8630612e-06
0.00038371473
3.8596459e-06
0.00038206648
3.8500926e-06
0.00038043016
3.8401216e-06
0.00037880222
3.8364579e-06
0.00037717792
3.8451229e-06
0.00037555459
3.8579456e-06
0.0003739296
3.8769665e-06
0.00037230217
3.8958739e-06
0.00037067194
3.914465e-06
0.00036903914
3.9314222e-06
0.00036740473
3.9442516e-06
0.00036576899
3.956165e-06
0.00036413296
3.963782e-06
0.0003624973
3.9699351e-06
0.00036086119
3.9769759e-06
0.00035922701
3.9793015e-06
0.00035758071
4.0133539e-06
0.00035595426
3.97685e-06
0.00035426537
4.0731532e-06
0.00035246997
4.6990754e-06
0.0003506637
3.6243212e-06
6.8317759e-06
0.00089161381
7.8535317e-05
-0.00088789026
0.00089764621
0.00010228704
0.00090485271
0.0001179878
0.00091175825
0.00012378088
0.00091692455
0.00012025509
0.00091985381
0.00011020152
0.00092049541
9.8302996e-05
0.00091935187
8.7962588e-05
0.00091746483
8.048505e-05
0.00091491339
7.5798489e-05
0.00091162355
7.2655415e-05
0.00090737531
7.0325216e-05
0.00090192362
6.8435839e-05
0.00089520787
6.6643168e-05
0.00088730145
6.4905301e-05
0.00087822567
6.3177217e-05
0.00086813086
6.1425937e-05
0.00085730541
5.965213e-05
0.00084591242
5.7901931e-05
0.00083407277
5.6126944e-05
0.00082188481
5.4363652e-05
0.00080942687
5.2685228e-05
0.00079677673
5.1051268e-05
0.00078401322
4.9422833e-05
0.00077120544
4.7818948e-05
0.00075840937
4.6273215e-05
0.00074567779
4.4760557e-05
0.00073305815
4.3259786e-05
0.00072058825
4.1786171e-05
0.00070829835
4.0352767e-05
0.00069621738
3.8940271e-05
0.0006843725
3.7533999e-05
0.0006727867
3.6140408e-05
0.00066148109
3.4759594e-05
0.00065047935
3.3373613e-05
0.00063980752
3.1967394e-05
0.00062948622
3.0543752e-05
0.00061953154
2.9099998e-05
0.00060996285
2.7618728e-05
0.00060080312
2.6085263e-05
0.00059207732
2.4493145e-05
0.00058381312
2.2831095e-05
0.00057604085
2.1083828e-05
0.00056879633
1.9238595e-05
0.00056211331
1.7291936e-05
0.0005560002
1.522474e-05
0.00055045196
1.3093344e-05
0.00054546512
1.0960505e-05
0.00054103268
8.851956e-06
0.00053714103
6.8054689e-06
0.00053376673
4.8663121e-06
0.00053086921
3.0910153e-06
0.00052838544
1.5619885e-06
0.00052625141
3.3592924e-07
0.00052437571
-5.7310972e-07
0.00052261198
-1.0556334e-06
0.00052082539
-9.8556666e-07
0.00051894048
-4.2060483e-07
0.00051692214
4.9668412e-07
0.0005147573
1.5922461e-06
0.00051245094
2.7118534e-06
0.00051001626
3.7576198e-06
0.00050747189
4.6742914e-06
0.00050484236
5.4169727e-06
0.0005021529
5.9837709e-06
0.00049942794
6.3903009e-06
0.00049669091
6.6539136e-06
0.00049396173
6.8041686e-06
0.00049125683
6.8660967e-06
0.00048858921
6.8603233e-06
0.00048596824
6.8058921e-06
0.00048340067
6.7199117e-06
0.0004808923
6.6078046e-06
0.00047844633
6.4780123e-06
0.00047606246
6.3457509e-06
0.00047373784
6.2161143e-06
0.00047147362
6.1222116e-06
0.0004692682
6.0684789e-06
0.00046711111
6.0167369e-06
0.00046499225
5.96895e-06
0.00046290512
5.9272561e-06
0.00046084426
5.897319e-06
0.0004588037
5.8856753e-06
0.00045677945
5.882202e-06
0.00045476765
5.8887614e-06
0.00045276628
5.8972479e-06
0.00045077382
5.9069198e-06
0.00044878947
5.9157778e-06
0.0004468132
5.9205209e-06
0.0004448445
5.9248629e-06
0.0004428836
5.9246862e-06
0.00044093062
5.9229171e-06
0.00043898385
5.9237374e-06
0.00043704562
5.91754e-06
0.00043509951
5.9594603e-06
0.00043317988
5.8964773e-06
0.00043119385
6.0591876e-06
0.00042914182
6.751103e-06
0.00042690521
5.8609343e-06
9.1546152e-06
0.0009230045
7.5205677e-05
-0.00091967486
0.00092852328
9.676826e-05
0.00093509603
0.00011141505
0.00094151511
0.00011736179
0.000946665
0.0001151052
0.00094990941
0.0001069571
0.00095149841
9.6714e-05
0.00095187344
8.7587554e-05
0.00095153479
8.0823704e-05
0.00095102341
7.6309868e-05
0.00095037596
7.3302866e-05
0.00094952648
7.1174697e-05
0.00094837582
6.9586498e-05
0.00094679744
6.822155e-05
0.00094471457
6.6988166e-05
0.00094199113
6.5900657e-05
0.00093848619
6.4930881e-05
0.00093415841
6.3979912e-05
0.00092901388
6.3046464e-05
0.0009230319
6.2108922e-05
0.00091626594
6.1129611e-05
0.00090884341
6.0107755e-05
0.00090084025
5.9054431e-05
0.00089231527
5.7947812e-05
0.00088332079
5.6813431e-05
0.0008739093
5.5684701e-05
0.00086413733
5.4532525e-05
0.00085405912
5.3338002e-05
0.00084372723
5.2118064e-05
0.00083319318
5.088681e-05
0.00082250949
4.9623958e-05
0.00081172722
4.8316271e-05
0.00080089266
4.6974972e-05
0.00079004869
4.5603565e-05
0.00077923812
4.4184184e-05
0.00076850386
4.270165e-05
0.00075788788
4.1159734e-05
0.00074743179
3.9556084e-05
0.00073717722
3.7873301e-05
0.0007271656
3.6096879e-05
0.00071743793
3.4220821e-05
0.00070803658
3.2232443e-05
0.00069900615
3.0114256e-05
0.00069040359
2.7841158e-05
0.00068223966
2.545586e-05
0.00067448887
2.297553e-05
0.0006671726
2.0409617e-05
0.00066032475
1.780836e-05
0.00065396308
1.5213622e-05
0.00064808738
1.2681167e-05
0.00064267974
1.0273953e-05
0.00063770135
8.0694063e-06
0.00063310171
6.1616262e-06
0.00062885283
4.5848158e-06
0.00062482535
3.4543689e-06
0.00062082893
2.9407819e-06
0.00061681138
3.0319843e-06
0.00061279784
3.592934e-06
0.00060880482
4.4897054e-06
0.0006048354
5.5616668e-06
0.00060089395
6.6533084e-06
0.00059698237
7.669193e-06
0.00059310133
8.555332e-06
0.00058925564
9.2626637e-06
0.00058545165
9.787766e-06
0.00058169667
1.0145276e-05
0.00057799929
1.0351292e-05
0.00057436753
1.043593e-05
0.00057080871
1.0424914e-05
0.00056732917
1.0339871e-05
0.00056393401
1.0201044e-05
0.00056062639
1.0027535e-05
0.00055740838
9.8258127e-06
0.00055428057
9.6058287e-06
0.00055124078
9.3855414e-06
0.000548285
9.1718915e-06
0.00054541148
8.9957315e-06
0.00054261877
8.8611851e-06
0.0005399
8.7355138e-06
0.00053724514
8.6238104e-06
0.00053464603
8.5263625e-06
0.00053209575
8.4475938e-06
0.00052958725
8.3941799e-06
0.00052711528
8.3541685e-06
0.00052467484
8.3292049e-06
0.00052226253
8.3095564e-06
0.00051987554
8.2939117e-06
0.00051751176
8.2795563e-06
0.00051516992
8.2623584e-06
0.0005128486
8.2461862e-06
0.00051054702
8.2262677e-06
0.00050826423
8.2057059e-06
0.0005059974
8.1905668e-06
0.00050374823
8.1667104e-06
0.00050149874
8.2089487e-06
0.00049928302
8.1122029e-06
0.00049700385
8.3383504e-06
0.00049469316
9.0617953e-06
0.00049206361
8.4904865e-06
1.1605658e-05
0.00095538071
7.2206768e-05
-0.0009523818
0.00096046486
9.1684109e-05
0.00096653432
0.00010534559
0.00097250401
0.00011139209
0.00097738701
0.00011022221
0.00098063445
0.00010370966
0.00098238781
9.4960634e-05
0.00098314833
8.6827041e-05
0.00098335931
8.0612724e-05
0.00098334506
7.6324111e-05
0.00098325636
7.3391571e-05
0.00098314178
7.1289282e-05
0.00098299751
6.9730768e-05
0.00098275962
6.8459439e-05
0.00098238261
6.7365171e-05
0.00098182868
6.6454593e-05
0.00098104788
6.5711672e-05
0.00097997726
6.5050532e-05
0.00097856644
6.4457291e-05
0.00097672876
6.3946595e-05
0.00097437139
6.3486981e-05
0.00097145286
6.302629e-05
0.00096795184
6.2555449e-05
0.00096383648
6.2063172e-05
0.00095912139
6.152852e-05
0.00095385721
6.0948879e-05
0.00094807213
6.0317607e-05
0.00094179103
5.9619104e-05
0.0009350369
5.8872194e-05
0.00092783576
5.8087951e-05
0.00092022079
5.7238932e-05
0.00091222796
5.6309093e-05
0.00090388882
5.5314112e-05
0.00089523541
5.4256978e-05
0.00088630605
5.3113543e-05
0.00087714022
5.186748e-05
0.00086777995
5.0520007e-05
0.00085827237
4.9063665e-05
0.00084866701
4.747866e-05
0.0008390145
4.5749382e-05
0.00082936636
4.3868959e-05
0.00081977621
4.1822597e-05
0.0008103011
3.9589363e-05
0.00080100091
3.7141355e-05
0.00079192787
3.4528897e-05
0.00078310259
3.1800811e-05
0.00077454145
2.8970757e-05
0.00076627789
2.6071921e-05
0.0007583422
2.3149312e-05
0.00075075395
2.0269412e-05
0.00074351735
1.7510549e-05
0.00073661769
1.4969076e-05
0.00073004036
1.2738955e-05
0.00072379219
1.0832981e-05
0.00071779177
9.4547918e-06
0.00071190006
8.832492e-06
0.00070607784
8.8541994e-06
0.00070034521
9.325568e-06
0.00069471381
1.0121108e-05
0.00068918833
1.1087144e-05
0.00068377877
1.2062869e-05
0.00067848781
1.2960152e-05
0.00067331232
1.3730819e-05
0.00066825288
1.432211e-05
0.00066331031
1.4730331e-05
0.0006584843
1.4971294e-05
0.00065377535
1.5060242e-05
0.00064918444
1.5026836e-05
0.00064471273
1.4896621e-05
0.00064036134
1.4691264e-05
0.00063613179
1.4430591e-05
0.00063202422
1.4135108e-05
0.00062803761
1.3812418e-05
0.00062417013
1.3473317e-05
0.00062041771
1.3137952e-05
0.00061677535
1.2814253e-05
0.00061323874
1.2532346e-05
0.00060980477
1.229515e-05
0.00060646869
1.2071598e-05
0.00060322221
1.1870288e-05
0.00060005729
1.1691279e-05
0.00059696641
1.1538476e-05
0.00059394175
1.1418843e-05
0.00059097709
1.1318823e-05
0.00058806636
1.1239935e-05
0.00058520489
1.1171031e-05
0.00058238851
1.1110296e-05
0.00057961373
1.1054328e-05
0.00057687792
1.0998176e-05
0.00057417846
1.0945646e-05
0.00057151339
1.0891338e-05
0.00056888052
1.083857e-05
0.0005662758
1.0795283e-05
0.00056370002
1.0742497e-05
0.00056113393
1.0775037e-05
0.00055861017
1.0635959e-05
0.00055602921
1.0919318e-05
0.00055344812
1.1642877e-05
0.00055044103
1.1497582e-05
1.4215675e-05
0.00098878312
6.947752e-05
-0.00098605387
0.00099346092
8.7006312e-05
0.00099909152
9.9714993e-05
0.0010046733
0.00010581028
0.0010093308
0.00010556479
0.0010125554
0.00010048502
0.001014405
9.3111041e-05
0.0010153045
8.5927506e-05
0.0010156912
8.022607e-05
0.0010158641
7.6151167e-05
0.0010159627
7.3292965e-05
0.0010160331
7.1218942e-05
0.0010161025
6.9661375e-05
0.0010161569
6.8404997e-05
0.0010161685
6.7353609e-05
0.0010161329
6.6490167e-05
0.0010160464
6.5798163e-05
0.0010158828
6.5214158e-05
0.001015621
6.4719024e-05
0.0010152369
6.4330737e-05
0.001014695
6.402891e-05
0.0010139542
6.3767047e-05
0.0010129745
6.3535151e-05
0.0010116947
6.3343001e-05
0.0010100519
6.3171309e-05
0.0010080087
6.29921e-05
0.0010055333
6.279301e-05
0.0010025949
6.2557476e-05
0.00099919309
6.2274e-05
0.00099534169
6.1939349e-05
0.00099104296
6.1537668e-05
0.00098629847
6.1053584e-05
0.00098111295
6.0499633e-05
0.0009754953
5.9874624e-05
0.00096945751
5.9151332e-05
0.0009630137
5.8311289e-05
0.0009561794
5.7354308e-05
0.00094897116
5.627191e-05
0.00094140765
5.5042171e-05
0.00093351432
5.3642709e-05
0.00092532253
5.206075e-05
0.00091686788
5.027724e-05
0.00090819273
4.8264513e-05
0.0008993353
4.5998786e-05
0.00089037799
4.3486205e-05
0.00088141314
4.0765664e-05
0.00087247401
3.7909889e-05
0.00086358373
3.4962202e-05
0.00085477542
3.1957617e-05
0.00084608841
2.8956428e-05
0.00083756311
2.6035849e-05
0.00082923645
2.3295733e-05
0.00082113696
2.0838447e-05
0.00081327236
1.869758e-05
0.00080568614
1.7041015e-05
0.00079836019
1.6158436e-05
0.00079121389
1.6000498e-05
0.00078421237
1.6327094e-05
0.00077732177
1.7011699e-05
0.00077054223
1.7866684e-05
0.00076389168
1.8713422e-05
0.00075737597
1.9475862e-05
0.00075099823
2.0108561e-05
0.00074476932
2.0551021e-05
0.00073869572
2.0803924e-05
0.00073277791
2.0889111e-05
0.00072701701
2.0821142e-05
0.00072141408
2.0629759e-05
0.00071596853
2.034218e-05
0.00071067903
1.9980759e-05
0.0007055452
1.9564416e-05
0.00070056595
1.9114362e-05
0.00069573911
1.863926e-05
0.00069106133
1.8151092e-05
0.00068652711
1.7672179e-05
0.00068213055
1.7210807e-05
0.00067786599
1.6796911e-05
0.00067372875
1.6432386e-05
0.0006697145
1.6085846e-05
0.00066581636
1.5768436e-05
0.0006620271
1.5480539e-05
0.00065833926
1.5226309e-05
0.00065474464
1.5013467e-05
0.00065123626
1.48272e-05
0.00064780708
1.4669113e-05
0.00064445123
1.4526889e-05
0.00064116318
1.4398338e-05
0.00063793806
1.4279451e-05
0.00063477174
1.4164498e-05
0.00063166016
1.4057226e-05
0.00062859995
1.3951552e-05
0.00062558766
1.3850856e-05
0.00062261798
1.376496e-05
0.00061969057
1.3669915e-05
0.00061678501
1.3680596e-05
0.00061393202
1.3488942e-05
0.00061102987
1.3821468e-05
0.00060815786
1.4514889e-05
0.00060476821
1.4887234e-05
1.7015537e-05
0.0010232488
6.696229e-05
-0.0010207335
0.0010275457
8.2709332e-05
0.0010327625
9.4498248e-05
0.0010379841
0.00010058866
0.0010424355
0.00010111337
0.0010456398
9.7280781e-05
0.0010475901
9.1160691e-05
0.0010486257
8.489189e-05
0.0010491363
7.9715481e-05
0.0010494061
7.5881409e-05
0.0010495839
7.3115171e-05
0.0010497307
7.1072139e-05
0.0010498715
6.9520577e-05
0.0010499976
6.827888e-05
0.0010501011
6.7250122e-05
0.0010501842
6.6407059e-05
0.001050257
6.5725363e-05
0.0010503105
6.5160652e-05
0.0010503274
6.4702071e-05
0.0010503098
6.4348364e-05
0.0010502546
6.4084097e-05
0.0010501453
6.3876396e-05
0.0010499664
6.3714063e-05
0.0010496992
6.3610121e-05
0.0010493185
6.3552079e-05
0.0010487951
6.3515457e-05
0.0010480971
6.3491011e-05
0.001047179
6.3475624e-05
0.0010459956
6.345736e-05
0.0010445161
6.3418807e-05
0.0010427064
6.3347462e-05
0.0010405359
6.3224048e-05
0.0010379977
6.3037808e-05
0.0010350883
6.2784024e-05
0.0010317968
6.2442801e-05
0.0010281114
6.1996741e-05
0.0010240207
6.1444966e-05
0.0010195175
6.0775139e-05
0.0010145978
5.9961889e-05
0.0010092575
5.8983025e-05
0.0010034918
5.7826439e-05
0.00099729673
5.6472291e-05
0.00099067159
5.4889651e-05
0.00098361236
5.3058017e-05
0.00097613064
5.0967929e-05
0.0009682848
4.8611504e-05
0.00096014392
4.6050768e-05
0.00095175455
4.3351573e-05
0.00094315793
4.0554235e-05
0.00093440029
3.7714072e-05
0.00092553749
3.4898647e-05
0.00091663662
3.2196595e-05
0.00090776074
2.9714331e-05
0.000898936
2.7522326e-05
0.00089026254
2.571447e-05
0.00088187957
2.4541404e-05
0.0008737835
2.4096575e-05
0.00086584791
2.4262676e-05
0.0008579927
2.4866912e-05
0.00085023711
2.5622272e-05
0.00084258684
2.6363698e-05
0.00083503811
2.7024594e-05
0.00082760784
2.7538832e-05
0.00082032093
2.7837925e-05
0.00081318809
2.7936768e-05
0.00080621505
2.7862144e-05
0.00079941256
2.7623639e-05
0.00079278752
2.7254797e-05
0.00078634107
2.678863e-05
0.00078007405
2.6247777e-05
0.00077398828
2.5650191e-05
0.00076808345
2.5019186e-05
0.00076235769
2.4365027e-05
0.00075680787
2.3700904e-05
0.00075142839
2.3051663e-05
0.00074621348
2.2425722e-05
0.00074115754
2.1852848e-05
0.00073625543
2.1334496e-05
0.00073150274
2.0838532e-05
0.00072689343
2.0377747e-05
0.00072242127
1.9952704e-05
0.00071807927
1.956831e-05
0.00071385918
1.9233554e-05
0.00070975359
1.8932792e-05
0.00070575465
1.866805e-05
0.00070185543
1.8426112e-05
0.00069804917
1.8204594e-05
0.00069432961
1.7999017e-05
0.00069069115
1.7802957e-05
0.00068712821
1.762016e-05
0.00068363591
1.7443852e-05
0.00068020943
1.7277342e-05
0.00067684211
1.7132273e-05
0.00067353235
1.6979683e-05
0.00067025853
1.6954409e-05
0.00066704935
1.6698127e-05
0.00066380038
1.707043e-05
0.00066061151
1.7703764e-05
0.00065682152
1.8677223e-05
2.0035945e-05
0.0010588069
6.4621392e-05
-0.001056466
0.0010627527
7.8763521e-05
0.0010675803
8.9670618e-05
0.0010724635
9.5705461e-05
0.001076711
9.6865858e-05
0.0010798805
9.4111274e-05
0.0010819187
8.9122538e-05
0.0010830887
8.3721853e-05
0.0010837288
7.9075427e-05
0.0010840991
7.5511123e-05
0.0010843476
7.2866631e-05
0.0010845438
7.0875946e-05
0.0010847199
6.9344503e-05
0.0010848788
6.8119989e-05
0.0010850188
6.7110106e-05
0.0010851438
6.628205e-05
0.0010852572
6.5611925e-05
0.0010853551
6.5062739e-05
0.001085438
6.4619256e-05
0.0010855088
6.4277564e-05
0.0010855725
6.4020385e-05
0.0010856248
6.3824049e-05
0.0010856512
6.3687671e-05
0.0010856502
6.3611144e-05
0.0010856211
6.3581144e-05
0.0010855526
6.3583993e-05
0.0010854337
6.3609916e-05
0.0010852494
6.3659898e-05
0.0010849798
6.3726989e-05
0.0010846036
6.3795038e-05
0.0010840943
6.3856709e-05
0.0010834169
6.3901485e-05
0.0010825374
6.3917324e-05
0.0010814301
6.3891237e-05
0.0010800619
6.3811058e-05
0.0010784053
6.3653293e-05
0.0010764481
6.3402218e-05
0.001074173
6.3050243e-05
0.0010715616
6.2573295e-05
0.0010685932
6.1951353e-05
0.0010652451
6.1174571e-05
0.0010614927
6.0224742e-05
0.0010573098
5.9072525e-05
0.0010526671
5.7700736e-05
0.0010475284
5.6106587e-05
0.0010418709
5.4268973e-05
0.0010357036
5.2218069e-05
0.0010290451
5.0010111e-05
0.0010219127
4.7686669e-05
0.0010143301
4.5296625e-05
0.0010063328
4.2895986e-05
0.0009979725
4.0556871e-05
0.00098931746
3.8369362e-05
0.00098042931
3.6410485e-05
0.00097140028
3.4743499e-05
0.00096242367
3.351801e-05
0.00095363757
3.2882677e-05
0.00094504503
3.2855214e-05
0.00093662052
3.3291423e-05
0.0009283025
3.3940287e-05
0.00092001191
3.4654287e-05
0.000911743
3.5293509e-05
0.00090354613
3.57357e-05
0.00089544187
3.594218e-05
0.00088743643
3.5942211e-05
0.00087955374
3.5744834e-05
0.00087182071
3.535667e-05
0.00086424927
3.4826236e-05
0.00085684625
3.4191648e-05
0.00084962249
3.3471539e-05
0.00084258666
3.2686028e-05
0.00083574146
3.186438e-05
0.00082908836
3.1018128e-05
0.00082262791
3.0161354e-05
0.00081635699
2.9322585e-05
0.00081027225
2.8510461e-05
0.00080437054
2.7754561e-05
0.00079864789
2.7057144e-05
0.00079310047
2.6385948e-05
0.00078772326
2.5754954e-05
0.00078251122
2.5164744e-05
0.00077745819
2.4621342e-05
0.00077255636
2.4135381e-05
0.00076779831
2.3690842e-05
0.00076317572
2.3290646e-05
0.00075868087
2.2920965e-05
0.000754306
2.257946e-05
0.00075004362
2.2261393e-05
0.00074588679
2.1959792e-05
0.00074182844
2.1678506e-05
0.00073786218
2.1410112e-05
0.00073398173
2.1157793e-05
0.00073017907
2.0934931e-05
0.00072645121
2.0707546e-05
0.00072277529
2.0630325e-05
0.00071917798
2.0295445e-05
0.00071555162
2.0696785e-05
0.00071201558
2.1239807e-05
0.00070779828
2.2894525e-05
2.3308048e-05
0.0010954914
6.2426662e-05
-0.0010932967
0.0010991183
7.5136615e-05
0.0011035828
8.5206147e-05
0.0011081481
9.1140218e-05
0.0011121939
9.2820063e-05
0.0011153131
9.0992061e-05
0.0011174194
8.7016209e-05
0.00111871
8.2431287e-05
0.0011194739
7.8311507e-05
0.0011199472
7.5037761e-05
0.0011202733
7.2540571e-05
0.0011205252
7.0624062e-05
0.0011207398
6.9129854e-05
0.0011209279
6.7931952e-05
0.0011210919
6.6946056e-05
0.0011212377
6.6136304e-05
0.0011213701
6.5479531e-05
0.0011214892
6.4943653e-05
0.0011215969
6.4511558e-05
0.0011216967
6.4177677e-05
0.0011217899
6.3927194e-05
0.0011218738
6.3740145e-05
0.0011219487
6.3612837e-05
0.0011220162
6.3543603e-05
0.0011220759
6.3521492e-05
0.0011221309
6.3528963e-05
0.0011221707
6.3570068e-05
0.0011221856
6.3645053e-05
0.0011221784
6.3734185e-05
0.0011221412
6.3832233e-05
0.0011220657
6.3932253e-05
0.0011219398
6.4027347e-05
0.001121747
6.4110075e-05
0.0011214711
6.4167137e-05
0.0011210895
6.4192723e-05
0.0011205737
6.4169079e-05
0.0011198978
6.4078078e-05
0.001119038
6.3910048e-05
0.0011179631
6.3648238e-05
0.0011166473
6.3267094e-05
0.0011150735
6.2748379e-05
0.0011132151
6.2083212e-05
0.0011110412
6.1246351e-05
0.0011085181
6.0223846e-05
0.0011056064
5.9018325e-05
0.0011022578
5.7617599e-05
0.0010984296
5.6046202e-05
0.0010940886
5.4351113e-05
0.0010892033
5.2571991e-05
0.0010837476
5.0752351e-05