/*--------------------------------*- C++ -*----------------------------------*\
| =========                 |                                                 |
| \\      /  F ield         | OpenFOAM: The Open Source CFD Toolbox           |
|  \\    /   O peration     | Version:  2206                                  |
|   \\  /    A nd           | Website:  www.openfoam.com                      |
|    \\/     M anipulation  |                                                 |
\*---------------------------------------------------------------------------*/
FoamFile
{
    version     2.0;
    format      ascii;
    arch        "LSB;label=32;scalar=64";
    class       volVectorField;
    location    "900";
    object      U;
}
// * * * * * * * * * * * * * * * * * * * * * * * * * * * * * * * * * * * * * //

dimensions      [0 1 -1 0 0 0 0];

internalField   nonuniform List<vector> 
7480
(
(0.82753859 0.011160341 0)
(0.70298597 0.020207585 0)
(0.56653458 0.021423553 0)
(0.43051549 0.0145578 0)
(0.33052842 0.0062882371 0)
(0.26655513 0.001909194 0)
(0.23004885 0.0022277724 0)
(0.20851043 -0.00029133983 0)
(0.19444848 -0.00043014057 0)
(0.18411899 -0.00017532831 0)
(0.1752944 1.0579935e-06 0)
(0.16710532 5.4181289e-05 0)
(0.1595339 6.4821152e-05 0)
(0.15263514 6.7200319e-05 0)
(0.14634908 0.00017248285 0)
(0.14059952 9.672326e-05 0)
(0.13536835 4.6433003e-05 0)
(0.13058731 4.5107849e-05 0)
(0.12616216 4.3855317e-05 0)
(0.12204792 4.0447663e-05 0)
(0.11822399 3.7208867e-05 0)
(0.11465466 3.526304e-05 0)
(0.11130324 3.2994004e-05 0)
(0.10815179 3.0272107e-05 0)
(0.10518765 2.7912049e-05 0)
(0.10239062 2.6173879e-05 0)
(0.099741425 2.4365951e-05 0)
(0.097230881 2.2413972e-05 0)
(0.094852377 2.0716033e-05 0)
(0.092594931 1.9308303e-05 0)
(0.09044892 1.7871603e-05 0)
(0.088410171 1.640566e-05 0)
(0.086475022 1.5101532e-05 0)
(0.084637583 1.3931905e-05 0)
(0.082893287 1.2764155e-05 0)
(0.081240502 1.161208e-05 0)
(0.079677691 1.0552095e-05 0)
(0.078202907 9.5383805e-06 0)
(0.07681602 8.5170118e-06 0)
(0.075518963 7.5063301e-06 0)
(0.074313692 6.5501863e-06 0)
(0.073201688 5.6314633e-06 0)
(0.072186356 4.7110511e-06 0)
(0.071270994 3.8218611e-06 0)
(0.070461432 1.6738826e-05 0)
(0.069761575 -2.27788e-06 0)
(0.069191848 -1.5778573e-06 0)
(0.068759012 2.0508199e-07 0)
(0.068461898 -5.7951245e-07 0)
(0.068300391 -1.3387885e-06 0)
(0.068271331 -2.1803287e-06 0)
(0.068368198 -2.795383e-06 0)
(0.06858022 -3.2228986e-06 0)
(0.068885231 -3.3621617e-06 0)
(0.069261525 -3.4702161e-06 0)
(0.069697303 -3.5776132e-06 0)
(0.070163314 -3.2753193e-06 0)
(0.070611959 -2.7973377e-06 0)
(0.070995569 -2.1413853e-06 0)
(0.071282032 -6.3476432e-06 0)
(0.071459482 -1.3516621e-06 0)
(0.071530393 -3.6564293e-07 0)
(0.071504023 -4.8948885e-08 0)
(0.071395416 9.1638347e-08 0)
(0.07122229 1.8570345e-07 0)
(0.071000601 2.4919456e-07 0)
(0.070744655 2.7787122e-07 0)
(0.070466061 2.8995073e-07 0)
(0.070173138 2.8858427e-07 0)
(0.069872143 2.7783668e-07 0)
(0.069567949 2.6126982e-07 0)
(0.069263424 2.5000533e-07 0)
(0.068960343 2.3712504e-07 0)
(0.068660737 2.2101851e-07 0)
(0.068365091 2.1621748e-07 0)
(0.068073753 2.0586055e-07 0)
(0.067787171 2.1627378e-07 0)
(0.067495869 2.4575118e-07 0)
(0.06719967 2.5210935e-07 0)
(0.066901253 2.5761485e-07 0)
(0.066601764 2.5640884e-07 0)
(0.066301839 2.5412649e-07 0)
(0.066000175 2.6024473e-07 0)
(0.065696177 2.5735606e-07 0)
(0.065389596 2.6015843e-07 0)
(0.065080169 2.5859467e-07 0)
(0.064768248 2.5741967e-07 0)
(0.064453796 2.5658723e-07 0)
(0.064137399 2.5240384e-07 0)
(0.063819156 2.5192293e-07 0)
(0.063499461 2.4664921e-07 0)
(0.0631784 2.4601345e-07 0)
(0.062856635 2.4046812e-07 0)
(0.062532063 2.4727324e-07 0)
(0.06221064 2.246407e-07 0)
(0.061870285 3.0729282e-07 0)
(0.061576298 8.8269895e-07 0)
(0.061138434 1.1324721e-05 0)
(0.060897943 1.9096192e-05 0)
(0.060225781 8.20781e-06 0)
(0.95864297 0.028029594 0)
(0.94940255 0.03858967 0)
(0.9302739 0.041836169 0)
(0.88509776 0.039313064 0)
(0.82438685 0.032446801 0)
(0.7568092 0.023959197 0)
(0.69433793 0.015508002 0)
(0.64136045 0.0094009023 0)
(0.59773218 0.0060296863 0)
(0.56167751 0.0043631965 0)
(0.53118796 0.0035598644 0)
(0.50473106 0.0030817482 0)
(0.48139185 0.0027032267 0)
(0.46054936 0.0023888008 0)
(0.44171712 0.0021289116 0)
(0.42457218 0.0018862606 0)
(0.4089094 0.001664701 0)
(0.3945196 0.0014836077 0)
(0.38121103 0.0013360054 0)
(0.36884843 0.0012047501 0)
(0.35733722 0.0010885459 0)
(0.34658117 0.00098958679 0)
(0.33649138 0.00090256827 0)
(0.32700501 0.00082364675 0)
(0.31806806 0.00075307474 0)
(0.30962874 0.00069126242 0)
(0.30163978 0.000635565 0)
(0.29406838 0.00058409025 0)
(0.28688899 0.00053718662 0)
(0.28007355 0.00049499339 0)
(0.27359691 0.00045616709 0)
(0.26744265 0.00041987792 0)
(0.26159771 0.00038635962 0)
(0.25604769 0.00035551847 0)
(0.25078063 0.00032665963 0)
(0.24578993 0.00029940383 0)
(0.24107113 0.00027379256 0)
(0.23662062 0.00024956399 0)
(0.23243852 0.00022627513 0)
(0.2285296 0.00020373091 0)
(0.22490049 0.00018198412 0)
(0.2215583 0.0001609049 0)
(0.21851408 0.00014021405 0)
(0.21578126 0.00011993947 0)
(0.21337395 0.00010018561 0)
(0.21131228 8.2045987e-05 0)
(0.20964231 6.0375195e-05 0)
(0.20837536 3.7927151e-05 0)
(0.20750943 1.8389997e-05 0)
(0.20704471 5.3059307e-07 0)
(0.20696649 -1.5279537e-05 0)
(0.20725116 -2.8966111e-05 0)
(0.20786333 -3.9857783e-05 0)
(0.20874128 -4.7236454e-05 0)
(0.20982084 -5.2127146e-05 0)
(0.21104922 -5.4635165e-05 0)
(0.21233497 -5.2593175e-05 0)
(0.21355039 -4.598222e-05 0)
(0.21457703 -3.7492974e-05 0)
(0.21531632 -9.375795e-06 0)
(0.21576254 -1.4516799e-05 0)
(0.2159081 -4.9443106e-06 0)
(0.21578356 2.7213524e-06 0)
(0.21542874 8.6744652e-06 0)
(0.21489247 1.2919887e-05 0)
(0.21421951 1.5738686e-05 0)
(0.21344922 1.73799e-05 0)
(0.21261365 1.8211868e-05 0)
(0.21173672 1.8476073e-05 0)
(0.21083632 1.8340301e-05 0)
(0.20992614 1.7940892e-05 0)
(0.20901469 1.741584e-05 0)
(0.20810763 1.6791433e-05 0)
(0.20721047 1.6102154e-05 0)
(0.20632515 1.5443593e-05 0)
(0.20545261 1.4780001e-05 0)
(0.20459268 1.4451881e-05 0)
(0.20371787 1.4437609e-05 0)
(0.20282946 1.425626e-05 0)
(0.2019355 1.3963989e-05 0)
(0.20103884 1.3620996e-05 0)
(0.20014023 1.3292713e-05 0)
(0.19923661 1.3032215e-05 0)
(0.19832629 1.2766128e-05 0)
(0.19740831 1.2529662e-05 0)
(0.19648217 1.228025e-05 0)
(0.19554863 1.2028219e-05 0)
(0.19460791 1.1771366e-05 0)
(0.19366151 1.1495094e-05 0)
(0.19270997 1.1226844e-05 0)
(0.19175447 1.0939918e-05 0)
(0.19079544 1.0662699e-05 0)
(0.18983466 1.0387109e-05 0)
(0.18886772 1.012245e-05 0)
(0.18790754 9.9131239e-06 0)
(0.18690595 9.6387264e-06 0)
(0.1860069 1.1486155e-05 0)
(0.18477428 3.9760237e-05 0)
(0.18403354 6.5055351e-05 0)
(0.18205719 3.0386363e-05 0)
(0.96798699 0.029709014 0)
(0.97307435 0.037720651 0)
(0.98236263 0.041542842 0)
(0.98422256 0.041014478 0)
(0.9793519 0.037119311 0)
(0.96359257 0.03059167 0)
(0.93922255 0.024150859 0)
(0.91007563 0.01911802 0)
(0.87831401 0.015501901 0)
(0.84611543 0.01289844 0)
(0.81511543 0.010958209 0)
(0.78571298 0.0094050468 0)
(0.75797701 0.0081188331 0)
(0.73182525 0.0070812571 0)
(0.70715435 0.0062357148 0)
(0.68390891 0.0055156758 0)
(0.66205173 0.0048997279 0)
(0.64148992 0.0043848581 0)
(0.62211172 0.0039452049 0)
(0.60382899 0.0035577779 0)
(0.5865703 0.0032165836 0)
(0.57025285 0.0029215884 0)
(0.55479624 0.0026623936 0)
(0.54013777 0.0024299594 0)
(0.52622529 0.0022222019 0)
(0.51300274 0.0020385459 0)
(0.50041773 0.0018735808 0)
(0.48843064 0.0017228461 0)
(0.47700872 0.001585601 0)
(0.46611823 0.0014613007 0)
(0.45572939 0.0013472354 0)
(0.44582104 0.0012413748 0)
(0.43637596 0.0011434769 0)
(0.42737713 0.0010530232 0)
(0.41881096 0.00096855545 0)
(0.4106699 0.00088903678 0)
(0.40295001 0.00081416646 0)
(0.39564961 0.00074324154 0)
(0.38877153 0.00067524666 0)
(0.38232422 0.00060957869 0)
(0.37631946 0.00054611735 0)
(0.37077115 0.00048449708 0)
(0.36569841 0.00042411442 0)
(0.36112339 0.00036480604 0)
(0.35707139 0.00030710795 0)
(0.35357607 0.00024601856 0)
(0.35068297 0.00018372862 0)
(0.34840892 0.00012780513 0)
(0.34674785 7.3835185e-05 0)
(0.34568857 2.3971624e-05 0)
(0.34520426 -2.079814e-05 0)
(0.34525087 -5.9482722e-05 0)
(0.34577161 -9.0612486e-05 0)
(0.34667635 -0.00011260372 0)
(0.34787241 -0.0001270731 0)
(0.34926894 -0.00013393415 0)
(0.35072449 -0.00012960895 0)
(0.35206378 -0.00011293358 0)
(0.35313365 -8.6095126e-05 0)
(0.35382156 -5.8743222e-05 0)
(0.35410652 -3.0253707e-05 0)
(0.35399529 -5.2350572e-06 0)
(0.35352216 1.5942937e-05 0)
(0.35274404 3.2078958e-05 0)
(0.35172564 4.3577755e-05 0)
(0.35052639 5.1212288e-05 0)
(0.34919863 5.5684462e-05 0)
(0.34778544 5.7874273e-05 0)
(0.34631984 5.8441856e-05 0)
(0.34482677 5.7868425e-05 0)
(0.34332517 5.6542415e-05 0)
(0.34182712 5.4819638e-05 0)
(0.34034111 5.2810471e-05 0)
(0.33887476 5.0625584e-05 0)
(0.33743112 4.8488656e-05 0)
(0.33601134 4.6377856e-05 0)
(0.33461372 4.5160911e-05 0)
(0.33319827 4.4754623e-05 0)
(0.33177235 4.3970709e-05 0)
(0.33034564 4.2910111e-05 0)
(0.32891969 4.1764921e-05 0)
(0.32749389 4.0688477e-05 0)
(0.3260639 3.9785033e-05 0)
(0.32462689 3.8912578e-05 0)
(0.32318098 3.8117813e-05 0)
(0.32172522 3.7311101e-05 0)
(0.32026024 3.6502056e-05 0)
(0.31878629 3.5681435e-05 0)
(0.31730517 3.4820908e-05 0)
(0.31581771 3.3971052e-05 0)
(0.3143254 3.3086126e-05 0)
(0.31282892 3.2214489e-05 0)
(0.31133065 3.1361748e-05 0)
(0.30982523 3.0507208e-05 0)
(0.30832833 2.9888624e-05 0)
(0.30678074 2.8840141e-05 0)
(0.3053584 3.1522728e-05 0)
(0.30351768 7.2420267e-05 0)
(0.30231546 0.00011339352 0)
(0.29932021 4.0611063e-05 0)
(0.97002318 0.02708456 0)
(0.97637246 0.034266783 0)
(0.98543014 0.038380483 0)
(0.99339649 0.039214079 0)
(1.0015998 0.036177753 0)
(1.002488 0.031202979 0)
(0.99953074 0.026293663 0)
(0.99329103 0.022247633 0)
(0.98416094 0.019369231 0)
(0.97246953 0.017347237 0)
(0.95864483 0.015776744 0)
(0.94308443 0.014350134 0)
(0.92566468 0.013014786 0)
(0.90732 0.011780534 0)
(0.88850425 0.01067014 0)
(0.86950301 0.0096644863 0)
(0.85051783 0.0087605732 0)
(0.83167288 0.0079708075 0)
(0.81305864 0.0072749092 0)
(0.79476749 0.0066465298 0)
(0.77687953 0.00607856 0)
(0.75943983 0.0055725909 0)
(0.74247247 0.0051173927 0)
(0.72599772 0.0047026103 0)
(0.71003389 0.0043261983 0)
(0.69458292 0.0039877438 0)
(0.67963912 0.0036804174 0)
(0.66519948 0.0033981132 0)
(0.65126016 0.0031394062 0)
(0.63781135 0.0029031211 0)
(0.62484306 0.0026851762 0)
(0.6123498 0.0024823705 0)
(0.6003272 0.002293922 0)
(0.58876975 0.0021187473 0)
(0.57767437 0.001954505 0)
(0.56704343 0.001799403 0)
(0.55688284 0.0016527853 0)
(0.54719853 0.0015135076 0)
(0.53799928 0.0013798897 0)
(0.52929872 0.0012508328 0)
(0.52111393 0.0011259555 0)
(0.51346465 0.0010045732 0)
(0.50637586 0.00088571301 0)
(0.49987454 0.00076882288 0)
(0.49399452 0.00065518187 0)
(0.48877331 0.00053686187 0)
(0.48423791 0.00041970663 0)
(0.48039321 0.00031154382 0)
(0.47722707 0.00020948257 0)
(0.47471895 0.00011526531 0)
(0.47283823 3.1121621e-05 0)
(0.47153885 -4.1503196e-05 0)
(0.4707547 -0.00010011539 0)
(0.47038978 -0.00014246821 0)
(0.47035694 -0.00017126191 0)
(0.47054715 -0.00018590854 0)
(0.47079452 -0.00017838102 0)
(0.47092676 -0.00015090268 0)
(0.47081746 -0.00010176277 0)
(0.47038101 -6.1404615e-05 0)
(0.46960755 -1.4950959e-05 0)
(0.46850449 2.6103539e-05 0)
(0.46710619 6.0168768e-05 0)
(0.46546101 8.6022929e-05 0)
(0.46362239 0.00010422458 0)
(0.46164023 0.00011597686 0)
(0.45955972 0.00012243839 0)
(0.45741929 0.00012501987 0)
(0.4552493 0.00012482227 0)
(0.45307327 0.00012267419 0)
(0.45090913 0.0001192548 0)
(0.4487684 0.00011514785 0)
(0.44665994 0.00011055788 0)
(0.4445913 0.0001057024 0)
(0.44256527 0.00010095087 0)
(0.4405824 9.6348524e-05 0)
(0.43863849 9.2915946e-05 0)
(0.43672498 9.0694469e-05 0)
(0.43483487 8.832053e-05 0)
(0.43296378 8.5767419e-05 0)
(0.43110756 8.321043e-05 0)
(0.42926328 8.0842165e-05 0)
(0.42742549 7.8802346e-05 0)
(0.42559002 7.6880504e-05 0)
(0.42375383 7.5120482e-05 0)
(0.42191495 7.3379562e-05 0)
(0.42007309 7.1658364e-05 0)
(0.41822784 6.9934849e-05 0)
(0.41638036 6.8164508e-05 0)
(0.41453113 6.6417621e-05 0)
(0.41268111 6.4631692e-05 0)
(0.41083073 6.2867034e-05 0)
(0.40898218 6.1156434e-05 0)
(0.40712948 5.9422631e-05 0)
(0.40528883 5.8193833e-05 0)
(0.40339731 5.5994638e-05 0)
(0.40163643 5.9487022e-05 0)
(0.39945263 0.0001073578 0)
(0.39791933 0.00015765279 0)
(0.39438335 0.00011310472 0)
(0.97237843 0.025563776 0)
(0.97773664 0.032401253 0)
(0.98582592 0.036409168 0)
(0.99413368 0.037070782 0)
(1.0012142 0.03467008 0)
(1.0055671 0.030637673 0)
(1.0079069 0.026374354 0)
(1.0070576 0.022758066 0)
(1.0052487 0.020142599 0)
(1.0027404 0.018354349 0)
(0.99953359 0.017017931 0)
(0.99552846 0.015924313 0)
(0.99023566 0.014972104 0)
(0.9835647 0.014079467 0)
(0.97553046 0.013226844 0)
(0.96625667 0.012374056 0)
(0.95564262 0.011537714 0)
(0.94414002 0.010747098 0)
(0.93194553 0.010009871 0)
(0.9192019 0.0093175192 0)
(0.90602525 0.0086712515 0)
(0.89251845 0.0080773928 0)
(0.87875869 0.0075276235 0)
(0.86483206 0.0070121753 0)
(0.85082289 0.0065305605 0)
(0.83679929 0.0060850233 0)
(0.82281939 0.0056701146 0)
(0.80893785 0.0052808082 0)
(0.79520207 0.0049172122 0)
(0.78164856 0.0045793237 0)
(0.76830856 0.004263181 0)
(0.75521277 0.0039655582 0)
(0.74238895 0.0036859032 0)
(0.72986053 0.003423052 0)
(0.71765091 0.0031740961 0)
(0.70578792 0.0029367479 0)
(0.69430025 0.0027106608 0)
(0.68320482 0.002494906 0)
(0.67252014 0.0022873329 0)
(0.66226972 0.0020862932 0)
(0.65248013 0.0018910737 0)
(0.6431798 0.0017006598 0)
(0.6344013 0.0015137728 0)
(0.62617751 0.0013298511 0)
(0.6185561 0.0011475735 0)
(0.61156061 0.00096819475 0)
(0.60518679 0.00079182759 0)
(0.59942851 0.00062247355 0)
(0.5942821 0.00046597444 0)
(0.58973711 0.00032279937 0)
(0.58577404 0.00019443376 0)
(0.58236095 8.3231292e-05 0)
(0.57944039 -7.2662023e-06 0)
(0.57692974 -7.4668971e-05 0)
(0.57477653 -0.00012090993 0)
(0.57283081 -0.00014215622 0)
(0.57091479 -0.0001342963 0)
(0.56891749 -0.00010038087 0)
(0.56678979 -3.7358582e-05 0)
(0.56449605 8.6687462e-06 0)
(0.56204598 6.4739519e-05 0)
(0.55944639 0.0001139108 0)
(0.55671536 0.00015409006 0)
(0.55387711 0.00018391527 0)
(0.55095967 0.00020412378 0)
(0.54799044 0.000216184 0)
(0.544996 0.00022151722 0)
(0.54200035 0.00022188226 0)
(0.53902337 0.00021867853 0)
(0.53608111 0.0002129871 0)
(0.53318594 0.00020571379 0)
(0.53034566 0.00019760377 0)
(0.52756757 0.00018892778 0)
(0.52485706 0.00018001085 0)
(0.52221522 0.00017135588 0)
(0.51964108 0.00016308603 0)
(0.5171287 0.00015635966 0)
(0.51468634 0.00015114627 0)
(0.51230295 0.00014597426 0)
(0.509966 0.00014092465 0)
(0.50766643 0.00013611779 0)
(0.50539872 0.0001317147 0)
(0.5031562 0.0001278586 0)
(0.50093339 0.00012427108 0)
(0.498726 0.00012098343 0)
(0.49653073 0.00011779843 0)
(0.49434598 0.00011470058 0)
(0.49217019 0.0001116494 0)
(0.49000333 0.00010858102 0)
(0.48784494 0.00010557833 0)
(0.48569501 0.0001025616 0)
(0.48355327 9.9595283e-05 0)
(0.48142118 9.6745001e-05 0)
(0.47929201 9.3860897e-05 0)
(0.47718138 9.1802042e-05 0)
(0.47502575 8.8192084e-05 0)
(0.47300115 9.2303762e-05 0)
(0.47058013 0.00014297266 0)
(0.4687847 0.00019749452 0)
(0.46489859 0.00014733003 0)
(0.97456649 0.02451213 0)
(0.97925848 0.030795074 0)
(0.98633052 0.034469863 0)
(0.99374302 0.035114131 0)
(1.000139 0.033234987 0)
(1.0047656 0.029797358 0)
(1.0072597 0.025984171 0)
(1.0082459 0.022700329 0)
(1.0079219 0.020249209 0)
(1.007369 0.018530126 0)
(1.0067391 0.017263941 0)
(1.0059822 0.016265234 0)
(1.0049512 0.015424963 0)
(1.0035318 0.014655165 0)
(1.0016104 0.01393106 0)
(0.99912121 0.013260675 0)
(0.995828 0.012639757 0)
(0.99167735 0.012045741 0)
(0.98665443 0.011471138 0)
(0.98077348 0.010899251 0)
(0.9739683 0.010331185 0)
(0.9664287 0.0097846259 0)
(0.95824187 0.0092597955 0)
(0.94947254 0.0087545118 0)
(0.94017799 0.0082710498 0)
(0.93041441 0.0078125155 0)
(0.9202411 0.0073746574 0)
(0.90971445 0.0069535422 0)
(0.89889157 0.0065504472 0)
(0.88782861 0.0061666031 0)
(0.87657998 0.0057989882 0)
(0.86520064 0.0054454698 0)
(0.85374302 0.0051068965 0)
(0.84225384 0.0047831025 0)
(0.83077764 0.004471626 0)
(0.81935975 0.0041704971 0)
(0.80804524 0.0038794529 0)
(0.79687876 0.0035978677 0)
(0.78590393 0.003324111 0)
(0.77516472 0.0030568051 0)
(0.76470476 0.0027953935 0)
(0.75456757 0.0025387904 0)
(0.74479976 0.0022856428 0)
(0.73544823 0.0020342934 0)
(0.72658911 0.0017882818 0)
(0.71816458 0.0015474066 0)
(0.71018102 0.0013122851 0)
(0.70267828 0.0010872461 0)
(0.69568606 0.00087550566 0)
(0.68921326 0.00068051937 0)
(0.68325017 0.00050531692 0)
(0.67776834 0.00035311149 0)
(0.67271339 0.00022789274 0)
(0.66803124 0.00013030557 0)
(0.66372166 6.4599857e-05 0)
(0.65950582 3.4938012e-05 0)
(0.65525526 3.9227712e-05 0)
(0.65099534 7.0268639e-05 0)
(0.64675792 0.00013279117 0)
(0.64253744 0.00017402636 0)
(0.63834837 0.00022740193 0)
(0.63419063 0.00027377605 0)
(0.63006453 0.00031077523 0)
(0.62597249 0.00033686731 0)
(0.62192088 0.00035278855 0)
(0.6179171 0.0003600337 0)
(0.61396969 0.0003600591 0)
(0.61008767 0.00035475069 0)
(0.60627935 0.00034562074 0)
(0.60255193 0.00033385812 0)
(0.5989116 0.00032047578 0)
(0.5953628 0.00030634276 0)
(0.59190799 0.00029177722 0)
(0.58854909 0.00027715791 0)
(0.58528497 0.00026308762 0)
(0.58211288 0.00024975319 0)
(0.57902647 0.00023816146 0)
(0.57602819 0.00022830828 0)
(0.57311327 0.00021898209 0)
(0.57027124 0.00021027259 0)
(0.56749177 0.00020217628 0)
(0.56476762 0.0001947915 0)
(0.56209115 0.00018824695 0)
(0.55945582 0.0001821948 0)
(0.55685626 0.00017664656 0)
(0.55428789 0.00017134983 0)
(0.55174775 0.00016626707 0)
(0.54923294 0.00016133432 0)
(0.54674207 0.00015646415 0)
(0.54427347 0.00015174114 0)
(0.54182633 0.0001470686 0)
(0.53939918 0.00014251325 0)
(0.53699224 0.00013817352 0)
(0.534598 0.00013381131 0)
(0.5322308 0.00013064429 0)
(0.5298281 0.0001253402 0)
(0.52755585 0.00012965097 0)
(0.52491989 0.0001803716 0)
(0.5228907 0.00023694315 0)
(0.5186958 0.00019121192 0)
(0.97653813 0.023526636 0)
(0.98069842 0.029153393 0)
(0.98695556 0.032518491 0)
(0.993573 0.033276976 0)
(0.99938217 0.03181642 0)
(1.003696 0.028882625 0)
(1.0062436 0.025506411 0)
(1.0073985 0.022523456 0)
(1.0077149 0.020237563 0)
(1.0076936 0.018572613 0)
(1.0075957 0.017319445 0)
(1.0074914 0.016319202 0)
(1.0073712 0.015485247 0)
(1.0071903 0.014745629 0)
(1.0068871 0.014072326 0)
(1.0064216 0.013464244 0)
(1.0057483 0.012910533 0)
(1.0048119 0.012387552 0)
(1.0035529 0.011890594 0)
(1.0019177 0.01142403 0)
(0.99977627 0.010983487 0)
(0.99707502 0.010556248 0)
(0.99378884 0.010137285 0)
(0.98989279 0.0097188656 0)
(0.98534295 0.0093027652 0)
(0.98021892 0.0088971058 0)
(0.9745481 0.0085003696 0)
(0.9683559 0.0081110363 0)
(0.96166678 0.0077316642 0)
(0.95450593 0.0073636303 0)
(0.94690296 0.0070037633 0)
(0.93889392 0.0066500506 0)
(0.93051602 0.0063043835 0)
(0.9217981 0.0059672343 0)
(0.91277744 0.0056361508 0)
(0.90349434 0.005309608 0)
(0.89398893 0.004988487 0)
(0.88430841 0.004672852 0)
(0.87450231 0.0043610719 0)
(0.86462193 0.0040520037 0)
(0.85471964 0.0037455853 0)
(0.84484909 0.003441145 0)
(0.83506681 0.0031376465 0)
(0.82543266 0.0028336849 0)
(0.81601046 0.0025314162 0)
(0.80684154 0.0022358596 0)
(0.79792833 0.0019513807 0)
(0.78930158 0.0016789059 0)
(0.78099768 0.0014202968 0)
(0.7730435 0.0011793934 0)
(0.76545192 0.00096034298 0)
(0.75821842 0.00076782743 0)
(0.75131681 0.00060631787 0)
(0.74474262 0.00047505144 0)
(0.73851782 0.00038048511 0)
(0.73244991 0.00033270454 0)
(0.7264426 0.00032669006 0)
(0.72051744 0.00034777978 0)
(0.71469812 0.00039813295 0)
(0.70897624 0.00042937371 0)
(0.7033726 0.00047108321 0)
(0.69789173 0.000506091 0)
(0.69253077 0.00053228364 0)
(0.68728756 0.00054793422 0)
(0.68216398 0.00055372289 0)
(0.67716015 0.0005511489 0)
(0.67227565 0.00054161458 0)
(0.66751143 0.00052699373 0)
(0.66286888 0.00050879138 0)
(0.65834896 0.00048821716 0)
(0.65395302 0.00046630184 0)
(0.64968267 0.00044394251 0)
(0.64553678 0.00042147458 0)
(0.6415144 0.00039932638 0)
(0.63761231 0.00037816921 0)
(0.6338261 0.00035821303 0)
(0.63014933 0.00034036986 0)
(0.62657941 0.000324602 0)
(0.62311334 0.00030981465 0)
(0.61974375 0.00029615873 0)
(0.6164614 0.00028356455 0)
(0.61325878 0.00027207585 0)
(0.61012776 0.00026179986 0)
(0.60706114 0.0002523191 0)
(0.60405267 0.00024362115 0)
(0.60109671 0.00023539855 0)
(0.59818901 0.00022758744 0)
(0.59532539 0.00022009588 0)
(0.59250305 0.00021280837 0)
(0.58971901 0.00020580419 0)
(0.5869714 0.00019896491 0)
(0.58425752 0.00019235373 0)
(0.58157624 0.00018610185 0)
(0.57891924 0.00017987268 0)
(0.57629928 0.0001752531 0)
(0.57365533 0.00016794024 0)
(0.57114245 0.00017201539 0)
(0.56829673 0.00022109987 0)
(0.56605097 0.00027913995 0)
(0.56156502 0.00023464141 0)
(0.97833742 0.022613673 0)
(0.98203939 0.027632809 0)
(0.98758427 0.0307519 0)
(0.99352435 0.031605159 0)
(0.99883148 0.030477557 0)
(1.0028684 0.02799535 0)
(1.0053931 0.025029622 0)
(1.00664 0.022316307 0)
(1.0071225 0.020162548 0)
(1.0072917 0.018544221 0)
(1.0073836 0.01730662 0)
(1.0074639 0.016312306 0)
(1.0075287 0.015479648 0)
(1.0075986 0.014745535 0)
(1.007639 0.014083149 0)
(1.0076256 0.013486622 0)
(1.0075679 0.012946947 0)
(1.0074491 0.01244681 0)
(1.0072441 0.011980951 0)
(1.0069303 0.011550782 0)
(1.0064785 0.011149319 0)
(1.0058508 0.01076484 0)
(1.0050082 0.010394969 0)
(1.0039052 0.010042293 0)
(1.0024633 0.0097040487 0)
(1.0006401 0.0093737676 0)
(0.99840675 0.009046989 0)
(0.99572487 0.0087194639 0)
(0.99257077 0.0083932347 0)
(0.98897098 0.0080714472 0)
(0.98492728 0.007752363 0)
(0.98043942 0.0074345942 0)
(0.97551032 0.0071195403 0)
(0.97014871 0.0068078309 0)
(0.9643637 0.0064973099 0)
(0.95816852 0.0061863624 0)
(0.95157772 0.0058756172 0)
(0.94460893 0.0055649896 0)
(0.93727721 0.0052529698 0)
(0.92960384 0.0049383827 0)
(0.92161809 0.0046212142 0)
(0.91335346 0.0043009115 0)
(0.90484731 0.0039763705 0)
(0.89614616 0.0036463057 0)
(0.88727867 0.0033144285 0)
(0.87838081 0.0029862688 0)
(0.86950104 0.0026656705 0)
(0.86065429 0.0023558255 0)
(0.85187069 0.002059164 0)
(0.84318737 0.0017798106 0)
(0.83464499 0.0015224703 0)
(0.82628295 0.001292728 0)
(0.81813498 0.0010960569 0)
(0.81022322 0.00093171009 0)
(0.80254152 0.00080676272 0)
(0.79518488 0.0007368037 0)
(0.78801485 0.00071305306 0)
(0.78101352 0.000716137 0)
(0.77413372 0.00074644369 0)
(0.7673478 0.00076325645 0)
(0.76068727 0.00078780153 0)
(0.75416053 0.0008061792 0)
(0.74776701 0.00081657912 0)
(0.74151515 0.00081693178 0)
(0.73541646 0.00080799054 0)
(0.72947252 0.00079143636 0)
(0.72368299 0.00076857313 0)
(0.71804995 0.00074120757 0)
(0.71257374 0.00071085088 0)
(0.70725275 0.00067869746 0)
(0.70208604 0.00064571288 0)
(0.69707361 0.00061280374 0)
(0.69221352 0.00058032833 0)
(0.68750339 0.00054872391 0)
(0.68293859 0.00051870363 0)
(0.67851342 0.00049046549 0)
(0.67422145 0.0004648743 0)
(0.67005761 0.00044182769 0)
(0.66601844 0.000420222 0)
(0.66209828 0.00040027054 0)
(0.65828945 0.0003818763 0)
(0.65458506 0.00036504955 0)
(0.65097702 0.00034988243 0)
(0.64745773 0.0003358916 0)
(0.64402031 0.00032304005 0)
(0.64065821 0.00031096643 0)
(0.63736601 0.00029957819 0)
(0.63413831 0.00028875189 0)
(0.63097094 0.00027833998 0)
(0.6278596 0.00026840806 0)
(0.62480098 0.00025881273 0)
(0.62179119 0.00024961117 0)
(0.61882789 0.00024096258 0)
(0.61590186 0.00023242406 0)
(0.61302417 0.00022595216 0)
(0.61013531 0.00021627942 0)
(0.60738011 0.0002197276 0)
(0.60431919 0.00026621539 0)
(0.60186251 0.00032605961 0)
(0.59708449 0.00028039514 0)
(0.9799813 0.021776724 0)
(0.98329205 0.02624809 0)
(0.98820283 0.029132115 0)
(0.99352871 0.030041247 0)
(0.99837654 0.02919335 0)
(1.0021693 0.027114143 0)
(1.0046628 0.024525284 0)
(1.0060088 0.022066762 0)
(1.0066192 0.02004825 0)
(1.0068935 0.018487524 0)
(1.0070633 0.017270891 0)
(1.0072098 0.016283691 0)
(1.007347 0.015452579 0)
(1.0074777 0.014722947 0)
(1.0075895 0.014067409 0)
(1.0076797 0.0134757 0)
(1.0077488 0.01293906 0)
(1.0078164 0.01244373 0)
(1.0078523 0.011985607 0)
(1.0078497 0.011563862 0)
(1.0078169 0.011172073 0)
(1.0077416 0.010802352 0)
(1.0076075 0.010451894 0)
(1.0073979 0.01012147 0)
(1.0070924 0.0098074635 0)
(1.0066643 0.0095043459 0)
(1.0060871 0.0092105811 0)
(1.0053223 0.0089263638 0)
(1.0043202 0.0086497519 0)
(1.0030468 0.0083774275 0)
(1.0014778 0.0081056315 0)
(0.99956876 0.0078314945 0)
(0.99730578 0.0075571157 0)
(0.99469221 0.0072836045 0)
(0.99171775 0.0070090119 0)
(0.98836995 0.0067318995 0)
(0.98463837 0.0064525465 0)
(0.98051347 0.0061703682 0)
(0.97599051 0.0058836568 0)
(0.97106591 0.0055914315 0)
(0.96573527 0.0052936054 0)
(0.95999448 0.004989391 0)
(0.95384015 0.0046772359 0)
(0.94727409 0.0043565858 0)
(0.94028608 0.0040295579 0)
(0.93290912 0.0036975594 0)
(0.92522548 0.0033662966 0)
(0.91728298 0.0030421481 0)
(0.9091219 0.002728887 0)
(0.90078256 0.0024304603 0)
(0.89231325 0.0021513964 0)
(0.88377285 0.0018972778 0)
(0.8752316 0.0016734106 0)
(0.86673981 0.0014806974 0)
(0.85829632 0.0013259022 0)
(0.85009929 0.0012211477 0)
(0.84221294 0.0011647656 0)
(0.83456458 0.0011455409 0)
(0.826987 0.0011554531 0)
(0.81948881 0.0011571311 0)
(0.81210174 0.0011636368 0)
(0.80480851 0.0011643918 0)
(0.79761593 0.0011571698 0)
(0.79055174 0.0011398122 0)
(0.78363402 0.0011136059 0)
(0.7768654 0.0010804805 0)
(0.77025475 0.001041553 0)
(0.76381324 0.00099869189 0)
(0.7575432 0.00095358966 0)
(0.75144441 0.00090740221 0)
(0.74551877 0.000860995 0)
(0.73976766 0.00081531215 0)
(0.73418936 0.00077073753 0)
(0.72878192 0.00072770846 0)
(0.72354097 0.00068697704 0)
(0.71846068 0.00064871178 0)
(0.71353536 0.00061373638 0)
(0.70875975 0.00058188442 0)
(0.70412991 0.00055199758 0)
(0.69964084 0.00052432293 0)
(0.69528626 0.00049874013 0)
(0.69106023 0.0004752439 0)
(0.6869551 0.00045392351 0)
(0.68296328 0.00043423663 0)
(0.67907746 0.00041612465 0)
(0.67529042 0.00039917442 0)
(0.67159577 0.0003832635 0)
(0.66798704 0.00036823471 0)
(0.66445878 0.00035390505 0)
(0.66100544 0.00034032237 0)
(0.65762227 0.00032731333 0)
(0.65430416 0.00031492171 0)
(0.65104753 0.00030333029 0)
(0.64784227 0.00029198495 0)
(0.64469772 0.00028320792 0)
(0.6415557 0.00027077948 0)
(0.63855197 0.00027321572 0)
(0.63526606 0.00031653048 0)
(0.63259716 0.00037901636 0)
(0.62751692 0.00032955024 0)
(0.98148296 0.021001754 0)
(0.98445687 0.024976971 0)
(0.98880708 0.027627732 0)
(0.99357566 0.028569986 0)
(0.99799749 0.027962634 0)
(1.0015528 0.026238302 0)
(1.0039989 0.023992121 0)
(1.0054254 0.021779223 0)
(1.0061576 0.019902377 0)
(1.0065374 0.018409651 0)
(1.0067801 0.017221517 0)
(1.0069734 0.016245338 0)
(1.0071433 0.015417733 0)
(1.0072981 0.0146918 0)
(1.0074375 0.014040607 0)
(1.0075605 0.013452559 0)
(1.0076698 0.012918604 0)
(1.0077687 0.01242741 0)
(1.007852 0.01197385 0)
(1.0079235 0.011554893 0)
(1.0079823 0.011165266 0)
(1.0080405 0.01079837 0)
(1.0080804 0.010452701 0)
(1.0080895 0.010128187 0)
(1.0080774 0.0098209195 0)
(1.0080342 0.0095276012 0)
(1.0079507 0.009246525 0)
(1.0078129 0.0089764345 0)
(1.0076062 0.0087154855 0)
(1.0073106 0.0084610146 0)
(1.006907 0.0082121345 0)
(1.0063629 0.0079680757 0)
(1.0056451 0.0077271032 0)
(1.0047264 0.0074873421 0)
(1.0035865 0.0072457627 0)
(1.0021815 0.0070002268 0)
(1.0005051 0.0067517504 0)
(0.99854223 0.0065003852 0)
(0.9962759 0.0062447721 0)
(0.99368773 0.0059834651 0)
(0.99075776 0.0057160126 0)
(0.98746421 0.0054417216 0)
(0.98378344 0.0051589118 0)
(0.97969011 0.0048671242 0)
(0.9751545 0.0045671237 0)
(0.97013917 0.0042591104 0)
(0.96464167 0.0039479144 0)
(0.95867983 0.003638898 0)
(0.95226926 0.0033359195 0)
(0.94542784 0.0030430686 0)
(0.93818181 0.002764617 0)
(0.9305705 0.0025055315 0)
(0.9226514 0.0022712278 0)
(0.91449378 0.0020652172 0)
(0.90614192 0.0018912979 0)
(0.89772572 0.0017596177 0)
(0.88947388 0.001673083 0)
(0.88141086 0.001622487 0)
(0.87352131 0.0016048163 0)
(0.86576597 0.0015899142 0)
(0.85807188 0.0015816511 0)
(0.85036934 0.0015675479 0)
(0.84271584 0.0015434786 0)
(0.83514912 0.0015087089 0)
(0.82766693 0.0014652977 0)
(0.82028381 0.001414808 0)
(0.81303033 0.0013584409 0)
(0.80592505 0.0012985737 0)
(0.79897175 0.0012371134 0)
(0.79217938 0.0011750827 0)
(0.78555915 0.0011133439 0)
(0.77911568 0.0010530263 0)
(0.77284961 0.00099452017 0)
(0.76676296 0.00093823977 0)
(0.76085439 0.00088501954 0)
(0.75512002 0.00083499716 0)
(0.74955704 0.00078894547 0)
(0.7441622 0.00074666499 0)
(0.73893204 0.00070694974 0)
(0.73386241 0.00067005322 0)
(0.72894848 0.00063582264 0)
(0.72418543 0.00060425017 0)
(0.71956646 0.00057543198 0)
(0.71508446 0.00054877507 0)
(0.71073209 0.00052420665 0)
(0.70650173 0.0005012644 0)
(0.70238639 0.00047979614 0)
(0.69837874 0.00045961032 0)
(0.6944723 0.0004404861 0)
(0.69066039 0.00042245073 0)
(0.68693697 0.00040529635 0)
(0.68329574 0.00038904655 0)
(0.67973188 0.00037390233 0)
(0.67623442 0.00035919425 0)
(0.67281101 0.00034760471 0)
(0.66940453 0.00033197361 0)
(0.66614293 0.00033299154 0)
(0.66261991 0.00037270855 0)
(0.65973278 0.0004388952 0)
(0.65433492 0.00038273403 0)
(0.98285572 0.020277613 0)
(0.98553709 0.023807914 0)
(0.98939448 0.026234744 0)
(0.99366079 0.027194724 0)
(0.99768875 0.026791465 0)
(1.0010118 0.025375832 0)
(1.0033929 0.023439192 0)
(1.0048747 0.021459924 0)
(1.00571 0.019725661 0)
(1.0061877 0.01830694 0)
(1.006504 0.017153884 0)
(1.0067482 0.016194244 0)
(1.0069528 0.015374543 0)
(1.0071315 0.014654571 0)
(1.007289 0.01400881 0)
(1.0074275 0.013424967 0)
(1.0075511 0.012894096 0)
(1.0076634 0.012406149 0)
(1.0077651 0.011955355 0)
(1.0078578 0.011538341 0)
(1.0079438 0.011150232 0)
(1.008024 0.010785594 0)
(1.0080952 0.010442665 0)
(1.0081589 0.010120069 0)
(1.0082159 0.0098147223 0)
(1.008265 0.0095230512 0)
(1.008316 0.0092444012 0)
(1.0083365 0.0089785655 0)
(1.0083412 0.0087225992 0)
(1.008323 0.0084749145 0)
(1.0082749 0.0082347384 0)
(1.0081869 0.0080002392 0)
(1.0080468 0.0077698749 0)
(1.0078395 0.0075422413 0)
(1.0075505 0.007317094 0)