0 	1.9652263e-07 	0.012574252 	0.99994993 	0 	0 	0 	0 	0
0.0021021021 	1.9646119e-07 	0.012667089 	0.99994823 	0 	0 	0 	0 	0
0.0042042042 	1.9639975e-07 	0.012759925 	0.99994653 	0 	0 	0 	0 	0
0.0063063063 	1.9633832e-07 	0.012852762 	0.99994483 	0 	0 	0 	0 	0
0.0084084084 	1.9627688e-07 	0.012945598 	0.99994314 	0 	0 	0 	0 	0
0.010510511 	1.9620528e-07 	0.013052973 	0.99994108 	0 	0 	0 	0 	0
0.012612613 	1.9612737e-07 	0.013169376 	0.99993879 	0 	0 	0 	0 	0
0.014714715 	1.9604946e-07 	0.01328578 	0.99993651 	0 	0 	0 	0 	0
0.016816817 	1.9597154e-07 	0.013402183 	0.99993423 	0 	0 	0 	0 	0
0.018918919 	1.9589363e-07 	0.013518587 	0.99993194 	0 	0 	0 	0 	0
0.021021021 	1.9581318e-07 	0.013638808 	0.99992956 	0 	0 	0 	0 	0
0.023123123 	1.9571567e-07 	0.0137847 	0.99992647 	0 	0 	0 	0 	0
0.025225225 	1.9561816e-07 	0.013930591 	0.99992338 	0 	0 	0 	0 	0
0.027327327 	1.9552066e-07 	0.014076483 	0.99992029 	0 	0 	0 	0 	0
0.029429429 	1.9542315e-07 	0.014222374 	0.9999172 	0 	0 	0 	0 	0
0.031531532 	1.9531985e-07 	0.014377764 	0.99991383 	0 	0 	0 	0 	0
0.033633634 	1.9519962e-07 	0.014560896 	0.99990962 	0 	0 	0 	0 	0
0.035735736 	1.9507939e-07 	0.014744028 	0.99990541 	0 	0 	0 	0 	0
0.037837838 	1.9495916e-07 	0.014927161 	0.9999012 	0 	0 	0 	0 	0
0.03993994 	1.9483893e-07 	0.015110293 	0.99989699 	0 	0 	0 	0 	0
0.042042042 	1.9469541e-07 	0.015336873 	0.99989133 	0 	0 	0 	0 	0
0.044144144 	1.9454969e-07 	0.015567525 	0.99988553 	0 	0 	0 	0 	0
0.046246246 	1.9440398e-07 	0.015798178 	0.99987973 	0 	0 	0 	0 	0
0.048348348 	1.9425726e-07 	0.016031093 	0.99987385 	0 	0 	0 	0 	0
0.05045045 	1.9408421e-07 	0.016323421 	0.9998658 	0 	0 	0 	0 	0
0.052552553 	1.9391115e-07 	0.016615748 	0.99985774 	0 	0 	0 	0 	0
0.054654655 	1.937381e-07 	0.016908076 	0.99984968 	0 	0 	0 	0 	0
0.056756757 	1.9354964e-07 	0.01724573 	0.99983972 	0 	-2.7982578e-38 	0 	0 	0
0.058858859 	1.9334904e-07 	0.017619118 	0.99982827 	0 	-7.8026159e-38 	0 	0 	0
0.060960961 	1.9314844e-07 	0.017992506 	0.99981681 	0 	-1.2806974e-37 	0 	0 	0
0.063063063 	1.9293709e-07 	0.018413096 	0.99980327 	0 	-1.5683598e-37 	0 	0 	0
0.065165165 	1.9271119e-07 	0.018897503 	0.9997869 	0 	-1.5683579e-37 	0 	0 	0
0.067267267 	1.924853e-07 	0.019381909 	0.99977054 	0 	-1.568356e-37 	0 	0 	0
0.069369369 	1.9224809e-07 	0.01995456 	0.99974912 	0 	-1.2155357e-37 	0 	0 	0
0.071471471 	1.9200281e-07 	0.020590127 	0.9997241 	0 	-6.1116071e-38 	0 	0 	0
0.073573574 	1.9175753e-07 	0.021225695 	0.99969908 	0 	-6.78576e-40 	0 	0 	0
0.075675676 	1.9150213e-07 	0.022094538 	0.99966282 	0 	0 	0 	0 	0
0.077777778 	1.9124661e-07 	0.022966029 	0.99962643 	0 	0 	0 	0 	0
0.07987988 	1.9099808e-07 	0.024025265 	0.99957173 	0 	0 	0 	0 	0
0.081981982 	1.9075425e-07 	0.025210725 	0.99950472 	0 	0 	0 	0 	0
0.084084084 	1.9050189e-07 	0.026657168 	0.99942892 	0 	0 	0 	0 	0
0.086186186 	1.9023519e-07 	0.028543238 	0.99933833 	0 	0 	0 	0 	0
0.088288288 	1.9003963e-07 	0.0305942 	0.99921006 	0 	0 	0 	0 	0
0.09039039 	1.9003056e-07 	0.03307727 	0.99898305 	0 	0 	0 	0 	0
0.092492492 	1.769865e-07 	0.038903829 	0.99880201 	0 	0 	0 	0 	0
0.094594595 	1.2957101e-07 	0.053546697 	0.99874218 	0 	0 	0 	0 	0
0.096696697 	8.1326096e-08 	0.064052102 	0.91070612 	0 	0 	-0.0044185501 	-0.00022105294 	0
0.098798799 	3.1443997e-08 	0.066390587 	0.64901415 	0 	0 	-0.017558857 	-0.00087844133 	0
0.1009009 	2.2797539e-09 	0.053317243 	0.38731465 	0 	0 	-0.027571499 	-0.0012636748 	0
0.103003 	7.3931804e-10 	0.019694793 	0.1256051 	0 	0 	-0.033413919 	-0.0012860351 	0
0.10510511 	0 	-0.0038919036 	0 	0 	0 	-0.031757529 	-0.00095791434 	0
0.10720721 	0 	-0.018217024 	0 	0 	0 	-0.023180802 	-0.00030634944 	0
0.10930931 	0 	-0.018683793 	0 	0 	0 	-0.018681236 	-3.0124836e-05 	0
0.11141141 	0 	-0.0097613067 	0 	0 	0 	-0.016944012 	-8.1992535e-06 	0
0.11351351 	0 	-0.0055330972 	0 	0 	0 	-0.015945445 	-5.1083439e-07 	0
0.11561562 	0 	-0.0037649283 	0 	0 	0 	-0.015333972 	-2.8341557e-07 	0
0.11771772 	0 	-0.002616267 	0 	0 	0 	-0.014913706 	-1.8367029e-07 	0
0.11981982 	0 	-0.0017337223 	0 	0 	0 	-0.014575575 	-1.3876867e-07 	0
0.12192192 	0 	-0.0012081928 	0 	0 	0 	-0.014316781 	-1.1323503e-07 	0
0.12402402 	0 	-0.00081768568 	0 	0 	0 	-0.014087993 	-9.5026316e-08 	0
0.12612613 	0 	-0.00050769902 	0 	0 	0 	-0.01389835 	-8.2695339e-08 	0
0.12822823 	0 	-0.00022693824 	0 	0 	0 	-0.013722917 	-7.2497757e-08 	0
0.13033033 	0 	-1.1333857e-05 	0 	0 	0 	-0.013575344 	-6.4449804e-08 	0
0.13243243 	0 	0.00017932828 	0 	0 	0 	-0.013438437 	-5.722474e-08 	0
0.13453453 	0 	0.00033363805 	0 	0 	0 	-0.013320396 	-5.1444572e-08 	0
0.13663664 	0 	0.0004718662 	0 	0 	0 	-0.013210701 	-4.6303598e-08 	0
0.13873874 	0 	0.00058955641 	0 	0 	0 	-0.013113887 	-4.202001e-08 	0
0.14084084 	0 	0.00069586185 	0 	0 	0 	-0.013024213 	-3.8211695e-08 	0
0.14294294 	0 	0.00078989717 	0 	0 	0 	-0.012943315 	-3.4916998e-08 	0
0.14504505 	0 	0.00087477461 	0 	0 	0 	-0.012868965 	-3.2005644e-08 	0
0.14714715 	0 	0.00095252322 	0 	0 	0 	-0.012800368 	-2.9402524e-08 	0
0.14924925 	0 	0.0010225581 	0 	0 	0 	-0.012737997 	-2.713293e-08 	0
0.15135135 	0 	0.0010886022 	0 	0 	0 	-0.012679112 	-2.5036118e-08 	0
0.15345345 	0 	0.0011477214 	0 	0 	0 	-0.012626275 	-2.3239129e-08 	0
0.15555556 	0 	0.0012050257 	0 	0 	0 	-0.012575188 	-2.1522915e-08 	0
0.15765766 	0 	0.0012561744 	0 	0 	0 	-0.012530038 	-2.0080676e-08 	0
0.15975976 	0 	0.0013069334 	0 	0 	0 	-0.012485301 	-1.8656129e-08 	0
0.16186186 	0 	0.001352156 	0 	0 	0 	-0.012446441 	-1.7482992e-08 	0
0.16396396 	0 	0.0013973786 	0 	0 	0 	-0.012407581 	-1.6309855e-08 	0
0.16606607 	0 	0.0014383333 	0 	0 	0 	-0.012373301 	-1.5320892e-08 	-5.8588245e-38
0.16816817 	0 	0.0014786996 	0 	0 	0 	-0.012339652 	-1.4357315e-08 	-1.2525179e-37
0.17027027 	0 	0.0015165125 	0 	0 	0 	-0.012308899 	-1.3503966e-08 	-1.4750808e-37
0.17237237 	0 	0.0015530457 	0 	0 	0 	-0.012279598 	-1.2705862e-08 	-1.475081e-37
0.17447447 	0 	0.0015882921 	0 	0 	0 	-0.01225186 	-1.1963546e-08 	-1.1975196e-37
0.17657658 	0 	0.0016218092 	0 	0 	0 	-0.012226225 	-1.1296208e-08 	-5.4692482e-38
0.17867868 	0 	0.0016549106 	0 	0 	0 	-0.012201086 	-1.0645705e-08 	0
0.18078078 	0 	0.001685819 	0 	0 	0 	-0.012178568 	-1.0084022e-08 	0
0.18288288 	0 	0.0017167273 	0 	0 	0 	-0.012156051 	-9.5223385e-09 	0
0.18498498 	0 	0.0017457188 	0 	0 	0 	-0.012135834 	-9.0352768e-09 	0
0.18708709 	0 	0.0017744068 	0 	0 	0 	-0.012115981 	-8.560033e-09 	0
0.18918919 	0 	0.0018021075 	0 	0 	0 	-0.012097359 	-8.1227093e-09 	0
0.19129129 	0 	0.0018289583 	0 	0 	0 	-0.012079799 	-7.7180305e-09 	0
0.19339339 	0 	0.0018555145 	0 	0 	0 	-0.012062596 	-7.32388e-09 	0
0.1954955 	0 	0.0018807337 	0 	0 	0 	-0.01204702 	-6.9775163e-09 	0
0.1975976 	0 	0.001905953 	0 	0 	0 	-0.012031444 	-6.6311525e-09 	0
0.1996997 	0 	0.0019299998 	0 	0 	0 	-0.012017234 	-6.3234175e-09 	0
0.2018018 	0 	0.001953738 	0 	0 	0 	-0.012003384 	-6.0258501e-09 	0
0.2039039 	0 	0.0019769928 	0 	0 	0 	-0.011990091 	-5.7433932e-09 	0
0.20600601 	0 	0.0019994225 	0 	0 	0 	-0.011977747 	-5.486724e-09 	0
0.20810811 	0 	0.0020218522 	0 	0 	0 	-0.011965404 	-5.2300548e-09 	0
0.21021021 	0 	0.0020432292 	0 	0 	0 	-0.011954266 	-5.0048153e-09 	0
0.21231231 	0 	0.0020645057 	0 	0 	0 	-0.011943244 	-4.7825778e-09 	0
0.21441441 	0 	0.0020853439 	0 	0 	0 	-0.011932711 	-4.5726388e-09 	0
0.21651652 	0 	0.002105578 	0 	0 	0 	-0.011922852 	-4.3796559e-09 	0
0.21861862 	0 	0.0021258121 	0 	0 	0 	-0.011912993 	-4.186673e-09 	0
0.22072072 	0 	0.0021451643 	0 	0 	0 	-0.011904049 	-4.015975e-09 	0
0.22282282 	0 	0.0021644084 	0 	0 	0 	-0.011895216 	-3.8480069e-09 	0
0.22492492 	0 	0.0021833488 	0 	0 	0 	-0.011886677 	-3.6869589e-09 	0
0.22702703 	0 	0.0022016523 	0 	0 	0 	-0.011878753 	-3.5404246e-09 	0
0.22912913 	0 	0.0022199557 	0 	0 	0 	-0.011870829 	-3.3938903e-09 	0
0.23123123 	0 	0.0022376457 	0 	0 	0 	-0.011863481 	-3.2605357e-09 	0
0.23333333 	0 	0.0022550911 	0 	0 	0 	-0.011856363 	-3.1324371e-09 	0
0.23543544 	0 	0.0022724856 	0 	0 	0 	-0.011849292 	-3.0053814e-09 	0
0.23753754 	0 	0.0022891538 	0 	0 	0 	-0.01184289 	-2.8932094e-09 	0
0.23963964 	0 	0.002305822 	0 	0 	0 	-0.011836489 	-2.7810374e-09 	0
0.24174174 	0 	0.0023222242 	0 	0 	0 	-0.011830325 	-2.6740019e-09 	0
0.24384384 	0 	0.0023381791 	0 	0 	0 	-0.011824562 	-2.5755993e-09 	0
0.24594595 	0 	0.002354134 	0 	0 	0 	-0.011818799 	-2.4771967e-09 	0
0.24804805 	0 	0.0023696556 	0 	0 	0 	-0.011813399 	-2.3863872e-09 	0
0.25015015 	0 	0.0023849289 	0 	0 	0 	-0.011808206 	-2.2999252e-09 	0
0.25225225 	0 	0.0024002023 	0 	0 	0 	-0.011803013 	-2.2134631e-09 	0
0.25435435 	0 	0.0024148939 	0 	0 	0 	-0.011798254 	-2.1358977e-09 	0
0.25645646 	0 	0.0024294846 	0 	0 	0 	-0.011793571 	-2.0598733e-09 	0
0.25855856 	0 	0.0024440616 	0 	0 	0 	-0.011788897 	-1.9840373e-09 	0
0.26066066 	0 	0.0024579826 	0 	0 	0 	-0.01178467 	-1.9171594e-09 	0
0.26276276 	0 	0.0024719037 	0 	0 	0 	-0.011780443 	-1.8502815e-09 	0
0.26486486 	0 	0.002485737 	0 	0 	0 	-0.011776273 	-1.784513e-09 	0
0.26696697 	0 	0.0024990264 	0 	0 	0 	-0.011772455 	-1.7256327e-09 	0
0.26906907 	0 	0.0025123158 	0 	0 	0 	-0.011768636 	-1.6667524e-09 	0
0.27117117 	0 	0.0025254824 	0 	0 	0 	-0.011764893 	-1.6093076e-09 	0
0.27327327 	0 	0.0025381719 	0 	0 	0 	-0.011761442 	-1.5574371e-09 	0
0.27537538 	0 	0.0025508613 	0 	0 	0 	-0.01175799 	-1.5055666e-09 	0
0.27747748 	0 	0.0025634239 	0 	0 	0 	-0.011754609 	-1.4550301e-09 	0
0.27957958 	0 	0.0025755276 	0 	0 	0 	-0.011751487 	-1.4093162e-09 	0
0.28168168 	0 	0.0025876313 	0 	0 	0 	-0.011748364 	-1.3636023e-09 	0
0.28378378 	0 	0.002599635 	0 	0 	0 	-0.011745292 	-1.3188204e-09 	0
0.28588589 	0 	0.002611158 	0 	0 	0 	-0.011742465 	-1.2785174e-09 	0
0.28798799 	0 	0.0026226809 	0 	0 	0 	-0.011739638 	-1.2382143e-09 	0
0.29009009 	0 	0.002634165 	0 	0 	0 	-0.01173683 	-1.1982423e-09 	0
0.29219219 	0 	0.0026451257 	0 	0 	0 	-0.011734268 	-1.162723e-09 	0
0.29429429 	0 	0.0026560864 	0 	0 	0 	-0.011731707 	-1.1272036e-09 	0
0.2963964 	0 	0.0026670471 	0 	0 	0 	-0.011729146 	-1.0916842e-09 	0
0.2984985 	0 	0.0026775288 	0 	0 	0 	-0.0117268 	-1.0600205e-09 	0
0.3006006 	0 	0.0026879603 	0 	0 	0 	-0.011724478 	-1.0287606e-09 	0
0.3027027 	0 	0.0026983918 	0 	0 	0 	-0.011722155 	-9.975008e-10 	0
0.3048048 	0 	0.0027084797 	0 	0 	0 	-0.011719978 	-9.6879265e-10 	0
0.30690691 	0 	0.0027184041 	0 	0 	0 	-0.011717869 	-9.4129854e-10 	0
0.30900901 	0 	0.0027283285 	0 	0 	0 	-0.011715761 	-9.1380443e-10 	0
0.31111111 	0 	0.0027380604 	0 	0 	0 	-0.011713727 	-8.8756496e-10 	0
0.31321321 	0 	0.0027474834 	0 	0 	0 	-0.01171181 	-8.6333923e-10 	0
0.31531532 	0 	0.0027569063 	0 	0 	0 	-0.011709894 	-8.3911349e-10 	0
0.31741742 	0 	0.0027663187 	0 	0 	0 	-0.011707982 	-8.1494849e-10 	0
0.31951952 	0 	0.0027752426 	0 	0 	0 	-0.011706239 	-7.9359013e-10 	0
0.32162162 	0 	0.0027841665 	0 	0 	0 	-0.011704497 	-7.7223178e-10 	0
0.32372372 	0 	0.0027930904 	0 	0 	0 	-0.011702754 	-7.5087342e-10 	0
0.32582583 	0 	0.0028017274 	0 	0 	0 	-0.011701103 	-7.3103137e-10 	0
0.32792793 	0 	0.0028101621 	0 	0 	0 	-0.011699516 	-7.1225791e-10 	0
0.33003003 	0 	0.0028185968 	0 	0 	0 	-0.011697929 	-6.9348444e-10 	0
0.33213213 	0 	0.0028269949 	0 	0 	0 	-0.011696353 	-6.748885e-10 	0
0.33423423 	0 	0.0028349544 	0 	0 	0 	-0.011694907 	-6.5841926e-10 	0
0.33633634 	0 	0.0028429138 	0 	0 	0 	-0.01169346 	-6.4195002e-10 	0
0.33843844 	0 	0.0028508733 	0 	0 	0 	-0.011692013 	-6.2548078e-10 	0
0.34054054 	0 	0.0028586053 	0 	0 	0 	-0.011690627 	-6.0999924e-10 	0
0.34264264 	0 	0.0028660998 	0 	0 	0 	-0.011689306 	-5.9554886e-10 	0
0.34474474 	0 	0.0028735943 	0 	0 	0 	-0.011687985 	-5.8109848e-10 	0
0.34684685 	0 	0.0028810888 	0 	0 	0 	-0.011686663 	-5.666481e-10 	0
0.34894895 	0 	0.0028882087 	0 	0 	0 	-0.011685434 	-5.5365562e-10 	0
0.35105105 	0 	0.0028952462 	0 	0 	0 	-0.011684225 	-5.4098373e-10 	0
0.35315315 	0 	0.0029022838 	0 	0 	0 	-0.011683017 	-5.2831183e-10 	0
0.35525526 	0 	0.0029092918 	0 	0 	0 	-0.011681814 	-5.1574216e-10 	0
0.35735736 	0 	0.0029158753 	0 	0 	0 	-0.011680707 	-5.046448e-10 	0
0.35945946 	0 	0.0029224588 	0 	0 	0 	-0.011679599 	-4.9354743e-10 	0
0.36156156 	0 	0.0029290422 	0 	0 	0 	-0.011678491 	-4.8245007e-10 	0
0.36366366 	0 	0.0029355234 	0 	0 	0 	-0.011677403 	-4.7166107e-10 	0
0.36576577 	0 	0.0029416437 	0 	0 	0 	-0.011676386 	-4.6195944e-10 	0
0.36786787 	0 	0.0029477639 	0 	0 	0 	-0.011675369 	-4.5225782e-10 	0
0.36996997 	0 	0.0029538842 	0 	0 	0 	-0.011674352 	-4.425562e-10 	0
0.37207207 	0 	0.002959873 	0 	0 	0 	-0.011673357 	-4.332032e-10 	0
0.37417417 	0 	0.0029655297 	0 	0 	0 	-0.011672421 	-4.2473046e-10 	0
0.37627628 	0 	0.0029711865 	0 	0 	0 	-0.011671485 	-4.1625772e-10 	0
0.37837838 	0 	0.0029768432 	0 	0 	0 	-0.011670549 	-4.0778499e-10 	0
0.38048048 	0 	0.0029823925 	0 	0 	0 	-0.01166963 	-3.9958253e-10 	0
0.38258258 	0 	0.0029876175 	0 	0 	0 	-0.011668767 	-3.9219572e-10 	0
0.38468468 	0 	0.0029928425 	0 	0 	0 	-0.011667903 	-3.8480892e-10 	0
0.38678679 	0 	0.0029980675 	0 	0 	0 	-0.011667039 	-3.7742211e-10 	0
0.38888889 	0 	0.0030032482 	0 	0 	0 	-0.011666183 	-3.7014375e-10 	0
0.39099099 	0 	0.0030080782 	0 	0 	0 	-0.011665384 	-3.6372547e-10 	0
0.39309309 	0 	0.0030129081 	0 	0 	0 	-0.011664585 	-3.5730719e-10 	0
0.3951952 	0 	0.003017738 	0 	0 	0 	-0.011663786 	-3.508889e-10 	0
0.3972973 	0 	0.003022568 	0 	0 	0 	-0.011662987 	-3.4447062e-10 	0
0.3993994 	0 	0.0030270585 	0 	0 	0 	-0.011662237 	-3.387789e-10 	0
0.4015015 	0 	0.0030314974 	0 	0 	0 	-0.011661496 	-3.3319762e-10 	0
0.4036036 	0 	0.0030359364 	0 	0 	0 	-0.011660755 	-3.2761633e-10 	0
0.40570571 	0 	0.0030403753 	0 	0 	0 	-0.011660013 	-3.2203504e-10 	0
0.40780781 	0 	0.0030446083 	0 	0 	0 	-0.011659298 	-3.1682378e-10 	0
0.40990991 	0 	0.0030486451 	0 	0 	0 	-0.011658608 	-3.1196516e-10 	0
0.41201201 	0 	0.0030526818 	0 	0 	0 	-0.011657918 	-3.0710654e-10 	0
0.41411411 	0 	0.0030567186 	0 	0 	0 	-0.011657229 	-3.0224792e-10 	0
0.41621622 	0 	0.0030607401 	0 	0 	0 	-0.011656541 	-2.9741357e-10 	0
0.41831832 	0 	0.0030643784 	0 	0 	0 	-0.011655897 	-2.9318728e-10 	0
0.42042042 	0 	0.0030680168 	0 	0 	0 	-0.011655253 	-2.8896098e-10 	0
0.42252252 	0 	0.0030716551 	0 	0 	0 	-0.011654609 	-2.8473469e-10 	0
0.42462462 	0 	0.0030752935 	0 	0 	0 	-0.011653965 	-2.805084e-10 	0
0.42672673 	0 	0.0030787618 	0 	0 	0 	-0.01165334 	-2.7651983e-10 	0
0.42882883 	0 	0.0030820149 	0 	0 	0 	-0.011652737 	-2.7283225e-10 	0
0.43093093 	0 	0.003085268 	0 	0 	0 	-0.011652134 	-2.6914466e-10 	0
0.43303303 	0 	0.0030885211 	0 	0 	0 	-0.011651532 	-2.6545708e-10 	0
0.43513514 	0 	0.0030917742 	0 	0 	0 	-0.011650929 	-2.6176949e-10 	0
0.43723724 	0 	0.0030947609 	0 	0 	0 	-0.011650353 	-2.5842402e-10 	0
0.43933934 	0 	0.0030976412 	0 	0 	0 	-0.011649788 	-2.5521521e-10 	0
0.44144144 	0 	0.0031005214 	0 	0 	0 	-0.011649222 	-2.520064e-10 	0
0.44354354 	0 	0.0031034017 	0 	0 	0 	-0.011648657 	-2.4879759e-10 	0
0.44564565 	0 	0.003106282 	0 	0 	0 	-0.011648092 	-2.4558878e-10 	0
0.44774775 	0 	0.0031088519 	0 	0 	0 	-0.011647554 	-2.427672e-10 	0
0.44984985 	0 	0.0031113676 	0 	0 	0 	-0.011647022 	-2.4001312e-10 	0
0.45195195 	0 	0.0031138833 	0 	0 	0 	-0.011646489 	-2.3725904e-10 	0
0.45405405 	0 	0.003116399 	0 	0 	0 	-0.011645957 	-2.3450496e-10 	0
0.45615616 	0 	0.0031189148 	0 	0 	0 	-0.011645425 	-2.3175089e-10 	0
0.45825826 	0 	0.0031211234 	0 	0 	0 	-0.011644917 	-2.2934383e-10 	0
0.46036036 	0 	0.0031232759 	0 	0 	0 	-0.011644414 	-2.2700033e-10 	0
0.46246246 	0 	0.0031254283 	0 	0 	0 	-0.011643911 	-2.2465682e-10 	0
0.46456456 	0 	0.0031275808 	0 	0 	0 	-0.011643408 	-2.2231332e-10 	0
0.46666667 	0 	0.0031297332 	0 	0 	0 	-0.011642905 	-2.1996982e-10 	0
0.46876877 	0 	0.0031316374 	0 	0 	0 	-0.011642421 	-2.1783167e-10 	-6.3888616e-38
0.47087087 	0 	0.0031334291 	0 	0 	0 	-0.011641944 	-2.1578667e-10 	-1.5675732e-37
0.47297297 	0 	0.0031352207 	0 	0 	0 	-0.011641468 	-2.1374166e-10 	-2.4962603e-37
0.47507508 	0 	0.0031370124 	0 	0 	0 	-0.011640992 	-2.1169666e-10 	-3.4249474e-37
0.47717718 	0 	0.003138804 	0 	0 	0 	-0.011640516 	-2.0965166e-10 	-4.3536344e-37
0.47927928 	0 	0.0031404637 	0 	0 	0 	-0.011640048 	-2.0781718e-10 	-4.9371287e-37
0.48138138 	0 	0.0031419004 	0 	0 	0 	-0.011639596 	-2.0633858e-10 	-4.9371325e-37
0.48348348 	0 	0.0031433371 	0 	0 	0 	-0.011639144 	-2.0485997e-10 	-4.9371362e-37
0.48558559 	0 	0.0031447738 	0 	0 	0 	-0.011638692 	-2.0338136e-10 	-4.93714e-37
0.48768769 	0 	0.0031462105 	0 	0 	0 	-0.01163824 	-2.0190275e-10 	-4.9371438e-37
0.48978979 	0 	0.0031476471 	0 	0 	0 	-0.011637788 	-2.0042414e-10 	-4.9371475e-37
0.49189189 	0 	0.0031487746 	0 	0 	0 	-0.011637355 	-1.9943549e-10 	-4.1628436e-37
0.49399399 	0 	0.0031498629 	0 	0 	0 	-0.011636925 	-1.9850875e-10 	-3.2906861e-37
0.4960961 	0 	0.0031509512 	0 	0 	0 	-0.011636495 	-1.9758202e-10 	-2.4185287e-37
0.4981982 	0 	0.0031520396 	0 	0 	0 	-0.011636065 	-1.9665528e-10 	-1.5463713e-37
0.5003003 	0 	0.0031531279 	0 	0 	0 	-0.011635635 	-1.9572854e-10 	-6.7421393e-38
0.5024024 	0 	0.0031541395 	0 	0 	0 	-0.011635209 	-1.9591295e-10 	0
0.5045045 	0 	0.0031548897 	0 	0 	0 	-0.011634799 	-1.9988201e-10 	0
0.50660661 	0 	0.00315564 	0 	0 	0 	-0.011634389 	-2.0385107e-10 	0
0.50870871 	0 	0.0031563902 	0 	0 	0 	-0.011633979 	-2.0782014e-10 	0
0.51081081 	0 	0.0031571404 	0 	0 	0 	-0.011633569 	-2.117892e-10 	0
0.51291291 	0 	0.0031578906 	0 	0 	0 	-0.011633158 	-2.1575826e-10 	0
0.51501502 	0 	0.0031585033 	0 	0 	0 	-0.011632755 	-2.7535351e-10 	0
0.51711712 	0 	0.0031588908 	0 	0 	0 	-0.011632364 	-4.260223e-10 	0
0.51921922 	0 	0.0031592783 	0 	0 	0 	-0.011631972 	-5.7669108e-10 	0
0.52132132 	0 	0.0031596658 	0 	0 	0 	-0.011631581 	-7.2735987e-10 	0
0.52342342 	0 	0.0031600533 	0 	0 	0 	-0.011631189 	-8.7802865e-10 	0
0.52552553 	0 	0.0031604409 	0 	0 	0 	-0.011630798 	-1.0286974e-09 	0
0.52762763 	0 	0.0031607246 	0 	0 	0 	-0.011630412 	-1.1328572e-09 	0
0.52972973 	0 	0.0031608011 	0 	0 	0 	-0.011630038 	-1.1441708e-09 	0
0.53183183 	0 	0.0031608777 	0 	0 	0 	-0.011629664 	-1.1554844e-09 	0
0.53393393 	0 	0.0031609542 	0 	0 	0 	-0.011629289 	-1.166798e-09 	0
0.53603604 	0 	0.0031610308 	0 	0 	0 	-0.011628915 	-1.1781116e-09 	0
0.53813814 	0 	0.0031611074 	0 	0 	0 	-0.011628541 	-1.1894252e-09 	0
0.54024024 	0 	0.0031611654 	0 	0 	0 	-0.011628168 	-1.188479e-09 	0
0.54234234 	0 	0.0031610084 	0 	0 	0 	-0.01162781 	-1.0447597e-09 	0
0.54444444 	0 	0.0031608514 	0 	0 	0 	-0.011627452 	-9.0104054e-10 	0
0.54654655 	0 	0.0031606943 	0 	0 	0 	-0.011627094 	-7.5732133e-10 	0
0.54864865 	0 	0.0031605373 	0 	0 	0 	-0.011626736 	-6.1360212e-10 	0
0.55075075 	0 	0.0031603802 	0 	0 	0 	-0.011626378 	-4.6988291e-10 	0
0.55285285 	0 	0.0031602232 	0 	0 	0 	-0.01162602 	-3.2616371e-10 	0
0.55495495 	0 	0.0031598898 	0 	0 	0 	-0.011625672 	-2.5832942e-10 	0
0.55705706 	0 	0.0031594402 	0 	0 	0 	-0.011625329 	-2.4051495e-10 	0
0.55915916 	0 	0.0031589906 	0 	0 	0 	-0.011624987 	-2.2270048e-10 	0
0.56126126 	0 	0.003158541 	0 	0 	0 	-0.011624645 	-2.0488601e-10 	0
0.56336336 	0 	0.0031580913 	0 	0 	0 	-0.011624302 	-1.8707155e-10 	0
0.56546547 	0 	0.0031576417 	0 	0 	0 	-0.01162396 	-1.6925708e-10 	0
0.56756757 	0 	0.0031571921 	0 	0 	0 	-0.011623617 	-1.5144261e-10 	0
0.56966967 	0 	0.0031564464 	0 	0 	0 	-0.011623288 	-1.4866324e-10 	0
0.57177177 	0 	0.0031556645 	0 	0 	0 	-0.011622961 	-1.4771956e-10 	0
0.57387387 	0 	0.0031548826 	0 	0 	0 	-0.011622633 	-1.4677589e-10 	0
0.57597598 	0 	0.0031541008 	0 	0 	0 	-0.011622306 	-1.4583221e-10 	0
0.57807808 	0 	0.0031533189 	0 	0 	0 	-0.011621978 	-1.4488853e-10 	0
0.58018018 	0 	0.003152537 	0 	0 	0 	-0.011621651 	-1.4394485e-10 	0
0.58228228 	0 	0.0031517552 	0 	0 	0 	-0.011621324 	-1.4300118e-10 	0
0.58438438 	0 	0.0031506883 	0 	0 	0 	-0.01162101 	-1.4210788e-10 	0
0.58648649 	0 	0.0031495999 	0 	0 	0 	-0.011620697 	-1.4121838e-10 	0
0.58858859 	0 	0.0031485116 	0 	0 	0 	-0.011620384 	-1.4032888e-10 	0
0.59069069 	0 	0.0031474232 	0 	0 	0 	-0.011620071 	-1.3943938e-10 	0
0.59279279 	0 	0.0031463349 	0 	0 	0 	-0.011619758 	-1.3854988e-10 	0
0.59489489 	0 	0.0031452465 	0 	0 	0 	-0.011619445 	-1.3766038e-10 	0
0.596997 	0 	0.0031441581 	0 	0 	0 	-0.011619132 	-1.3677088e-10 	0
0.5990991 	0 	0.0031428647 	0 	0 	0 	-0.011618829 	-1.359163e-10 	0
0.6012012 	0 	0.0031414848 	0 	0 	0 	-0.01161853 	-1.3507645e-10 	0
0.6033033 	0 	0.0031401048 	0 	0 	0 	-0.011618232 	-1.3423661e-10 	0
0.60540541 	0 	0.0031387248 	0 	0 	0 	-0.011617933 	-1.3339677e-10 	0
0.60750751 	0 	0.0031373449 	0 	0 	0 	-0.011617634 	-1.3255693e-10 	0
0.60960961 	0 	0.0031359649 	0 	0 	0 	-0.011617336 	-1.3171709e-10 	0
0.61171171 	0 	0.0031345849 	0 	0 	0 	-0.011617037 	-1.3087725e-10 	0
0.61381381 	0 	0.0031331501 	0 	0 	0 	-0.011616741 	-1.3004577e-10 	0
0.61591592 	0 	0.0031314873 	0 	0 	0 	-0.011616456 	-1.2924908e-10 	0
0.61801802 	0 	0.0031298244 	0 	0 	0 	-0.011616172 	-1.284524e-10 	0
0.62012012 	0 	0.0031281615 	0 	0 	0 	-0.011615887 	-1.2765571e-10 	0
0.62222222 	0 	0.0031264986 	0 	0 	0 	-0.011615602 	-1.2685903e-10 	0
0.62432432 	0 	0.0031248358 	0 	0 	0 	-0.011615318 	-1.2606234e-10 	0
0.62642643 	0 	0.0031231729 	0 	0 	0 	-0.011615033 	-1.2526566e-10 	0
0.62852853 	0 	0.00312151 	0 	0 	0 	-0.011614748 	-1.2446897e-10 	0
0.63063063 	0 	0.0031197413 	0 	0 	0 	-0.011614469 	-1.2368711e-10 	0
0.63273273 	0 	0.0031178022 	0 	0 	0 	-0.011614198 	-1.2292913e-10 	0
0.63483483 	0 	0.0031158631 	0 	0 	0 	-0.011613927 	-1.2217115e-10 	0
0.63693694 	0 	0.003113924 	0 	0 	0 	-0.011613656 	-1.2141318e-10 	0
0.63903904 	0 	0.0031119849 	0 	0 	0 	-0.011613386 	-1.206552e-10 	0
0.64114114 	0 	0.0031100458 	0 	0 	0 	-0.011613115 	-1.1989722e-10 	0
0.64324324 	0 	0.0031081066 	0 	0 	0 	-0.011612844 	-1.1913924e-10 	0
0.64534535 	0 	0.0031061675 	0 	0 	0 	-0.011612573 	-1.1838126e-10 	0
0.64744745 	0 	0.0031041607 	0 	0 	0 	-0.011612306 	-1.1763254e-10 	0
0.64954955 	0 	0.0031019515 	0 	0 	0 	-0.011612049 	-1.1691145e-10 	0
0.65165165 	0 	0.0030997422 	0 	0 	0 	-0.011611792 	-1.1619037e-10 	0
0.65375375 	0 	0.003097533 	0 	0 	0 	-0.011611535 	-1.1546928e-10 	0
0.65585586 	0 	0.0030953238 	0 	0 	0 	-0.011611278 	-1.147482e-10 	0
0.65795796 	0 	0.0030931145 	0 	0 	0 	-0.01161102 	-1.1402711e-10 	0
0.66006006 	0 	0.0030909053 	0 	0 	0 	-0.011610763 	-1.1330602e-10 	0
0.66216216 	0 	0.0030886961 	0 	0 	0 	-0.011610506 	-1.1258494e-10 	0
0.66426426 	0 	0.0030864868 	0 	0 	0 	-0.011610249 	-1.1186385e-10 	0
0.66636637 	0 	0.0030840736 	0 	0 	0 	-0.011610003 	-1.1117105e-10 	2.4924764e-38
0.66846847 	0 	0.0030816011 	0 	0 	0 	-0.011609759 	-1.1048647e-10 	5.7094185e-38
0.67057057 	0 	0.0030791286 	0 	0 	0 	-0.011609516 	-1.098019e-10 	8.9263607e-38
0.67267267 	0 	0.0030766561 	0 	0 	0 	-0.011609272 	-1.0911732e-10 	1.2143303e-37
0.67477477 	0 	0.0030741837 	0 	0 	0 	-0.011609029 	-1.0843274e-10 	1.5360245e-37
0.67687688 	0 	0.0030717112 	0 	0 	0 	-0.011608786 	-1.0774816e-10 	1.8577187e-37
0.67897898 	0 	0.0030692387 	0 	0 	0 	-0.011608542 	-1.0706358e-10 	2.1794129e-37
0.68108108 	0 	0.0030667662 	0 	0 	0 	-0.011608299 	-1.06379e-10 	2.5011071e-37
0.68318318 	0 	0.0030642937 	0 	0 	0 	-0.011608055 	-1.0569442e-10 	2.8228014e-37
0.68528529 	0 	0.0030615823 	0 	0 	0 	-0.011607824 	-1.0504417e-10 	2.8450225e-37
0.68738739 	0 	0.0030588532 	0 	0 	0 	-0.011607594 	-1.0439646e-10 	2.8450276e-37
0.68948949 	0 	0.0030561241 	0 	0 	0 	-0.011607364 	-1.0374876e-10 	2.8450328e-37
0.69159159 	0 	0.003053395 	0 	0 	0 	-0.011607135 	-1.0310105e-10 	2.8450379e-37
0.69369369 	0 	0.0030506659 	0 	0 	0 	-0.011606905 	-1.0245335e-10 	2.8450431e-37
0.6957958 	0 	0.0030479369 	0 	0 	0 	-0.011606675 	-1.0180564e-10 	2.8450482e-37
0.6978979 	0 	0.0030452078 	0 	0 	0 	-0.011606445 	-1.0115793e-10 	2.8450534e-37
0.7 	0 	0.0030424787 	0 	0 	0 	-0.011606215 	-1.0051023e-10 	2.8450585e-37
0.7021021 	0 	0.0030397496 	0 	0 	0 	-0.011605985 	-9.986252e-11 	2.8450637e-37
0.7042042 	0 	0.0030368499 	0 	0 	0 	-0.011605764 	-9.9240804e-11 	2.641097e-37
0.70630631 	0 	0.0030338747 	0 	0 	0 	-0.011605547 	-9.8630619e-11 	2.3466312e-37
0.70840841 	0 	0.0030308994 	0 	0 	0 	-0.011605331 	-9.8020435e-11 	2.0521655e-37
0.71051051 	0 	0.0030279241 	0 	0 	0 	-0.011605114 	-9.7410251e-11 	1.7576998e-37
0.71261261 	0 	0.0030249488 	0 	0 	0 	-0.011604898 	-9.6800066e-11 	1.463234e-37
0.71471471 	0 	0.0030219735 	0 	0 	0 	-0.011604681 	-9.6189882e-11 	1.1687683e-37
0.71681682 	0 	0.0030189982 	0 	0 	0 	-0.011604464 	-9.5579698e-11 	8.7430254e-38
0.71891892 	0 	0.0030160229 	0 	0 	0 	-0.011604248 	-9.4969514e-11 	5.798368e-38
0.72102102 	0 	0.0030130477 	0 	0 	0 	-0.011604031 	-9.4359329e-11 	2.8537106e-38
0.72312312 	0 	0.0030100652 	0 	0 	0 	-0.011603815 	-9.3750318e-11 	0
0.72522523 	0 	0.0030068591 	0 	0 	0 	-0.011603611 	-9.3178113e-11 	0
0.72732733 	0 	0.003003653 	0 	0 	0 	-0.011603408 	-9.2605908e-11 	0
0.72942943 	0 	0.0030004469 	0 	0 	0 	-0.011603204 	-9.2033703e-11 	0
0.73153153 	0 	0.0029972407 	0 	0 	0 	-0.011603001 	-9.1461497e-11 	0
0.73363363 	0 	0.0029940346 	0 	0 	0 	-0.011602797 	-9.0889292e-11 	0
0.73573574 	0 	0.0029908285 	0 	0 	0 	-0.011602594 	-9.0317087e-11 	0
0.73783784 	0 	0.0029876223 	0 	0 	0 	-0.01160239 	-8.9744882e-11 	0
0.73993994 	0 	0.0029844162 	0 	0 	0 	-0.011602187 	-8.9172677e-11 	0
0.74204204 	0 	0.0029812101 	0 	0 	0 	-0.011601983 	-8.8600472e-11 	0
0.74414414 	0 	0.0029780039 	0 	0 	0 	-0.01160178 	-8.8028267e-11 	0
0.74624625 	0 	0.0029745944 	0 	0 	0 	-0.011601588 	-8.7491049e-11 	0
0.74834835 	0 	0.0029711657 	0 	0 	0 	-0.011601397 	-8.6957142e-11 	0
0.75045045 	0 	0.002967737 	0 	0 	0 	-0.011601206 	-8.6423235e-11 	0
0.75255255 	0 	0.0029643082 	0 	0 	0 	-0.011601016 	-8.5889328e-11 	0
0.75465465 	0 	0.0029608795 	0 	0 	0 	-0.011600825 	-8.5355422e-11 	0
0.75675676 	0 	0.0029574508 	0 	0 	0 	-0.011600634 	-8.4821515e-11 	0
0.75885886 	0 	0.002954022 	0 	0 	0 	-0.011600444 	-8.4287608e-11 	0
0.76096096 	0 	0.0029505933 	0 	0 	0 	-0.011600253 	-8.3753701e-11 	0
0.76306306 	0 	0.0029471645 	0 	0 	0 	-0.011600062 	-8.3219794e-11 	0
0.76516517 	0 	0.0029437358 	0 	0 	0 	-0.011599872 	-8.2685887e-11 	0
0.76726727 	0 	0.0029402387 	0 	0 	0 	-0.011599685 	-8.2163721e-11 	0
0.76936937 	0 	0.0029365863 	0 	0 	0 	-0.011599507 	-8.1668265e-11 	0
0.77147147 	0 	0.0029329338 	0 	0 	0 	-0.011599328 	-8.117281e-11 	0
0.77357357 	0 	0.0029292814 	0 	0 	0 	-0.01159915 	-8.0677354e-11 	0
0.77567568 	0 	0.0029256289 	0 	0 	0 	-0.011598972 	-8.0181899e-11 	0
0.77777778 	0 	0.0029219764 	0 	0 	0 	-0.011598794 	-7.9686443e-11 	0
0.77987988 	0 	0.002918324 	0 	0 	0 	-0.011598616 	-7.9190988e-11 	0
0.78198198 	0 	0.0029146715 	0 	0 	0 	-0.011598438 	-7.8695532e-11 	0
0.78408408 	0 	0.002911019 	0 	0 	0 	-0.01159826 	-7.8200077e-11 	0
0.78618619 	0 	0.0029073666 	0 	0 	0 	-0.011598081 	-7.7704621e-11 	0
0.78828829 	0 	0.0029037141 	0 	0 	0 	-0.011597903 	-7.7209166e-11 	0
0.79039039 	0 	0.0029000252 	0 	0 	0 	-0.011597727 	-7.6720083e-11 	0
0.79249249 	0 	0.0028961549 	0 	0 	0 	-0.011597561 	-7.6262754e-11 	0
0.79459459 	0 	0.0028922846 	0 	0 	0 	-0.011597395 	-7.5805425e-11 	0
0.7966967 	0 	0.0028884144 	0 	0 	0 	-0.011597229 	-7.5348097e-11 	0
0.7987988 	0 	0.0028845441 	0 	0 	0 	-0.011597063 	-7.4890768e-11 	0
0.8009009 	0 	0.0028806738 	0 	0 	0 	-0.011596897 	-7.4433439e-11 	0
0.803003 	0 	0.0028768035 	0 	0 	0 	-0.011596731 	-7.397611e-11 	0
0.80510511 	0 	0.0028729332 	0 	0 	0 	-0.011596565 	-7.3518782e-11 	0
0.80720721 	0 	0.0028690629 	0 	0 	0 	-0.0115964 	-7.3061453e-11 	0
0.80930931 	0 	0.0028651926 	0 	0 	0 	-0.011596234 	-7.2604124e-11 	0
0.81141141 	0 	0.0028613223 	0 	0 	0 	-0.011596068 	-7.2146796e-11 	0
0.81351351 	0 	0.002857452 	0 	0 	0 	-0.011595902 	-7.1689467e-11 	0
0.81561562 	0 	0.0028534919 	0 	0 	0 	-0.011595741 	-7.1249128e-11 	0
0.81771772 	0 	0.0028494244 	0 	0 	0 	-0.011595587 	-7.082908e-11 	0
0.81981982 	0 	0.002845357 	0 	0 	0 	-0.011595433 	-7.0409033e-11 	0
0.82192192 	0 	0.0028412895 	0 	0 	0 	-0.011595279 	-6.9988985e-11 	0
0.82402402 	0 	0.002837222 	0 	0 	0 	-0.011595124 	-6.9568938e-11 	0
0.82612613 	0 	0.0028331545 	0 	0 	0 	-0.01159497 	-6.914889e-11 	0
0.82822823 	0 	0.0028290871 	0 	0 	0 	-0.011594816 	-6.8728843e-11 	0
0.83033033 	0 	0.0028250196 	0 	0 	0 	-0.011594662 	-6.8308796e-11 	0
0.83243243 	0 	0.0028209521 	0 	0 	0 	-0.011594508 	-6.7888748e-11 	0
0.83453453 	0 	0.0028168847 	0 	0 	0 	-0.011594354 	-6.7468701e-11 	0
0.83663664 	0 	0.0028128172 	0 	0 	0 	-0.0115942 	-6.7048653e-11 	0
0.83873874 	0 	0.0028087497 	0 	0 	0 	-0.011594045 	-6.6628606e-11 	0
0.84084084 	0 	0.0028046617 	0 	0 	0 	-0.011593893 	-6.6212992e-11 	0
0.84294294 	0 	0.0028004269 	0 	0 	0 	-0.01159375 	-6.5829031e-11 	0
0.84504505 	0 	0.0027961922 	0 	0 	0 	-0.011593607 	-6.5445069e-11 	0
0.84714715 	0 	0.0027919574 	0 	0 	0 	-0.011593464 	-6.5061107e-11 	0
0.84924925 	0 	0.0027877227 	0 	0 	0 	-0.011593322 	-6.4677146e-11 	0
0.85135135 	0 	0.0027834879 	0 	0 	0 	-0.011593179 	-6.4293184e-11 	0
0.85345345 	0 	0.0027792531 	0 	0 	0 	-0.011593036 	-6.3909222e-11 	0
0.85555556 	0 	0.0027750184 	0 	0 	0 	-0.011592894 	-6.3525261e-11 	0
0.85765766 	0 	0.0027707836 	0 	0 	0 	-0.011592751 	-6.3141299e-11 	0
0.85975976 	0 	0.0027665489 	0 	0 	0 	-0.011592608 	-6.2757337e-11 	0
0.86186186 	0 	0.0027623141 	0 	0 	0 	-0.011592465 	-6.2373376e-11 	0
0.86396396 	0 	0.0027580793 	0 	0 	0 	-0.011592323 	-6.1989414e-11 	0
0.86606607 	0 	0.0027538446 	0 	0 	0 	-0.01159218 	-6.1605453e-11 	0
0.86816817 	0 	0.0027495943 	0 	0 	0 	-0.011592038 	-6.1225471e-11 	0
0.87027027 	0 	0.0027452246 	0 	0 	0 	-0.011591907 	-6.0876134e-11 	0
0.87237237 	0 	0.002740855 	0 	0 	0 	-0.011591775 	-6.0526798e-11 	0
0.87447447 	0 	0.0027364853 	0 	0 	0 	-0.011591643 	-6.0177461e-11 	0
0.87657658 	0 	0.0027321156 	0 	0 	0 	-0.011591511 	-5.9828125e-11 	0
0.87867868 	0 	0.002727746 	0 	0 	0 	-0.01159138 	-5.9478789e-11 	0
0.88078078 	0 	0.0027233763 	0 	0 	0 	-0.011591248 	-5.9129452e-11 	0
0.88288288 	0 	0.0027190066 	0 	0 	0 	-0.011591116 	-5.8780116e-11 	0