/*--------------------------------*- C++ -*----------------------------------*\
| =========                 |                                                 |
| \\      /  F ield         | OpenFOAM: The Open Source CFD Toolbox           |
|  \\    /   O peration     | Version:  2206                                  |
|   \\  /    A nd           | Website:  www.openfoam.com                      |
|    \\/     M anipulation  |                                                 |
\*---------------------------------------------------------------------------*/
FoamFile
{
    version     2.0;
    format      ascii;
    arch        "LSB;label=32;scalar=64";
    class       volScalarField;
    location    "1000";
    object      epsilon;
}
// * * * * * * * * * * * * * * * * * * * * * * * * * * * * * * * * * * * * * //

dimensions      [0 2 -3 0 0 0 0];

internalField   nonuniform List<scalar> 
7480
(
5.7731346
15.518195
18.08106
15.977023
12.853375
10.353109
8.6661275
7.5135179
6.6670363
6.0027607
5.4639607
5.0224751
4.6592939
4.359359
4.1104673
3.9023389
3.7273233
3.5796447
3.4540037
3.3469389
3.253777
3.171854
3.098895
3.0330462
2.9730773
2.917986
2.8670769
2.8196757
2.7751882
2.7331247
2.6932021
2.6552238
2.6189832
2.5843091
2.5510104
2.5189954
2.4880134
2.4580131
2.4289135
2.4006162
2.3730496
2.3461504
2.3198695
2.294174
2.2690251
2.2443945
2.220246
2.196542
2.1732607
2.1503788
2.1278776
2.1057445
2.0839643
2.0625284
2.041422
2.0206346
2.0001572
1.9799765
1.9600803
1.9404596
1.921112
1.9020336
1.8832173
1.8646575
1.8463496
1.8282888
1.8104679
1.7928813
1.7755251
1.7583959
1.7414893
1.7248011
1.7083277
1.6920663
1.6760128
1.660163
1.644513
1.6290592
1.613798
1.5987258
1.583839
1.5691337
1.5546062
1.540252
1.5260671
1.5120461
1.4981842
1.4844738
1.4709096
1.4574771
1.444176
1.430963
1.4178769
1.4047476
1.3918205
1.3784008
1.3655074
1.3506902
1.3388509
1.3163404
0.34594638
1.5986563
2.8403216
3.2970939
3.1718192
2.8633119
2.562163
2.3175957
2.1188472
1.9487657
1.8004054
1.6721671
1.5626651
1.4697153
1.3908881
1.3234969
1.2657423
1.2162569
1.1737185
1.136848
1.1045265
1.0758467
1.0500733
1.0266693
1.0052714
0.98556888
0.96734308
0.95035359
0.93439765
0.91931627
0.90501397
0.89142156
0.87846764
0.8660902
0.85421605
0.8428181
0.83179965
0.82114675
0.81083276
0.80082117
0.79108339
0.78159773
0.77234653
0.76331562
0.75449134
0.74586226
0.7374144
0.72913477
0.7210139
0.71304362
0.70521721
0.69752903
0.6899735
0.68254633
0.67524221
0.66805716
0.66098727
0.65402759
0.64717327
0.64042118
0.63376988
0.62721762
0.62076165
0.61439963
0.60812966
0.60194984
0.59585739
0.58985008
0.58392645
0.57808502
0.57232411
0.56664202
0.56103732
0.5555089
0.55005515
0.54467445
0.53936535
0.53412648
0.52895649
0.52385404
0.51881776
0.51384627
0.5089382
0.50409203
0.4993063
0.49457928
0.48990923
0.48529392
0.48073138
0.47621773
0.47175164
0.46732314
0.46293776
0.45855917
0.45423229
0.44981231
0.44549377
0.44075037
0.43670462
0.42941732
0.010398525
0.06344147
0.16360146
0.28140382
0.3847141
0.47591145
0.55949768
0.63099978
0.68672274
0.72803236
0.75653246
0.77299661
0.77874836
0.77602094
0.76739959
0.75527463
0.74131231
0.72650448
0.71143991
0.69644502
0.6817341
0.667439
0.65361439
0.64031405
0.62757779
0.61539413
0.60381068
0.5927586
0.58218944
0.57206261
0.56236409
0.55307556
0.54417092
0.53562522
0.5274007
0.51949153
0.51184192
0.50445232
0.49730718
0.49038513
0.48366888
0.47714535
0.47080343
0.46463278
0.45862386
0.4527681
0.44705538
0.44147702
0.43602573
0.43069532
0.42548061
0.42037649
0.41537827
0.41048175
0.40568248
0.40097702
0.39636163
0.39183231
0.38738523
0.38301773
0.37872785
0.37451352
0.37037223
0.36630174
0.36230016
0.35836558
0.35449568
0.35068856
0.34694276
0.34325677
0.33962907
0.33605813
0.33254262
0.32908137
0.325673
0.32231614
0.31900954
0.31575205
0.3125425
0.30937979
0.30626278
0.30319039
0.30016152
0.29717504
0.29422985
0.29132473
0.28845848
0.28562968
0.28283691
0.2800782
0.27735203
0.27465436
0.27198502
0.26933154
0.26670382
0.26405521
0.26143575
0.25866312
0.25618271
0.25186514
0.00038680926
0.0025300553
0.0090667453
0.019178128
0.03197846
0.047098014
0.066707177
0.090969701
0.12643664
0.17014458
0.217232
0.2630166
0.30612725
0.34554402
0.38001636
0.40843528
0.43032173
0.44595066
0.45617124
0.46203518
0.46451684
0.46441071
0.46233785
0.45878791
0.45416566
0.44877753
0.44288552
0.43667364
0.43026981
0.4237746
0.41726475
0.41079853
0.40441611
0.39814796
0.39200384
0.38600713
0.38012764
0.37439612
0.36880771
0.36336082
0.35805258
0.35288012
0.34784044
0.34292986
0.33814443
0.33348006
0.32893089
0.32449235
0.32016011
0.31593027
0.31179933
0.30776361
0.30381969
0.2999642
0.29619358
0.29250493
0.28889507
0.28536077
0.28189892
0.27850715
0.27518349
0.27192588
0.26873204
0.26559988
0.26252756
0.2595132
0.25655476
0.25365047
0.25079887
0.24799849
0.24524784
0.24254547
0.23989008
0.23728046
0.2347153
0.23219333
0.22971339
0.22727436
0.22487515
0.22251472
0.22019204
0.2179061
0.2156559
0.21344046
0.21125879
0.20910988
0.2069927
0.20490617
0.20284911
0.20082019
0.198818
0.19684052
0.19488602
0.19295
0.19103171
0.18911677
0.18721082
0.18524612
0.18343482
0.1803568
4.3448406e-05
0.00015092777
0.00053999554
0.0014245469
0.0029126046
0.0049193247
0.0074484988
0.01066436
0.015186646
0.021894295
0.031436092
0.046265993
0.066517725
0.090987255
0.11833075
0.14737083
0.17721031
0.20667243
0.23432389
0.25882248
0.27930509
0.29554734
0.30783678
0.31671088
0.32274783
0.326458
0.32828842
0.32862494
0.32779398
0.32605945
0.32363078
0.32067705
0.31733342
0.31370664
0.30987839
0.30592359
0.30187329
0.29777657
0.2936658
0.28956341
0.28548692
0.28145101
0.27746689
0.2735427
0.26968464
0.26589716
0.26218187
0.25853962
0.25497072
0.2514754
0.24805371
0.24470499
0.24142825
0.23822228
0.23508543
0.23201627
0.22901299
0.2260736
0.22319602
0.22037867
0.21762014
0.21491894
0.21227332
0.20968168
0.20714249
0.2046542
0.20221511
0.19982378
0.19747891
0.1951792
0.19292335
0.19071008
0.18853818
0.18640656
0.18431403
0.18225947
0.1802418
0.17826001
0.1763131
0.17440012
0.17252012
0.17067219
0.16885542
0.16706894
0.16531186
0.16358329
0.16188235
0.16020812
0.1585596
0.15693582
0.15533549
0.15375753
0.1521998
0.1506612
0.14913715
0.14762668
0.14611904
0.14459457
0.14316798
0.14077063
1.9398268e-05
3.2605558e-05
6.8786513e-05
0.00014777508
0.00029784191
0.00054585532
0.00091653797
0.001431178
0.0021232851
0.0030667632
0.0043556362
0.0062478601
0.0090597393
0.013114024
0.019254203
0.028548433
0.041038009
0.056740666
0.075173362
0.095790208
0.11785947
0.14033311
0.16194633
0.18155136
0.1984152
0.21230071
0.22334623
0.23186969
0.23822621
0.2427488
0.2457396
0.2474702
0.24817607
0.24805434
0.24726732
0.24595653
0.24422385
0.24216114
0.23984416
0.23733287
0.23467571
0.23191232
0.22907515
0.2261906
0.22327995
0.22036044
0.21744569
0.21454615
0.21167008
0.20882417
0.20601379
0.20324294
0.20051475
0.19783151
0.19519475
0.19260576
0.19006484
0.18757193
0.18512667
0.18272884
0.18037814
0.17807408
0.17581587
0.17360268
0.17143368
0.16930795
0.16722439
0.16518201
0.1631799
0.16121713
0.15929269
0.15740557
0.15555485
0.15373963
0.15195895
0.15021187
0.14849748
0.14681492
0.14516334
0.14354191
0.14194982
0.14038625
0.13885043
0.13734159
0.13585893
0.13440172
0.13296916
0.1315605
0.13017487
0.12881152
0.12746932
0.12614768
0.12484445
0.12356011
0.12228887
0.12103556
0.11978389
0.11853522
0.11736202
0.11539434
1.5490096e-05
1.8920015e-05
2.6073135e-05
3.9218608e-05
6.143573e-05
9.6692004e-05
0.00015018764
0.00022848144
0.00033975058
0.00049596244
0.00071195705
0.001013373
0.001439927
0.002041578
0.002906892
0.0042023235
0.0061206132
0.0088856365
0.013187362
0.019673542
0.028602939
0.040173041
0.054076738
0.069958336
0.0871688
0.10477409
0.12172479
0.13714738
0.15053932
0.1617691
0.17094268
0.17826308
0.18395346
0.1882338
0.19131349
0.19338809
0.1946226
0.19515973
0.19512293
0.19461617
0.19372644
0.19252642
0.1910769
0.18942877
0.18762432
0.18569867
0.18368109
0.1815955
0.1794615
0.17729534
0.17511041
0.17291776
0.1707264
0.16854373
0.16637574
0.16422735
0.16210242
0.16000384
0.15793383
0.15589414
0.1538862
0.15191109
0.14996939
0.1480615
0.14618768
0.14434794
0.14254196
0.14076949
0.13903023
0.13732377
0.13564962
0.13400721
0.13239596
0.13081531
0.12926461
0.12774319
0.12625041
0.12478561
0.12334814
0.12193736
0.12055261
0.11919325
0.11785863
0.11654811
0.11526106
0.11399682
0.11275477
0.11153424
0.11033455
0.10915508
0.10799487
0.10685362
0.10572935
0.10462323
0.10352943
0.10245507
0.101383
0.10032319
0.099330443
0.097659731
1.4373669e-05
1.5792003e-05
1.8175654e-05
2.1963842e-05
2.76839e-05
3.59624e-05
4.7600215e-05
6.3665456e-05
8.5564572e-05
0.00011530282
0.00015561907
0.00021052177
0.00028613319
0.00039100653
0.00053751795
0.00074645752
0.0010484598
0.0014809552
0.0021196866
0.0030900487
0.0045567512
0.0067109419
0.010188123
0.015408275
0.022667784
0.032087665
0.043464589
0.056435161
0.070364961
0.084413145
0.09775751
0.1098105
0.12029455
0.12917307
0.13653438
0.14251542
0.14726689
0.15094316
0.1536938
0.15565511
0.15694778
0.1576774
0.15793532
0.15780016
0.15733904
0.15660892
0.15565841
0.15452842
0.15325333
0.15186205
0.15037882
0.14882406
0.14721487
0.14556561
0.14388834
0.14219312
0.1404884
0.13878111
0.13707691
0.13538051
0.13369581
0.13202604
0.13037379
0.12874107
0.12712959
0.12554066
0.12397519
0.12243389
0.12091729
0.11942576
0.11795949
0.11651852
0.11510277
0.11371214
0.11234641
0.1110053
0.10968847
0.10839559
0.10712626
0.10588008
0.10465662
0.10345543
0.10227605
0.10111801
0.099980809
0.098863975
0.09776699
0.096689363
0.095630518
0.094590007
0.093567031
0.092561463
0.091571567
0.090598816
0.089637806
0.088696276
0.087758244
0.086836303
0.08597897
0.084527119
1.3817768e-05
1.466325e-05
1.5776712e-05
1.7291736e-05
1.9384985e-05
2.2236907e-05
2.6028677e-05
3.0979548e-05
3.7357464e-05
4.5522145e-05
5.5963893e-05
6.9367697e-05
8.6728868e-05
0.00010947949
0.00013965848
0.00018037311
0.00023644635
0.00031447841
0.00042488154
0.00058482319
0.00082127734
0.0011675426
0.0016986231
0.0025280384
0.0038015447
0.0057884416
0.0089895113
0.013717157
0.020240548
0.028512978
0.038353517
0.049339031
0.060824661
0.072099621
0.082589231
0.091962917
0.10010714
0.10703649
0.1128237
0.11756765
0.12138017
0.12437505
0.12665978
0.12833274
0.12948229
0.13018641
0.13051351
0.13052294
0.13026583
0.12978602
0.1291209
0.12830246
0.12735794
0.12631052
0.12517998
0.12398307
0.12273408
0.1214451
0.12012632
0.11878631
0.11743232
0.11607048
0.11470592
0.1133429
0.11198502
0.11063531
0.10929625
0.10796986
0.10665779
0.10536144
0.10408187
0.10281993
0.10157626
0.10035133
0.099145495
0.097958951
0.096791817
0.095644124
0.09451584
0.093406865
0.09231705
0.091246199
0.090194078
0.089160424
0.088144941
0.087147318
0.086167208
0.085204273
0.084258096
0.08332837
0.082414473
0.081516409
0.080632719
0.079764959
0.078908366
0.078070486
0.077237325
0.076421213
0.07566952
0.074386962
1.3394323e-05
1.4014233e-05
1.4707497e-05
1.5492071e-05
1.6442439e-05
1.7646726e-05
1.9197859e-05
2.1175564e-05
2.3656135e-05
2.6726507e-05
3.0497314e-05
3.5117894e-05
4.0774829e-05
4.7741985e-05
5.6405365e-05
6.7312258e-05
8.1277314e-05
9.9455116e-05
0.00012353527
0.00015611851
0.00020141536
0.00026519037
0.00035740063
0.00049494009
0.00070292416
0.0010214913
0.0015288698
0.0023403723
0.0035951713
0.0056875543
0.0089453414
0.013639937
0.019857327
0.027502767
0.036287284
0.045711774
0.055179395
0.06417353
0.072367851
0.079620075
0.085904474
0.091253721
0.095730688
0.099415146
0.10239286
0.10474792
0.10655962
0.1079007
0.10883656
0.1094252
0.10971744
0.10975773
0.10958463
0.1092315
0.10872717
0.10809637
0.10736046
0.10653781
0.10564415
0.10469291
0.10369554
0.10266186
0.10160022
0.10051775
0.09942048
0.098313629
0.097201617
0.096088151
0.09497637
0.093868935
0.092768078
0.091675657
0.090593197
0.089521965
0.088463003
0.087417144
0.086385054
0.08536726
0.084364163
0.083376058
0.082403144
0.081445543
0.080503305
0.079576421
0.078664828
0.077768428
0.07688707
0.076020594
0.07516876
0.074331416
0.073508125
0.072699012
0.071902898
0.071121332
0.070350258
0.06959666
0.068848772
0.068117347
0.067450719
0.066304228
1.3025419e-05
1.3511841e-05
1.4023596e-05
1.4536756e-05
1.5074754e-05
1.5684369e-05
1.6421189e-05
1.733561e-05
1.8467416e-05
1.9849765e-05
2.151569e-05
2.3500572e-05
2.5866217e-05
2.8683811e-05
3.2044236e-05
3.6071708e-05
4.0941856e-05
4.690452e-05
5.4267766e-05
6.3507756e-05
7.5357988e-05
9.0851969e-05
0.00011157086
0.00014007725
0.00018038686
0.00023868287
0.00032584024
0.00046063909
0.00066870317
0.0010049342
0.0015583099
0.0024431313
0.0039211278
0.0063138839
0.0098797875
0.014749358
0.020881136
0.028064835
0.035896914
0.043874728
0.051552136
0.058637023
0.064988772
0.07056467
0.075374592
0.07945853
0.082874167
0.085686584
0.087961712
0.089763133
0.09115008
0.092176606
0.092891261
0.09333714
0.093552286
0.093569985
0.093419368
0.093125842
0.092711498
0.092195443
0.091594151
0.090921849
0.09019082
0.089411639
0.088593402
0.087743973
0.086870148
0.085977732
0.085071696
0.084156307
0.083235221
0.082311557
0.081387961
0.080466675
0.079549613
0.078638385
0.077734344
0.076838626
0.075952176
0.075075771
0.074210046
0.073355506
0.07251255
0.071681482
0.070862521
0.070055821
0.069261466
0.068479506
0.067709904
0.066952681
0.066207599
0.065474909
0.064753718
0.064045536
0.063347009
0.062664425
0.061988212
0.06132705
0.060730844
0.059697248
1.2695602e-05
1.3083457e-05
1.3486501e-05
1.3872952e-05
1.4242128e-05
1.461383e-05
1.5019654e-05
1.549377e-05
1.6065592e-05
1.6758311e-05
1.7590928e-05
1.85791e-05
1.9742254e-05
2.1103252e-05
2.2689186e-05
2.4533737e-05
2.6681302e-05
2.9186361e-05
3.2157601e-05
3.571037e-05
4.0006914e-05
4.5273992e-05
5.1841579e-05
6.0152484e-05
7.0925903e-05
8.523628e-05
0.00010478345
0.00013247812
0.0001725827
0.00023270909
0.00032669423
0.00047508888
0.00071766184
0.0011259089
0.0017971499
0.0029329878
0.0048196026
0.007694853
0.011690416
0.016790577
0.022823455
0.029442708
0.036219791
0.042779734
0.048877334
0.054389274
0.059270384
0.063520032
0.067165
0.070248213
0.072819801
0.074931896
0.076635597
0.077979123
0.079006968
0.079759455
0.080272802
0.080579283
0.080707468
0.080682481
0.080526299
0.080258119
0.079894689
0.079450593
0.078938494
0.078369409
0.077752932
0.077097369
0.076409896
0.075696726
0.074963235
0.074214071
0.073453236
0.072684171
0.071909848
0.071132821
0.070355281
0.069579105
0.0688059
0.068037031
0.067273657
0.066516754
0.065767138
0.065025491
0.06429237
0.063568232
0.062853438
0.062148287
0.061452973
0.060767721
0.060092512
0.059427735
0.05877279
0.058129148
0.057494128
0.056873312
0.056259155
0.055658206
0.055121808
0.05418449
1.2397029e-05
1.2708232e-05
1.3031973e-05
1.3340646e-05
1.3625634e-05
1.3892346e-05
1.4156091e-05
1.4437122e-05
1.4755683e-05
1.5129655e-05
1.5574226e-05
1.6101603e-05
1.6722616e-05
1.7447965e-05
1.8289025e-05
1.9258523e-05
2.0371816e-05
2.1645852e-05
2.310998e-05
2.4800566e-05
2.6762934e-05
2.9056354e-05
3.1754217e-05
3.5002524e-05
3.8968269e-05
4.3886337e-05
5.0106385e-05
5.814899e-05
6.8791017e-05
8.3277781e-05
0.00010377886
0.00013365796
0.00017870151
0.00024979376
0.00036402889
0.00055361829
0.00087960897
0.0014276474
0.0023752717
0.0039719501
0.0064331357
0.0098684593
0.01426726
0.019468733
0.025158147
0.030967274
0.036589362
0.041829386
0.046587493
0.050823766
0.054534719
0.057740186
0.060473344
0.062773662
0.064682842
0.066242186
0.067491117
0.068466342
0.069201461
0.069726837
0.070069628
0.070253996
0.070301327
0.070230493
0.070058067
0.069798592
0.069464828
0.069067931
0.068617632
0.068122414
0.067589673
0.067025858
0.066436577
0.065826696
0.065200449
0.064561513
0.063913081
0.063257918
0.06259842
0.061936658
0.061274416
0.060613233
0.059954425
0.059299121
0.058648281
0.058002724
0.057363135
0.056730105
0.0561041
0.055485577
0.054874764
0.054272214
0.053677623
0.053092445
0.052514637
0.051949121
0.051390175
0.050842372
0.050358029
0.049504867
1.2122528e-05
1.2374006e-05
1.2636298e-05
1.2888062e-05
1.311974e-05
1.3330846e-05
1.3527809e-05
1.3721224e-05
1.3923087e-05
1.4145386e-05
1.4399515e-05
1.4695598e-05
1.5042405e-05
1.5447686e-05
1.5918656e-05
1.64624e-05
1.7086374e-05
1.7798275e-05
1.8608283e-05
1.9529652e-05
2.057875e-05
2.1776242e-05
2.3145437e-05
2.4725712e-05
2.656734e-05
2.8735003e-05
3.1309286e-05
3.4438506e-05
3.8323335e-05
4.3232311e-05
4.960037e-05
5.8041743e-05
6.9544522e-05
8.585824e-05
0.00010979513
0.0001461559
0.00020423381
0.00029898596
0.00045937486
0.0007410785
0.0012225282
0.0020776322
0.0035231588
0.0057513494
0.0088347549
0.012753634
0.017338323
0.022295745
0.027312707
0.03214644
0.036648693
0.04074314
0.044398543
0.047612686
0.050401899
0.052792957
0.054817884
0.056510652
0.057905097
0.059033657
0.059926667
0.060612028
0.061115082
0.061458656
0.061663146
0.061746689
0.061725374
0.061613419
0.061423353
0.06116619
0.060851609
0.060488106
0.06008313
0.059643192
0.059173997
0.05868053
0.058167154
0.057637675
0.057095419
0.056543284
0.055983796
0.055419151
0.054851258
0.054281774
0.053712131
0.053143572
0.052577164
0.052013839
0.051454375
0.050899506
0.050349731
0.049805799
0.049267715
0.048736952
0.048212058
0.047697389
0.047188822
0.04668922
0.046251281
0.045473371
1.1866e-05
1.2070936e-05
1.2285103e-05
1.2492512e-05
1.2684749e-05
1.2859415e-05
1.3018896e-05
1.3168484e-05
1.3314659e-05
1.3464412e-05
1.3625077e-05
1.3803929e-05
1.4007849e-05
1.4243157e-05
1.4515641e-05
1.4830674e-05
1.5193341e-05
1.5608534e-05
1.6081472e-05
1.6618233e-05
1.722603e-05
1.7913682e-05
1.8691119e-05
1.9571849e-05
2.057374e-05
2.1719847e-05
2.3037003e-05
2.4566418e-05
2.6366163e-05
2.8511303e-05
3.1099093e-05
3.4313911e-05
3.8393693e-05
4.3700574e-05
5.0794597e-05
6.0502692e-05
7.4354249e-05
9.4844602e-05
0.00012632355
0.00017740682
0.00026196062
0.00040863505
0.00067162816
0.0011263099
0.0019562949
0.0033490948
0.0054561608
0.0083287424
0.011913857
0.016021759
0.02038081
0.024734017
0.028898166
0.032765243
0.036279591
0.03941947
0.042185646
0.044592809
0.04666352
0.04842438
0.049903484
0.051128819
0.052127252
0.052923986
0.053542256
0.054003223
0.05432601
0.054527791
0.054623902
0.054627989
0.054552155
0.054407119
0.054202352
0.053946199
0.053646014
0.053308271
0.052938662
0.05254219
0.052123249
0.051685697
0.051232913
0.050767863
0.050293139
0.049811013
0.049323468
0.048832238
0.048338835
0.047844588
0.047350637
0.04685803
0.046367577
0.045880259
0.045396405
0.044917548
0.044442796
0.043976034
0.043514534
0.043059759
0.042664167
0.041955001
1.1622736e-05
1.1791215e-05
1.1967532e-05
1.2139777e-05
1.230098e-05
1.2448294e-05
1.2582353e-05
1.2705882e-05
1.282239e-05
1.2935725e-05
1.3050108e-05
1.3170058e-05
1.330024e-05
1.3445312e-05
1.360981e-05
1.3798083e-05
1.4014216e-05
1.4262052e-05
1.4545315e-05
1.486781e-05
1.5233611e-05
1.564732e-05
1.6114053e-05
1.6639896e-05
1.7232434e-05
1.7901329e-05
1.8657976e-05
1.9517283e-05
2.0499547e-05
2.1631559e-05
2.2944987e-05
2.449122e-05
2.6340076e-05
2.8585068e-05
3.1364019e-05
3.491413e-05
3.956411e-05
4.5835171e-05
5.4490212e-05
6.697378e-05
8.5636216e-05
0.00011476957
0.00016302101
0.00024401909
0.00038913593
0.00065151825
0.0011250018
0.0019829532
0.0033914716
0.0054575645
0.0082033891
0.011535098
0.015246117
0.019094285
0.02287913
0.026468695
0.029787104
0.032796086
0.035482728
0.037850786
0.039914159
0.041692557
0.043208578
0.044485812
0.045547609
0.046416337
0.047112966
0.047656864
0.048065729
0.048355593
0.048540891
0.048634561
0.048648157
0.048591957
0.048475089
0.048305646
0.048090791
0.047836857
0.047549438
0.047233472
0.046893312
0.046532795
0.0461553
0.045763801
0.045360912
0.044948936
0.044529893
0.044105569
0.043677517
0.043247152
0.042815634
0.042384213
0.041953565
0.04152533
0.041099148
0.04067854
0.040261988
0.039849864
0.039493807
0.038848733
1.1389261e-05
1.1528955e-05
1.1675313e-05
1.1819455e-05
1.1955721e-05
1.2081292e-05
1.2195987e-05
1.2301252e-05
1.2399122e-05
1.24918e-05
1.2581673e-05
1.2671337e-05
1.2763602e-05
1.2861466e-05
1.2968075e-05
1.308665e-05
1.3220375e-05
1.3372342e-05
1.3545551e-05
1.3742931e-05
1.3967399e-05
1.4221971e-05
1.4509835e-05
1.4834463e-05
1.5199817e-05
1.5610639e-05
1.6072514e-05
1.6592196e-05
1.7178257e-05
1.7841865e-05
1.8596322e-05
1.9459849e-05
2.0457297e-05
2.1621117e-05
2.2993914e-05
2.464268e-05
2.6659575e-05
2.9167313e-05
3.2392182e-05
3.6659273e-05
4.2470465e-05
5.0593601e-05
6.2502518e-05
8.0519102e-05
0.00010938715
0.00015785935
0.0002421198
0.00039746254
0.00067859817
0.0012053853
0.002136442
0.0036101785
0.0056901574
0.0083554294
0.011469454
0.014824624
0.018220333
0.021509706
0.024601306
0.027443673
0.030012665
0.032302711
0.0343201
0.036078312
0.037594854
0.038889138
0.039981103
0.040890348
0.041635595
0.042234383
0.042702916
0.043056014
0.043307128
0.043468394
0.04355071
0.04356383
0.043516461
0.043416357
0.043270413
0.043084749
0.042864794
0.042615357
0.042340695
0.042044575
0.041730324
0.041400888
0.041058864
0.040706559
0.040345997
0.039979009
0.039607147
0.03923198
0.038854553
0.038476663
0.038098467
0.037723221
0.037350461
0.03697977
0.036661433
0.036077276
1.1163057e-05
1.1279827e-05
1.1402281e-05
1.1523785e-05
1.1639787e-05
1.1747669e-05
1.1846828e-05
1.193799e-05
1.20224e-05
1.2101431e-05
1.2176532e-05
1.2249226e-05
1.2321142e-05
1.2394054e-05
1.246991e-05
1.2550829e-05
1.2639039e-05
1.2736828e-05
1.2846515e-05
1.2970415e-05
1.3110823e-05
1.3270034e-05
1.3450371e-05
1.3654233e-05
1.388416e-05
1.4142955e-05
1.4433785e-05
1.4760285e-05
1.5126763e-05
1.5538566e-05
1.6002099e-05
1.6525387e-05
1.7118875e-05
1.7796077e-05
1.8573954e-05
1.9476119e-05
2.0535266e-05
2.1791942e-05
2.3311105e-05
2.518546e-05
2.7540396e-05
3.0590256e-05
3.4681853e-05
4.0317916e-05
4.834854e-05
6.0298978e-05
7.8802387e-05
0.00010942764
0.00016164389
0.00025634891
0.00043316215
0.00076181781
0.001379646
0.0024264524
0.0039957969
0.0061134822
0.0087043431
0.011603311
0.014622488
0.017609116
0.020461295
0.023117798
0.0255458
0.027732143
0.029676675
0.031387445
0.032877415
0.034162217
0.035258659
0.036183738
0.036954015
0.037585235
0.038092116
0.038488241
0.038786036
0.038996784
0.039130684
0.039196908
0.039203686
0.039158378
0.039067559
0.038937084
0.03877217
0.038577452
0.038357049
0.03811462
0.037853411
0.03757631
0.03728587
0.036984394
0.036673871
0.036356236
0.036032935
0.035705971
0.035376009
0.035046142
0.034716823
0.034387129
0.034105521
0.033580327
1.0942313e-05
1.1040674e-05
1.11439e-05
1.124702e-05
1.1346399e-05
1.143969e-05
1.1526078e-05
1.1605834e-05
1.1679715e-05
1.1748626e-05
1.1813526e-05
1.1875397e-05
1.1935236e-05
1.1994097e-05
1.205313e-05
1.211362e-05
1.2176976e-05
1.2244717e-05
1.2318469e-05
1.2399932e-05
1.2490852e-05
1.2593e-05
1.2708169e-05
1.2838184e-05
1.2984911e-05
1.3150301e-05
1.3336445e-05
1.3545624e-05
1.378039e-05
1.404371e-05
1.4339055e-05
1.4670559e-05
1.5043312e-05
1.5463708e-05
1.5939647e-05
1.6481283e-05
1.7102244e-05
1.7819437e-05
1.8656345e-05
1.9646038e-05
2.0831224e-05
2.2275628e-05
2.4077229e-05
2.6365421e-05
2.9370685e-05
3.3459812e-05
3.9185632e-05
4.7547732e-05
6.0215886e-05
8.0522966e-05
0.00011499361
0.00017574384
0.0002905461
0.00050427218
0.00091838213
0.0016642085
0.0028528062
0.0045360093
0.0066854936
0.0091784049
0.01184761
0.014542461
0.017155624
0.019619274
0.021894207
0.023961371
0.025815408
0.027459847
0.028903772
0.030159511
0.031241061
0.032163037
0.032939983
0.033585943
0.034114194
0.034537105
0.034866078
0.035111539
0.035282961
0.035388912
0.035437114
0.035434502
0.035387295
0.035301053
0.035180746
0.03503081
0.034855196
0.034657437
0.034440669
0.034207719
0.033961065
0.03370305
0.033435558
0.033160849
0.032880096
0.032596321
0.032310786
0.032022317
0.031777137
0.031309985
1.0725746e-05
1.0809208e-05
1.0896844e-05
1.0984917e-05
1.1070543e-05
1.1151669e-05
1.1227392e-05
1.1297693e-05
1.1362994e-05
1.1423889e-05
1.1481048e-05
1.1535155e-05
1.1586889e-05
1.1636929e-05
1.1685984e-05
1.1734828e-05
1.1784307e-05
1.1835358e-05
1.188902e-05
1.1946429e-05
1.2008803e-05
1.2077426e-05
1.2153634e-05
1.223881e-05
1.2334374e-05
1.2441791e-05
1.2562589e-05
1.2698381e-05
1.2850896e-05
1.3022035e-05
1.321393e-05
1.3429011e-05
1.367012e-05
1.3940671e-05
1.4244786e-05
1.4587517e-05
1.4975326e-05
1.5416244e-05
1.5920591e-05
1.6502274e-05
1.7179167e-05
1.7975275e-05
1.8925435e-05
2.0074522e-05
2.1491046e-05
2.3280591e-05
2.558141e-05
2.8666745e-05
3.2932173e-05
3.9052123e-05
4.8200476e-05
6.2438088e-05
8.628819e-05
0.00012756496
0.00020454452
0.00035122227
0.0006355384
0.0011738156
0.0020810533
0.003425013
0.005210937
0.007352886
0.0097070786
0.012130223
0.014513786
0.016786272
0.018904273
0.020844492
0.022597582
0.024163468
0.025548028
0.026760771
0.02781324
0.02871792
0.029487522
0.030134507
0.030670798
0.031107604
0.031455339
0.031723583
0.031921093
0.032055826
0.032134986
0.03216507
0.032151921
0.032100791
0.032016385
0.031902922
0.031764176
0.031603542
0.031424032
0.031228447
0.03101914
0.03079868
0.030568754
0.0303324
0.0300916
0.029845164
0.029636704
0.029227575
1.0512467e-05
1.0583777e-05
1.065868e-05
1.0734352e-05
1.0808513e-05
1.0879403e-05
1.0946112e-05
1.1008439e-05
1.1066573e-05
1.1120885e-05
1.1171838e-05
1.1219933e-05
1.1265664e-05
1.1309516e-05
1.135197e-05
1.1393528e-05
1.1434714e-05
1.1476099e-05
1.1518317e-05
1.1562076e-05
1.1608161e-05
1.1657428e-05
1.17108e-05
1.1769263e-05
1.1833857e-05
1.1905672e-05
1.1985847e-05
1.207558e-05
1.2176133e-05
1.2288851e-05
1.2415193e-05
1.255676e-05
1.2715345e-05
1.2893002e-05
1.3092125e-05
1.3315541e-05
1.3566691e-05
1.3849783e-05
1.4170007e-05
1.4534018e-05
1.4950282e-05
1.5429606e-05
1.5986716e-05
1.6640594e-05
1.7417072e-05
1.8354186e-05
1.9499635e-05
2.0933132e-05
2.2770498e-05
2.5174464e-05
2.8474644e-05
3.3127921e-05
4.0014216e-05
5.0539371e-05
6.7734076e-05
9.7334642e-05
0.00015136
0.00025572847
0.00045693428
0.00085347189
0.001555107
0.0026388907
0.0041314025
0.005976748
0.0080540278
0.010230355
0.012399248
0.014488025
0.016450999
0.018262134
0.019909232
0.021389464
0.022706141
0.023866435
0.02487979
0.025756831
0.026508627
0.027146204
0.027680236
0.02812085
0.028477521
0.028759023
0.028973416
0.02912806
0.029229643
0.029284222
0.02929727
0.02927372
0.029218011
0.029134147
0.02902571
0.028895999
0.02874787
0.028584249
0.028407343
0.028220291
0.028025723
0.02782264
0.027651718
0.027301389
1.030188e-05
1.0363208e-05
1.0427639e-05
1.0493022e-05
1.0557564e-05
1.0619775e-05
1.0678791e-05
1.0734304e-05
1.0786343e-05
1.0835115e-05
1.088093e-05
1.092415e-05
1.0965147e-05
1.1004289e-05
1.1041933e-05
1.1078439e-05
1.1114162e-05
1.1149474e-05
1.118477e-05
1.1220488e-05
1.1257111e-05
1.1295176e-05
1.1335277e-05
1.1378068e-05
1.1424259e-05
1.1474614e-05
1.1529953e-05
1.1591147e-05
1.1659125e-05
1.1734872e-05
1.1819442e-05
1.1913971e-05
1.2019694e-05
1.2137979e-05
1.2270364e-05
1.2418599e-05
1.2584729e-05
1.2771171e-05
1.2980822e-05
1.3217232e-05
1.3484812e-05
1.3789042e-05
1.4137003e-05
1.4537751e-05
1.5002928e-05
1.5548699e-05
1.6195444e-05
1.6972479e-05
1.7922216e-05
1.9098754e-05
2.0598118e-05
2.2549113e-05
2.5176292e-05
2.8848673e-05
3.4206176e-05
4.2327955e-05
5.5283083e-05
7.7466019e-05
0.00011707637
0.00019396891
0.00034207817
0.00064126931
0.0011925916
0.0020789493
0.0033384442
0.00493747
0.0067755086
0.0087314666
0.01070333
0.012619277
0.014432936
0.016116792
0.017656787
0.019048096
0.02029205
0.021393928
0.02236142
0.023203551
0.023929951
0.024550367
0.025074339
0.025510999
0.025868951
0.026156205
0.026380159
0.026547598
0.026664715
0.026737142
0.026769985
0.026767873
0.026734979
0.026675129
0.026591709
0.026488042
0.026366866
0.026231492
0.026085142
0.025927194
0.025795088
0.025505055
1.0093608e-05
1.0146681e-05
1.020244e-05
1.0259237e-05
1.0315661e-05
1.0370469e-05
1.0422867e-05
1.0472498e-05
1.0519281e-05
1.0563305e-05
1.0604764e-05
1.0643911e-05
1.0681026e-05
1.0716393e-05
1.0750291e-05
1.0782994e-05
1.0814771e-05
1.0845887e-05
1.0876611e-05
1.0907228e-05
1.0938043e-05
1.0969389e-05
1.1001634e-05
1.1035187e-05
1.1070505e-05
1.1108087e-05
1.1148487e-05
1.1192308e-05
1.1240202e-05
1.1292876e-05
1.1351092e-05
1.1415669e-05
1.1487495e-05
1.1567534e-05
1.1656845e-05
1.1756606e-05
1.1868145e-05
1.1992981e-05
1.2132878e-05
1.2289923e-05
1.2466623e-05
1.2666019e-05
1.2891882e-05
1.3148939e-05
1.3443093e-05
1.378211e-05
1.4175825e-05
1.4637224e-05
1.5184453e-05
1.5840281e-05
1.6639537e-05
1.7629154e-05
1.8879791e-05
2.0501163e-05
2.2655752e-05
2.5643885e-05
2.9940963e-05
3.6436482e-05
4.6599649e-05
6.3843119e-05
9.4202075e-05
0.0001527297
0.00026711975
0.00049948701
0.00094216161
0.0016787108
0.0027541172
0.0041505962
0.0057844265
0.0075461535
0.0093396567
0.011095502
0.012767908
0.014328927
0.015763471
0.017065381
0.018234518
0.019274676
0.020192108
0.020994489
0.021690207
0.022287881
0.022796036
0.023222898
0.023576269
0.023863454
0.024091231
0.024265844
0.024393017
0.024477982
0.024525494
0.024539918
0.02452518
0.024485029
0.024422741
0.02434186
0.024246151
0.024135538
0.024043934
0.023816338
9.8874391e-06
9.93364e-06
9.9821724e-06
1.0031763e-05
1.0081302e-05
1.0129763e-05
1.0176434e-05
1.0220944e-05
1.0263145e-05
1.0303041e-05
1.0340737e-05
1.0376406e-05
1.0410249e-05
1.0442485e-05
1.0473334e-05
1.0503015e-05
1.053174e-05
1.0559715e-05
1.0587143e-05
1.0614227e-05
1.0641174e-05
1.0668203e-05
1.0695545e-05
1.0723455e-05
1.0752215e-05
1.0782138e-05
1.0813575e-05
1.0846916e-05
1.0882597e-05
1.0921098e-05
1.0962948e-05
1.1008724e-05
1.1059055e-05
1.1114629e-05
1.1176199e-05
1.1244588e-05
1.1320712e-05
1.1405592e-05
1.1500384e-05
1.1606414e-05
1.172523e-05
1.1858654e-05
1.2008874e-05
1.2178559e-05
1.2370969e-05
1.2590213e-05
1.2841451e-05
1.3131208e-05
1.3468193e-05
1.386336e-05
1.4331862e-05
1.4893966e-05
1.5577633e-05
1.6423684e-05
1.7487779e-05
1.886185e-05
2.068014e-05
2.31727e-05
2.6724416e-05
3.2066267e-05
4.0337984e-05
5.4170459e-05
7.8452094e-05
0.00012478307
0.00021615454
0.00040250086
0.00076697377
0.0013905762
0.0023216838
0.0035530667
0.0050141696
0.0066062683
0.0082398657
0.0098490029
0.011389472
0.01283372
0.014166316
0.015380311
0.016474544
0.017451681
0.01831682
0.019076515