/*--------------------------------*- C++ -*----------------------------------*\
| =========                 |                                                 |
| \\      /  F ield         | OpenFOAM: The Open Source CFD Toolbox           |
|  \\    /   O peration     | Version:  2206                                  |
|   \\  /    A nd           | Website:  www.openfoam.com                      |
|    \\/     M anipulation  |                                                 |
\*---------------------------------------------------------------------------*/
FoamFile
{
    version     2.0;
    format      ascii;
    arch        "LSB;label=32;scalar=64";
    class       volScalarField;
    location    "1000";
    object      k;
}
// * * * * * * * * * * * * * * * * * * * * * * * * * * * * * * * * * * * * * //

dimensions      [0 2 -2 0 0 0 0];

internalField   nonuniform List<scalar> 
7480
(
0.03217585
0.062203708
0.068876549
0.063423874
0.054861429
0.047493738
0.042183182
0.038354673
0.035416967
0.033023536
0.031016633
0.029322535
0.027891365
0.026681167
0.025655701
0.024782196
0.024035576
0.023396441
0.022845732
0.022371155
0.021954072
0.021584005
0.02125174
0.020949609
0.020672549
0.020416378
0.020178216
0.019955195
0.019744742
0.019544719
0.019353926
0.019171547
0.0189967
0.018828655
0.018666567
0.01851006
0.018357971
0.018210098
0.01806609
0.017925498
0.017788006
0.017653327
0.017521247
0.017391625
0.017264292
0.017139125
0.017015964
0.016894635
0.016775044
0.016657087
0.016540684
0.016425785
0.016312325
0.016200271
0.01608956
0.015980148
0.015872001
0.015765059
0.015659269
0.015554592
0.015451027
0.015348561
0.015247167
0.015146824
0.015047515
0.014949226
0.014851924
0.014755588
0.014660205
0.014565763
0.014472249
0.014379645
0.014287939
0.014197124
0.014107185
0.014018104
0.013929867
0.013842462
0.013755875
0.013670092
0.013585098
0.01350088
0.01341742
0.013334701
0.013252704
0.013171405
0.01309078
0.013010793
0.012931415
0.012852567
0.012774251
0.012696216
0.012618693
0.012540674
0.012463618
0.012383374
0.012306031
0.012216846
0.012145352
0.012008831
0.0025327267
0.009558906
0.016653986
0.020686318
0.021734013
0.021463732
0.020827696
0.020177613
0.019543527
0.018913408
0.018303114
0.017737663
0.017231111
0.016785581
0.016397843
0.016055034
0.015756185
0.015499728
0.015280189
0.015089102
0.014920135
0.014767539
0.014626677
0.01449499
0.014371372
0.014254448
0.01414388
0.014037718
0.013934658
0.013833918
0.013735546
0.013639534
0.013545653
0.01345374
0.013363257
0.013274474
0.013186215
0.013099008
0.013012764
0.012927241
0.012842308
0.012757917
0.012674067
0.012590747
0.012507945
0.012425668
0.012343837
0.012262411
0.01218138
0.012100735
0.012020498
0.011940678
0.011861284
0.011782336
0.011703821
0.011625761
0.011548157
0.011470994
0.011394253
0.011317944
0.011242099
0.011166736
0.011091857
0.011017465
0.010943575
0.010870191
0.010797304
0.010724914
0.010653032
0.010581663
0.010510811
0.010440474
0.010370657
0.010301368
0.010232604
0.010164362
0.010096643
0.010029445
0.0099627682
0.0098966103
0.009830969
0.0097658413
0.0097012229
0.0096371086
0.0095734921
0.0095103647
0.0094477161
0.0093855324
0.0093237968
0.0092624842
0.0092015684
0.0091409931
0.0090807295
0.0090206019
0.0089606768
0.008900251
0.0088399036
0.0087765055
0.0087200218
0.0086179217
0.00022385715
0.00057436104
0.0013098388
0.0026325999
0.0042085639
0.0058220501
0.0072757562
0.0085098795
0.0095737481
0.01050125
0.011296822
0.011955756
0.012482194
0.012893492
0.013213154
0.013469302
0.013677197
0.013845199
0.013979449
0.014084429
0.014164439
0.014222918
0.014262001
0.01428528
0.014295709
0.014294609
0.014286847
0.014270777
0.014247385
0.014217311
0.014182222
0.014142994
0.014100166
0.014054319
0.014005259
0.01395418
0.013899585
0.013843252
0.013785016
0.013724907
0.01366306
0.013599668
0.013534932
0.01346901
0.013402051
0.013334201
0.013265463
0.01319592
0.013125656
0.013054755
0.012983327
0.012911448
0.012839202
0.012766664
0.01269387
0.0126209
0.012547793
0.012474569
0.012401241
0.012327862
0.0122545
0.012181203
0.012107996
0.012034912
0.011961987
0.011889248
0.011816702
0.011744368
0.011672276
0.01160045
0.011528905
0.011457655
0.011386719
0.011316117
0.011245858
0.011175949
0.011106401
0.011037224
0.010968424
0.010900011
0.010831989
0.010764364
0.010697139
0.010630317
0.010563897
0.01049788
0.01043226
0.010367034
0.010302189
0.010237716
0.010173581
0.010109784
0.010046216
0.0099829364
0.0099196022
0.009856467
0.0097925327
0.0097278633
0.0096673891
0.0095618132
0.00016378049
0.00017593447
0.0002067948
0.00028751257
0.00045353049
0.00069871272
0.0011535742
0.0017920154
0.0026164319
0.0035369709
0.004494578
0.0054741054
0.0064630732
0.0074386178
0.0083693686
0.009226684
0.0099924754
0.010661552
0.011239212
0.011735248
0.012159553
0.012520871
0.012827406
0.013085805
0.013302645
0.013482944
0.01363224
0.013755123
0.013854929
0.013935299
0.013998788
0.014047763
0.01408418
0.014109992
0.014126064
0.014134411
0.014132539
0.014124929
0.014110546
0.014090394
0.014065045
0.01403505
0.014000919
0.013963081
0.013921938
0.013877851
0.013830958
0.013781552
0.013729858
0.013676094
0.0136205
0.013563254
0.013504546
0.013444539
0.013383338
0.013321104
0.013257933
0.0131939
0.013129065
0.013063538
0.012997435
0.012930846
0.01286383
0.012796456
0.012728795
0.012660901
0.012592803
0.012524548
0.012456191
0.012387775
0.012319336
0.012250905
0.012182519
0.012114215
0.012046016
0.011977944
0.01191002
0.011842268
0.011774706
0.011707354
0.011640228
0.011573341
0.011506708
0.011440338
0.01137424
0.011308423
0.01124289
0.011177645
0.011112682
0.011048006
0.010983583
0.010919445
0.010855451
0.010791778
0.010727907
0.010664544
0.0106
0.010535902
0.010474451
0.010369671
0.00016623349
0.00016862004
0.00017048855
0.00017282621
0.0001791298
0.00019168719
0.0002220747
0.00028667824
0.00039433542
0.00059707157
0.00091421388
0.0013523452
0.0019228881
0.0025909934
0.0033467445
0.0041819601
0.005079435
0.0060091683
0.0069330599
0.0078142725
0.0086264478
0.0093574153
0.010006533
0.01057872
0.011080509
0.011518149
0.011898237
0.012227447
0.012512437
0.012758654
0.012970653
0.013152603
0.01330816
0.013440258
0.013551821
0.013645964
0.01372323
0.01378635
0.013836872
0.013875865
0.01390447
0.013923852
0.013934989
0.013938708
0.013935811
0.013927011
0.013912785
0.013893549
0.013869709
0.0138417
0.013809961
0.013774828
0.013736622
0.013695643
0.013652138
0.013606395
0.013558587
0.013508873
0.013457385
0.013404316
0.013349852
0.01329414
0.01323729
0.013179428
0.013120668
0.013061105
0.013000801
0.012939841
0.012878314
0.012816292
0.012753837
0.012691004
0.012627857
0.012564456
0.012500842
0.012437055
0.012373137
0.012309125
0.012245055
0.01218096
0.012116869
0.012052811
0.011988808
0.011924885
0.011861062
0.011797355
0.011733779
0.011670349
0.011607067
0.011543952
0.011480976
0.011418192
0.011355454
0.011293009
0.011230251
0.011168159
0.011104673
0.011042393
0.010981824
0.010879901
0.0001678751
0.00017207984
0.00017405299
0.00017467826
0.00017481605
0.00017461801
0.00017477143
0.00017616639
0.00018064524
0.00019328965
0.00022158479
0.0002748049
0.00036119943
0.00051384755
0.0007483793
0.0010861618
0.0015370839
0.002093664
0.0027557017
0.0035164428
0.0043560723
0.0052412535
0.0061313463
0.0069889186
0.0077883999
0.0085178944
0.0091754538
0.009763883
0.010287729
0.010752111
0.011162454
0.011524252
0.01184267
0.012122282
0.01236728
0.012581895
0.012768921
0.012931461
0.013072252
0.01319357
0.013297442
0.013385586
0.013459581
0.013520852
0.013570597
0.013609907
0.013639895
0.013661441
0.013675354
0.013682332
0.01368299
0.013677861
0.013667478
0.013652322
0.013632832
0.013609479
0.01358253
0.013552266
0.013518968
0.013482927
0.013444387
0.013403573
0.013360669
0.013315856
0.013269331
0.013221249
0.013171719
0.01312088
0.013068866
0.013015787
0.012961743
0.012906821
0.012851119
0.01279473
0.012737719
0.01268015
0.012622089
0.012563595
0.012504726
0.012445531
0.01238606
0.012326354
0.012266456
0.012206403
0.012146227
0.01208596
0.01202563
0.011965262
0.011904872
0.011844492
0.011784103
0.01172378
0.011663377
0.011603191
0.011542581
0.011482686
0.011421273
0.011361537
0.011302941
0.01120502
0.0001672602
0.00017283868
0.00017642401
0.0001784539
0.00017860424
0.00017834211
0.00017778616
0.00017704021
0.0001764245
0.00017576575
0.0001761215
0.00017796057
0.00018313275
0.00019527092
0.00021946479
0.00026353381
0.00033440401
0.00045861251
0.00065547064
0.00094647927
0.0013481655
0.0018603891
0.0024846541
0.0032117823
0.0040177045
0.004865699
0.005715003
0.0065316993
0.0072950408
0.0079965237
0.0086349209
0.0092120545
0.0097310427
0.010195846
0.010610913
0.010980996
0.011310219
0.01160252
0.01186163
0.012090889
0.012293291
0.012471487
0.012627856
0.012764551
0.012883469
0.012986298
0.013074626
0.013149846
0.0132132
0.013265792
0.013308593
0.01334252
0.013368339
0.013386752
0.013398418
0.013403863
0.013403687
0.013398384
0.013388415
0.013374158
0.013355971
0.013334186
0.013309084
0.013280951
0.013250072
0.013216669
0.013180909
0.013143006
0.013103143
0.013061492
0.013018209
0.012973441
0.012927304
0.01287992
0.012831398
0.012781838
0.012731336
0.01267998
0.012627851
0.012575025
0.012521573
0.012467559
0.012413043
0.012358082
0.012302725
0.012247022
0.012191014
0.012134743
0.012078239
0.012021548
0.011964665
0.011907684
0.011850469
0.011793351
0.011735685
0.0116787
0.011620115
0.011563467
0.011507588
0.0114145
0.00016544728
0.00017129335
0.00017579727
0.00017849416
0.00017977982
0.00018006608
0.00017989305
0.00017945603
0.00017879194
0.00017803518
0.00017727154
0.00017659194
0.00017600651
0.00017576878
0.00017624904
0.00017857414
0.00018390986
0.00019527068
0.00021730347
0.00025734607
0.00032338848
0.00044025841
0.00063000141
0.00091402671
0.0013088924
0.0018178319
0.0024394626
0.0031585369
0.0039447031
0.0047585315
0.0055625624
0.0063301668
0.0070473857
0.007709131
0.0083146425
0.0088652989
0.0093636851
0.0098132188
0.010217694
0.010580881
0.010906408
0.011197685
0.011457856
0.011689818
0.011896204
0.012079388
0.012241558
0.012384692
0.012510568
0.012620782
0.012716751
0.012799776
0.012871004
0.012931463
0.012982102
0.013023736
0.013057163
0.013083099
0.013102197
0.013115026
0.013122105
0.013123909
0.013120888
0.013113414
0.013101824
0.01308646
0.013067656
0.013045673
0.013020763
0.012993165
0.012963098
0.012930763
0.012896335
0.012859988
0.012821868
0.012782122
0.012740881
0.01269827
0.012654403
0.012609386
0.012563318
0.012516289
0.012468385
0.012419683
0.012370257
0.012320174
0.012269496
0.012218282
0.012166579
0.012114451
0.01206191
0.012009067
0.011955803
0.01190247
0.01184845
0.011795002
0.011739889
0.011686816
0.011634227
0.011546684
0.00016312725
0.00016855573
0.00017327647
0.00017654476
0.00017842835
0.00017926395
0.00017947577
0.00017935674
0.00017906079
0.00017863548
0.00017811321
0.00017750341
0.00017684351
0.00017619425
0.00017557467
0.00017502237
0.0001746092
0.00017461277
0.00017551402
0.00017827549
0.00018411173
0.00019607424
0.00021927594
0.00026105894
0.00033369018
0.00046126834
0.00066819404
0.00097614975
0.0013957003
0.0019303092
0.0025715451
0.0032950257
0.0040642636
0.0048409839
0.0055953613
0.0063098734
0.0069765681
0.007592642
0.008157864
0.0086736542
0.0091425485
0.009567607
0.009952028
0.010299016
0.010611679
0.010892937
0.011145539
0.011372033
0.011574758
0.011755845
0.011917217
0.012060632
0.012187672
0.012299763
0.012398207
0.01248416
0.012558696
0.012622799
0.012677362
0.012723188
0.012760998
0.012791448
0.012815149
0.012832636
0.012844389
0.012850866
0.012852504
0.012849682
0.012842745
0.012832018
0.012817798
0.012800358
0.012779948
0.012756785
0.012731089
0.012703053
0.012672856
0.012640666
0.012606638
0.012570915
0.012533632
0.012494911
0.012454867
0.012413607
0.012371228
0.012327824
0.012283478
0.012238272
0.012192274
0.012145566
0.012098181
0.012050246
0.01200167
0.011952814
0.011903104
0.011853799
0.011802757
0.011753741
0.011704937
0.011623609
0.0001608045
0.00016548257
0.00016988488
0.0001733301
0.00017564737
0.00017698047
0.00017762309
0.00017784349
0.00017779626
0.00017759378
0.00017728997
0.00017690852
0.00017646513
0.00017597549
0.00017544356
0.00017487831
0.0001743111
0.00017374746
0.00017322642
0.00017282535
0.00017266889
0.00017303934
0.00017451466
0.00017809749
0.00018548279
0.00020023001
0.0002286815
0.00027879863
0.00037070471
0.00052868504
0.0007769328
0.0011330513
0.001603039
0.0021830093
0.0028529492
0.0035790839
0.0043236917
0.0050559555
0.005756679
0.0064162205
0.0070303659
0.0075977676
0.0081189457
0.0085956747
0.0090303826
0.0094257708
0.0097846619
0.010109866
0.01040409
0.010669896
0.010909665
0.011125609
0.011319758
0.011493966
0.011649933
0.011789192
0.011913155
0.012023114
0.012120255
0.01220565
0.012280266
0.012344985
0.012400612
0.012447877
0.012487433
0.012519887
0.012545813
0.01256572
0.012580074
0.012589305
0.012593806
0.012593941
0.012590041
0.012582404
0.012571314
0.012557028
0.012539786
0.012519807
0.012497298
0.012472447
0.01244543
0.01241641
0.012385538
0.012352953
0.012318787
0.012283159
0.012246183
0.012207964
0.012168597
0.012128184
0.012086784
0.012044542
0.012001394
0.011957713
0.011912979
0.011868426
0.011822046
0.011777588
0.011733033
0.01165859
0.00015873674
0.00016260389
0.0001664163
0.00016966344
0.00017212841
0.00017380604
0.00017483494
0.00017539961
0.00017564626
0.00017568133
0.00017557597
0.00017537326
0.00017509903
0.00017476995
0.00017439598
0.00017398303
0.0001735394
0.00017306642
0.0001725626
0.00017205308
0.00017155105
0.00017108465
0.00017071031
0.00017052518
0.00017071511
0.00017165235
0.00017414302
0.00017934048
0.00018992171
0.00021092911
0.00024985686
0.0003215095
0.00045016002
0.00066139276
0.00097602918
0.0014022648
0.0019388416
0.0025680446
0.0032576883
0.0039710336
0.0046777736
0.0053586772
0.0060035565
0.0066074397
0.0071682886
0.0076860417
0.0081619413
0.0085979372
0.0089963437
0.0093596517
0.0096903743
0.0099909723
0.0102638
0.01051107
0.010734851
0.010937047
0.011119421
0.011283604
0.011431098
0.011563278
0.011681391
0.011786578
0.01187988
0.011962248
0.012034542
0.012097551
0.01215201
0.012198588
0.012237892
0.012270481
0.012296865
0.012317517
0.012332868
0.012343309
0.012349206
0.012350893
0.012348681
0.012342855
0.01233368
0.0123214
0.012306243
0.012288418
0.01226812
0.012245529
0.012220812
0.012194126
0.012165615
0.012135417
0.012103652
0.012070453
0.012035902
0.012000169
0.011963221
0.011925439
0.011886366
0.0118472
0.011806084
0.011766722
0.011726879
0.011660009
0.00015699735
0.00016013354
0.00016330454
0.00016614918
0.00016849206
0.00017028048
0.00017155506
0.00017240873
0.00017293765
0.00017322426
0.00017333485
0.00017331791
0.00017320705
0.00017302523
0.00017278833
0.0001725072
0.00017218952
0.00017184015
0.00017146021
0.00017105466
0.00017062706
0.000170179
0.00016971987
0.00016927243
0.00016886053
0.00016852919
0.00016836209
0.00016849942
0.00016923309
0.00017118585
0.00017540106
0.00018394388
0.00020109734
0.00023395421
0.00029504461
0.00040821508
0.00059951463
0.00089085519
0.0012918656
0.0018019542
0.0024035421
0.0030647475
0.0037500217
0.0044307547
0.0050889144
0.005714633
0.0063027736
0.0068510448
0.0073591073
0.0078278691
0.0082589382
0.0086543237
0.0090162304
0.0093469136
0.009648604
0.0099234474
0.010173486
0.010400646
0.010606731
0.010793414
0.010962237
0.011114616
0.011251854
0.011375148
0.011485589
0.011584178
0.011671841
0.011749427
0.01181771
0.011877399
0.011929147
0.011973552
0.012011165
0.012042487
0.01206798
0.012088074
0.012103162
0.012113606
0.012119744
0.012121885
0.012120317
0.012115306
0.012107098
0.012095921
0.012081987
0.012065493
0.012046623
0.012025548
0.012002425
0.011977415
0.011950634
0.011922274
0.011892341
0.011861223
0.011828532
0.011795425
0.011760204
0.011726514
0.011691866
0.011633298
0.00015556724
0.0001580972
0.00016068833
0.00016308376
0.00016515625
0.00016685807
0.00016819546
0.00016920661
0.00016993877
0.00017043971
0.0001707554
0.00017092581
0.00017098321
0.00017095245
0.00017085251
0.00017069774
0.00017049837
0.0001702618
0.00016999263
0.00016969461
0.00016937074
0.00016902258
0.00016865186
0.00016826289
0.00016786055
0.00016744746
0.00016704866
0.00016668722
0.00016640275
0.00016627227
0.00016642738
0.00016711833
0.00016887493
0.00017267834
0.00018032341
0.00019579768
0.00022597346
0.00028309669
0.00039072963
0.0005754049
0.00085856229
0.0012502468
0.0017485165
0.0023339121
0.0029738725
0.0036344659
0.0042898069
0.0049239255
0.0055278472
0.006096714
0.0066283311
0.0071223186
0.0075794096
0.0080009894
0.008388831
0.0087448968
0.0090712232
0.0093698427
0.0096427349
0.0098917933
0.010118804
0.01032544
0.01051326
0.010683712
0.010838128
0.010977739
0.011103682
0.011217004
0.011318668
0.011409556
0.01149048
0.011562186
0.011625363
0.011680639
0.011728593
0.01176976
0.011804634
0.011833667
0.011857281
0.011875862
0.01188977
0.011899336
0.011904866
0.011906647
0.011904941
0.011899994
0.011892033
0.011881274
0.01186791
0.011852139
0.011834113
0.011814053
0.011792005
0.011768368
0.011742828
0.011716497
0.011687843
0.011660451
0.011631513
0.011582024
0.00015439698
0.0001564424
0.00015855043
0.00016053425
0.00016229954
0.00016381172
0.00016507318
0.00016610319
0.0001669232
0.00016755487
0.00016802201
0.000168349
0.00016855889
0.00016867212
0.00016870625
0.00016867597
0.00016859266
0.00016846513
0.0001683
0.00016810222
0.00016787556
0.00016762267
0.00016734543
0.00016704557
0.00016672512
0.00016638458
0.00016602858
0.00016566295
0.00016529325
0.00016493704
0.00016462316
0.0001643914
0.00016431619
0.0001645292
0.00016526548
0.00016703331
0.00017079697
0.00017833494
0.00019368776
0.00022377552
0.00028211724
0.00039241897
0.00058188192
0.00086989898
0.0012657085
0.0017639818
0.0023416641
0.0029654291
0.0036038292
0.0042345048
0.0048439724
0.0054244877
0.0059718095
0.0064840683
0.0069609652
0.0074031645
0.0078119275
0.0081888625
0.0085357579
0.0088544749
0.009146874
0.0094147716
0.0096599102
0.009883944
0.010088426
0.010274804
0.010444429
0.010598556
0.010738343
0.010864862
0.0109791
0.01108197
0.011174311
0.011256897
0.01133044
0.011395597
0.011452975
0.011503132
0.011546587
0.011583815
0.011615259
0.011641326
0.011662394
0.011678813
0.011690908
0.011698979
0.011703306
0.011704153
0.011701759
0.011696362
0.011688156
0.011677395
0.01166417
0.011648894
0.011631331
0.011612549
0.011591182
0.011570767
0.011548099
0.011508529
0.00015343595
0.00015509878
0.00015681794
0.00015845497
0.00015993615
0.00016123436
0.00016235336
0.00016330916
0.0001641161
0.00016478498
0.00016532621
0.00016575108
0.00016607174
0.0001663007
0.00016645034
0.00016653238
0.00016655688
0.00016653226
0.00016646552
0.00016636229
0.00016622695
0.00016606284
0.00016587249
0.00016565779
0.00016542036
0.00016516112
0.00016488149
0.00016458341
0.00016426848
0.00016394033
0.00016360578
0.00016327294
0.00016295744
0.00016269217
0.0001625183
0.00016251448
0.00016281904
0.00016367634
0.0001656306
0.00016967131
0.00017779058
0.00019441213
0.00022685082
0.00029138484
0.00041241888
0.0006174568
0.00092224422
0.0013333567
0.0018399119
0.0024146283
0.0030244635
0.0036417457
0.0042481135
0.0048325628
0.0053886644
0.0059129699
0.0064040565
0.0068617937
0.0072868658
0.0076804677
0.008044092
0.0083793911
0.0086880793
0.0089718723
0.0092324433
0.0094713973
0.009690259
0.0098904669
0.010073369
0.010240221
0.010392193
0.01053037
0.010655757
0.010769283
0.010871807
0.010964123
0.011046964
0.011121009
0.011186883
0.011245166
0.011296393
0.011341061
0.011379627
0.011412517
0.011440125
0.011462817
0.011480932
0.011494789
0.011504678
0.011510887
0.011513656
0.011513276
0.011509889
0.011503925
0.011495229
0.011484833
0.01147153
0.011458829
0.011443041
0.011414302
0.00015264176
0.00015400238
0.00015541172
0.00015676607
0.00015800571
0.00015910632
0.00016007051
0.00016091297
0.00016164764
0.00016228388
0.00016282822
0.00016328586
0.0001636619
0.00016396197
0.00016419255
0.00016436074
0.0001644734
0.00016453689
0.00016455706
0.00016453898
0.00016448689
0.00016440423
0.00016429375
0.00016415759
0.00016399744
0.00016381451
0.00016360986
0.00016338455
0.00016313949
0.00016287582
0.00016259561
0.00016230135
0.00016199673
0.00016168982
0.00016139062
0.00016111594
0.00016090221
0.00016079483
0.00016088406
0.00016132131
0.00016238659
0.00016471863
0.00016938083
0.00017884388
0.00019829453
0.00023597094
0.00031230873
0.00045338586
0.00068317112
0.0010152401
0.0014500177
0.0019693189
0.0025424372
0.0031385611
0.0037348379
0.0043168535
0.0048759051
0.0054069168
0.0059072796
0.0063760218
0.0068132241
0.0072196455
0.0075964616
0.0079450912
0.0082670771
0.0085640055
0.0088374562
0.0090889707
0.0093200312
0.0095320473
0.0097263495
0.0099041872
0.010066729
0.010215064
0.010350203
0.010473085
0.010584581
0.0106855
0.010776588
0.010858539
0.010931993
0.010997544
0.011055743
0.011107099
0.011152086
0.011191143
0.011224677
0.01125307
0.011276673
0.011295825
0.011310822
0.011321996
0.011329548
0.011333928
0.011335065
0.011333961
0.011329562
0.011325377
0.011317138
0.011300224
0.00015198111
0.00015310165
0.00015426386
0.0001553897
0.00015643021
0.0001573623
0.00015818552
0.0001589116
0.00015955377
0.00016012227
0.00016062418
0.00016106404
0.00016144478
0.00016176878
0.00016203862
0.00016225752
0.00016242899
0.00016255663
0.0001626442
0.00016269531
0.00016271323
0.00016270079
0.0001626604
0.00016259405
0.00016250334
0.0001623895
0.00016225354
0.00016209632
0.00016191854
0.00016172084
0.00016150408
0.00016126928
0.00016101767
0.00016075164
0.00016047452
0.00016019074
0.00015990982
0.00015964352
0.00015941268
0.00015925773
0.00015923202
0.00015944761
0.0001600751
0.00016146696
0.00016442098
0.00017017411
0.00018200739
0.00020605734
0.00025447869
0.00035004732
0.00052057825
0.0007851045
0.0011527886
0.0016151922
0.0021468735
0.0027163866
0.0032973371
0.0038719572
0.0044292266
0.0049624605
0.0054678836
0.0059436888
0.0063893509
0.0068051796
0.0071920157
0.0075510248
0.0078835582
0.0081910614
0.0084750111
0.0087368728
0.008978073
0.0091999818
0.0094039036
0.00959107
0.0097626382
0.0099196913
0.010063241
0.010194229
0.010313531
0.010421963
0.01052028
0.010609185
0.010689328
0.010761314
0.010825705
0.010883021
0.010933747
0.010978335
0.011017204
0.011050753
0.011079339
0.011103344
0.011123028
0.011138871
0.011150888
0.011160058
0.011165477
0.01117068
0.011170723
0.011166722
0.00015142828
0.00015235666
0.00015332062
0.00015426129
0.00015513863
0.00015593074
0.00015663414
0.00015725663
0.00015780923
0.00015830193
0.00015874273
0.00015913728
0.00015948912
0.00015980039
0.00016007253
0.00016030689
0.00016050485
0.0001606679
0.00016079778
0.0001608964
0.00016096568
0.0001610074
0.00016102319
0.00016101447
0.00016098244
0.00016092807
0.00016085217
0.00016075538
0.00016063826
0.00016050124
0.00016034477
0.00016016935
0.00015997551
0.00015976406
0.00015953628
0.00015929373
0.00015903935
0.00015877724
0.00015851327
0.00015825881
0.00015802767
0.00015784822
0.00015776558
0.00015784725
0.0001582387
0.00015914302
0.00016105051
0.00016490162
0.00017259629
0.00018852345
0.00022023682
0.00028583555
0.00041118704
0.00062074243
0.00092934502
0.0013374177
0.0018263074
0.0023660939
0.0029281261
0.0034916628
0.0040434622
0.0045753113
0.0050823237
0.0055618778
0.00601285
0.0064351022
0.0068291377
0.0071958678
0.0075364526
0.0078521927
0.0081444541
0.0084146181
0.0086640482
0.0088940671
0.0091059429
0.0093008813
0.0094800214
0.0096444347
0.0097951252
0.0099330315
0.01005903
0.010173936
0.01027851
0.010373458
0.010459438
0.010537063
0.0106069
0.010669481
0.010725299
0.010774824
0.010818475
0.010856694
0.010889806
0.010918326
0.010942359
0.010962872
0.010979099
0.010994637
0.011003765
0.011013864
0.00015096328
0.00015173669
0.00015254048
0.0001533302
0.00015407327
0.00015474947
0.00015535307
0.00015588825
0.00015636307
0.00015678607
0.00015716501
0.00015750622
0.00015781429
0.0001580923
0.00015834219
0.00015856524
0.00015876226
0.00015893383
0.00015908056
0.00015920314
0.00015930232
0.00015937886
0.00015943349
0.00015946691
0.0001594797
0.00015947236
0.00015944531
0.00015939889
0.00015933336
0.00015924893
0.0001591458
0.00015902415
0.00015888418
0.00015872615
0.00015855053
0.00015835788
0.00015814923
0.00015792612
0.00015769066
0.00015744663
0.00015719891
0.00015695581
0.00015673103
0.00015654142
0.00015642692
0.0001564386
0.00015667405
0.00015730144
0.00015862702
0.00016136353
0.00016667531
0.00017758826
0.00019995973
0.00024599391
0.0003383007
0.00050470247
0.00076344373
0.0011222165
0.0015694884
0.0020784257
0.0026194575
0.003169453
0.003713128
0.004240838
0.0047466636
0.0052272219
0.0056808264
0.0061069162
0.0065056757
0.0068777728
0.0072241804
0.0075460534
0.0078446453
0.0081212494
0.0083771603
0.008613647
0.0088319364
0.0090332026
0.009218561
0.0093890654
0.0095457077
0.009689418
0.0098210672
0.0099414688
0.010051382
0.010151517
0.010242532
0.010325046
0.010399633
0.010466837
0.010527153
0.010581084
0.010629028
0.010671542
0.010708823
0.010741834
0.010769946
0.010796846
0.010815937
0.010841435
0.00015057044
0.00015121798
0.00015189145
0.00015255728
0.0001531891
0.00015376873
0.00015428914
0.00015475166
0.00015516157
0.00015552542
0.00015584987
0.00015614097
0.00015640374
0.000156642
0.00015685855
0.00015705534
0.0001572336
0.000157394
0.00015753697
0.00015766278
0.00015777161
0.00015786358
0.00015793879
0.0001579973
0.00015803915
0.00015806433
0.0001580728
0.00015806452
0.00015803941
0.00015799737
0.00015793833
0.00015786218
0.00015776887
0.00015765833
0.00015753061
0.00015738582
0.00015722422
0.00015704633
0.0001568529
0.00015664528
0.0001564254
0.00015619621
0.00015596266
0.00015573067
0.00015551224
0.00015532368
0.00015518906
0.00015515859
0.00015529985
0.00015575898
0.000156742
0.00015874546
0.00016271059
0.00017064218
0.00018709383
0.00022027052
0.00028990347
0.00042255446
0.0006405574
0.00095659901
0.0013655644
0.0018444587
0.0023638764
0.0028989847
0.0034327636
0.0039543034
0.0044567691
0.0049360979
0.0053900977
0.0058178259
0.0062191742
0.006594583
0.0069448473
0.0072709818
0.0075741287
0.0078554924
0.0081162965
0.0083577536
0.0085810458
0.0087873119
0.0089776398
0.0091530618
0.0093145534
0.0094630327
0.0095993618
0.0097243489
0.0098387503
0.0099432748
0.010038584
0.010125303
0.010204007
0.010275267
0.01033956
0.01039749
0.010449352
0.010496114
0.010537278
0.010576652
0.010606665
0.01064898
0.00015023738
0.00015078198
0.00015134873
0.00015191221
0.00015245123
0.00015294975
0.00015340021
0.00015380196
0.00015415801
0.00015447297
0.00015475206
0.00015500052
0.00015522304
0.00015542365
0.00015560559
0.00015577143
0.000155923
0.00015606154
0.00015618784
0.00015630234
0.00015640526
0.00015649659
0.00015657621
0.00015664388
0.00015669931
0.00015674216
0.00015677206
0.00015678861
0.00015679142
0.00015678011
0.0001567543
0.00015671364
0.0001566578
0.00015658646
0.00015649937
0.00015639632
0.00015627719
0.00015614198
0.00015599081
0.00015582405
0.00015564237
0.00015544684
0.00015523936
0.00015502234
0.00015480007
0.00015457881
0.00015436686
0.00015418001
0.00015403833
0.00015398197
0.00015406879
0.00015440737
0.00015518158
0.0001567393
0.00015986895
0.00016589577
0.00017838115
0.00020390847
0.0002578534
0.00036504756
0.00055048284
0.0008304649
0.0012053661
0.0016562136
0.0021544806
0.0026742431
0.0031970883
0.0037110441
0.0042085047
0.0046848306
0.0051373942
0.0055649188
0.0059670355
0.0063439797
0.0066963829
0.0070251283
0.0073312514
0.0076158702
0.0078801381
0.0081252108
0.0083522244
0.0085622803
0.0087564364
0.0089357011
0.0091010307
0.0092533288
0.0093934466
0.0095221856
0.0096402974
0.0097484926
0.0098474297
0.0099377551
0.010020028
0.010094908
0.01016279
0.010224656
0.010280133
0.010333184
0.01037516
0.010435839
0.00014995422
0.0001504141
0.0001508929
0.00015137135
0.00015183247
0.00015226235
0.00015265345
0.00015300381
0.00015331476
0.00015358926
0.00015383118
0.00015404471
0.00015423389
0.00015440243
0.00015455361
0.00015469019
0.00015481441
0.00015492799
0.00015503218
0.00015512786
0.00015521557
0.00015529554
0.00015536778
0.00015543211
0.00015548823
0.00015553568
0.00015557398
0.00015560257
0.00015562086
0.00015562828
0.00015562424
0.00015560816
0.00015557949
0.00015553771
0.00015548232
0.00015541288
0.000155329
0.00015523034
0.00015511668
0.00015498788
0.00015484398
0.00015468522
0.0001545122
0.00015432584
0.00015412775
0.00015392047
0.00015370742
0.0001534945
0.00015328935
0.00015310548
0.00015296206
0.00015288923
0.00015294155
0.00015320279
0.00015384725
0.00015512016
0.00015764976
0.00016252579
0.00017248565
0.00019302425
0.00023622161
0.00032458194
0.0004847338
0.00073527259
0.0010809899
0.0015066587
0.0019850457
0.0024896838
0.0030011433
0.003506616
0.0039978807
0.0044698319
0.0049194834
0.005345279
0.0057466275
0.006123585
0.0064766371
0.0068065469
0.0071142515
0.0074007878
0.0076672422
0.0079147148
0.0081442958
0.0083570487
0.008554
0.008736133
0.0089043838
0.009059641
0.009202744
0.0093344891
0.0094556204
0.009566862
0.00966886
0.0097623328
0.0098477778
0.0099262033
0.0099973525
0.010065378
0.010120445
0.010201168
0.00014971302
0.00015010275
0.00015050866
0.00015091608
0.00015131145
0.00015168288
0.00015202318
0.00015232961
0.00015260228
0.0001528429
0.00015305416
0.00015323924
0.00015340146
0.000153544
0.00015366981
0.00015378158
0.00015388162
0.00015397186
0.00015405389
0.00015412892
0.00015419785
0.00015426128
0.00015431951
0.00015437264
0.00015442053
0.0001544629
0.00015449932
0.00015452929
0.0001545522
0.00015456742
0.00015457429
0.00015457213
0.00015456026
0.00015453801
0.00015450473
0.0001544598
0.00015440265
0.00015433271
0.00015424952
0.00015415264
0.00015404176
0.00015391665
0.00015377729
0.00015362383
0.00015345673
0.00015327692
0.00015308578
0.00015288568
0.00015267987
0.00015247365
0.00015227473
0.00015209409
0.00015195038
0.00015186936
0.00015190124
0.00015211625
0.00015266067
0.00015375044
0.00015589457
0.00016004121
0.0001683503
0.00018550378
0.00022127689
0.00029619385
0.00043709947
0.00066421612
0.00098574754
0.001389631
0.0018500133
0.0023402903
0.0028403826
0.00333689
0.0038211407
0.0042876811
0.0047332491
0.005156066
0.0055553586
0.0059310323