/*--------------------------------*- C++ -*----------------------------------*\
| =========                 |                                                 |
| \\      /  F ield         | OpenFOAM: The Open Source CFD Toolbox           |
|  \\    /   O peration     | Version:  2206                                  |
|   \\  /    A nd           | Website:  www.openfoam.com                      |
|    \\/     M anipulation  |                                                 |
\*---------------------------------------------------------------------------*/
FoamFile
{
    version     2.0;
    format      ascii;
    arch        "LSB;label=32;scalar=64";
    class       volScalarField;
    location    "1000";
    object      nut;
}
// * * * * * * * * * * * * * * * * * * * * * * * * * * * * * * * * * * * * * //

dimensions      [0 2 -1 0 0 0 0];

internalField   nonuniform List<scalar> 
7480
(
1.613953e-05
2.2440569e-05
2.3613556e-05
2.2659596e-05
2.107461e-05
1.9608502e-05
1.8479751e-05
1.7621211e-05
1.6932942e-05
1.6350785e-05
1.5846167e-05
1.5407343e-05
1.5026642e-05
1.4697028e-05
1.4411829e-05
1.4164365e-05
1.3949368e-05
1.3762654e-05
1.3599717e-05
1.3457722e-05
1.3331681e-05
1.3218841e-05
1.3116701e-05
1.3023129e-05
1.2936726e-05
1.2856321e-05
1.2781114e-05
1.2710285e-05
1.2643083e-05
1.2578879e-05
1.251733e-05
1.2458211e-05
1.2401269e-05
1.2346295e-05
1.2293036e-05
1.2241392e-05
1.2190995e-05
1.2141795e-05
1.2093688e-05
1.2046538e-05
1.2000247e-05
1.1954731e-05
1.1909923e-05
1.1865785e-05
1.1822266e-05
1.1779331e-05
1.173693e-05
1.169501e-05
1.1653543e-05
1.1612498e-05
1.1571851e-05
1.1531588e-05
1.1491691e-05
1.1452152e-05
1.1412953e-05
1.1374081e-05
1.1335528e-05
1.1297275e-05
1.1259305e-05
1.122161e-05
1.1184189e-05
1.1147042e-05
1.1110162e-05
1.1073542e-05
1.1037181e-05
1.1001075e-05
1.0965214e-05
1.0929593e-05
1.089421e-05
1.0859063e-05
1.0824148e-05
1.0789462e-05
1.0755002e-05
1.0720768e-05
1.0686755e-05
1.0652961e-05
1.061938e-05
1.0586011e-05
1.055285e-05
1.0519895e-05
1.048714e-05
1.0454582e-05
1.0422218e-05
1.0390041e-05
1.0358047e-05
1.0326227e-05
1.0294574e-05
1.0263074e-05
1.0231719e-05
1.0200478e-05
1.0169352e-05
1.0138243e-05
1.0107243e-05
1.0075949e-05
1.0044945e-05
1.0012556e-05
9.9812383e-06
9.9450048e-06
9.9158631e-06
9.8599735e-06
1.6688234e-06
5.1440334e-06
8.7884322e-06
1.1680935e-05
1.3403368e-05
1.4480526e-05
1.5237657e-05
1.5810456e-05
1.6223658e-05
1.6520473e-05
1.6746426e-05
1.6933846e-05
1.7100279e-05
1.7253693e-05
1.7398979e-05
1.7528389e-05
1.7652222e-05
1.7777281e-05
1.790342e-05
1.8024652e-05
1.8138939e-05
1.8243507e-05
1.8336406e-05
1.8418225e-05
1.8490796e-05
1.8554802e-05
1.861226e-05
1.8661661e-05
1.870266e-05
1.8735616e-05
1.8761998e-05
1.8782719e-05
1.8798215e-05
1.880899e-05
1.8814792e-05
1.8816694e-05
1.881326e-05
1.8806091e-05
1.8795346e-05
1.8780998e-05
1.8763179e-05
1.8742123e-05
1.8718122e-05
1.8691378e-05
1.8662084e-05
1.8630452e-05
1.8596502e-05
1.8560362e-05
1.8522169e-05
1.8482041e-05
1.8440154e-05
1.8396626e-05
1.8351583e-05
1.8305144e-05
1.8257372e-05
1.8208396e-05
1.8158284e-05
1.8107086e-05
1.8054839e-05
1.8001632e-05
1.7947572e-05
1.7892736e-05
1.7837177e-05
1.778095e-05
1.7724123e-05
1.7666745e-05
1.7608844e-05
1.755046e-05
1.749165e-05
1.7432459e-05
1.7372923e-05
1.7313073e-05
1.7252947e-05
1.7192588e-05
1.7132021e-05
1.7071268e-05
1.7010359e-05
1.6949318e-05
1.6888171e-05
1.682694e-05
1.6765647e-05
1.6704313e-05
1.6642955e-05
1.658159e-05
1.6520235e-05
1.6458905e-05
1.639761e-05
1.6336367e-05
1.6275174e-05
1.6214065e-05
1.6152985e-05
1.6092073e-05
1.6031029e-05
1.5970487e-05
1.5909119e-05
1.5849504e-05
1.5786866e-05
1.5728709e-05
1.5670753e-05
1.5565678e-05
4.3372329e-07
4.6799285e-07
9.4382404e-07
2.216574e-06
4.1435469e-06
6.4101506e-06
8.5153107e-06
1.0329044e-05
1.201227e-05
1.3632446e-05
1.5181948e-05
1.6642517e-05
1.8006414e-05
1.9280139e-05
2.0475474e-05
2.1618611e-05
2.2710961e-05
2.3746664e-05
2.4722043e-05
2.563505e-05
2.6486601e-05
2.7277739e-05
2.8007984e-05
2.8683162e-05
2.9308013e-05
2.9883655e-05
3.0423874e-05
3.0921451e-05
3.1379678e-05
3.1800496e-05
3.2189445e-05
3.2549233e-05
3.2881805e-05
3.318953e-05
3.347219e-05
3.3734376e-05
3.3971156e-05
3.4189961e-05
3.4390014e-05
3.4571961e-05
3.4736842e-05
3.4885777e-05
3.5019911e-05
3.5140184e-05
3.5247505e-05
3.5342776e-05
3.5426315e-05
3.5498805e-05
3.5560875e-05
3.5613101e-05
3.565617e-05
3.5690613e-05
3.5716985e-05
3.5735799e-05
3.5747392e-05
3.5752273e-05
3.5750784e-05
3.5743194e-05
3.5729731e-05
3.5710764e-05
3.5686704e-05
3.5657866e-05
3.562449e-05
3.5586833e-05
3.5545172e-05
3.5499725e-05
3.5450643e-05
3.5398119e-05
3.534238e-05
3.5283614e-05
3.5221982e-05
3.5157632e-05
3.5090728e-05
3.5021445e-05
3.49499e-05
3.4876213e-05
3.4800507e-05
3.4722903e-05
3.4643513e-05
3.4562445e-05
3.44798e-05
3.4395676e-05
3.4310165e-05
3.4223356e-05
3.4135331e-05
3.4046174e-05
3.395596e-05
3.3864777e-05
3.3772671e-05
3.3679789e-05
3.3586046e-05
3.3491901e-05
3.3396626e-05
3.3302121e-05
3.320487e-05
3.3112374e-05
3.3011678e-05
3.2926299e-05
3.283304e-05
3.2670438e-05
6.2412272e-06
1.1010686e-06
4.2449278e-07
3.8792696e-07
5.7889252e-07
9.3290457e-07
1.795399e-06
3.1770878e-06
4.8729103e-06
6.6173996e-06
8.3694432e-06
1.025382e-05
1.2280574e-05
1.4411979e-05
1.6589206e-05
1.8759038e-05
2.0883121e-05
2.2940167e-05
2.4922198e-05
2.6825759e-05
2.8646811e-05
3.0381511e-05
3.2030282e-05
3.3591657e-05
3.5067453e-05
3.6456996e-05
3.7764652e-05
3.89955e-05
4.0152283e-05
4.1242045e-05
4.2267999e-05
4.3234253e-05
4.4144558e-05
4.5004042e-05
4.5813613e-05
4.6580335e-05
4.728827e-05
4.7960504e-05
4.8588125e-05
4.9175716e-05
4.9725363e-05
5.0239259e-05
5.0719568e-05
5.1168153e-05
5.1586931e-05
5.1977705e-05
5.2341046e-05
5.2678611e-05
5.2991643e-05
5.3281379e-05
5.3549252e-05
5.3796377e-05
5.402398e-05
5.4233157e-05
5.4424665e-05
5.4599637e-05
5.4758811e-05
5.4902815e-05
5.503218e-05
5.5147749e-05
5.5250406e-05
5.5340851e-05
5.5419631e-05
5.5487358e-05
5.5544642e-05
5.5591993e-05
5.5629769e-05
5.5658431e-05
5.5678489e-05
5.5690371e-05
5.5694455e-05
5.5691089e-05
5.5680664e-05
5.5663577e-05
5.5640115e-05
5.5610564e-05
5.5575219e-05
5.5534366e-05
5.5488274e-05
5.5437201e-05
5.5381391e-05
5.5321081e-05
5.5256493e-05
5.5187845e-05
5.5115343e-05
5.5039191e-05
5.4959577e-05
5.4876711e-05
5.4790742e-05
5.4701967e-05
5.4610343e-05
5.4516643e-05
5.4419882e-05
5.4322997e-05
5.4220945e-05
5.4124895e-05
5.4016107e-05
5.3930795e-05
5.3829858e-05
5.3658674e-05
5.72408e-05
1.6954763e-05
4.844431e-06
1.8870567e-06
9.9150897e-07
6.7223825e-07
5.95898e-07
6.9358095e-07
9.2153585e-07
1.4654274e-06
2.3928175e-06
3.5575886e-06
5.0028001e-06
6.640405e-06
8.5190277e-06
1.0680479e-05
1.310341e-05
1.5724929e-05
1.8461877e-05
2.1233307e-05
2.3978812e-05
2.6664121e-05
2.9274486e-05
3.1801365e-05
3.4237225e-05
3.6574687e-05
3.8810761e-05
4.0946195e-05
4.2985833e-05
4.4931966e-05
4.678605e-05
4.8550986e-05
5.0229945e-05
5.1824369e-05
5.3339202e-05
5.4782013e-05
5.6147507e-05
5.7444783e-05
5.8676602e-05
5.9843769e-05
6.0948799e-05
6.1995264e-05
6.2986079e-05
6.3923776e-05
6.481131e-05
6.5651497e-05
6.6445873e-05
6.7195754e-05
6.7902675e-05
6.856869e-05
6.919611e-05
6.9786603e-05
7.0341937e-05
7.0863894e-05
7.1353971e-05
7.1814177e-05
7.2245575e-05
7.2649214e-05
7.3025982e-05
7.3377389e-05
7.3704893e-05
7.4009641e-05
7.4292554e-05
7.455472e-05
7.4797182e-05
7.5020803e-05
7.5226202e-05
7.5414216e-05
7.5585729e-05
7.574147e-05
7.5882111e-05
7.6008269e-05
7.612065e-05
7.6219958e-05
7.6306695e-05
7.6381387e-05
7.6444565e-05
7.6496742e-05
7.6538405e-05
7.6570021e-05
7.6592034e-05
7.6604876e-05
7.6608953e-05
7.6604666e-05
7.6592391e-05
7.6572503e-05
7.6545352e-05
7.6511313e-05
7.6470684e-05
7.6423947e-05
7.6371163e-05
7.6313404e-05
7.6249575e-05
7.6183416e-05
7.6108931e-05
7.6039777e-05
7.5953405e-05
7.5895657e-05
7.5813322e-05
7.5679858e-05
0.00013075314
8.1735528e-05
3.9637129e-05
1.8583135e-05
9.2346258e-06
5.0273952e-06
2.9993898e-06
1.9516186e-06
1.3832072e-06
1.0964264e-06
1.0145438e-06
1.0878278e-06
1.2960475e-06
1.8120706e-06
2.6179449e-06
3.719198e-06
5.181451e-06
6.952837e-06
9.0916547e-06
1.1617923e-05
1.4489993e-05
1.7617841e-05
2.0892148e-05
2.4213801e-05
2.7514655e-05
3.075782e-05
3.3924932e-05
3.7003573e-05
3.9984531e-05
4.2862044e-05
4.5633812e-05
4.8299774e-05
5.0860645e-05
5.3316845e-05
5.5670374e-05
5.7926368e-05
6.0084554e-05
6.2148869e-05
6.4123052e-05
6.6009926e-05
6.7812633e-05
6.9533404e-05
7.117502e-05
7.2740462e-05
7.423192e-05
7.5651785e-05
7.7004082e-05
7.8291538e-05
7.9517038e-05
8.0682988e-05
8.1791508e-05
8.2844444e-05
8.3844181e-05
8.479302e-05
8.5693233e-05
8.6547845e-05
8.7357881e-05
8.812487e-05
8.8850642e-05
8.9537251e-05
9.0186315e-05
9.0799404e-05
9.1377837e-05
9.1923023e-05
9.2436702e-05
9.29202e-05
9.3374397e-05
9.3800614e-05
9.4200162e-05
9.45741e-05
9.4923438e-05
9.5249116e-05
9.5552234e-05
9.5833855e-05
9.6094719e-05
9.633565e-05
9.655747e-05
9.6760967e-05
9.6946894e-05
9.7115974e-05
9.7268899e-05
9.7406341e-05
9.7528939e-05
9.7637315e-05
9.7732064e-05
9.7813771e-05
9.7882989e-05
9.7940299e-05
9.7986187e-05
9.8021348e-05
9.8046e-05
9.8061502e-05
9.8066765e-05
9.806615e-05
9.8053123e-05
9.8042985e-05
9.8010618e-05
9.8009756e-05
9.7971075e-05
9.7922677e-05
0.00016254499
0.00014210289
0.00010743966
7.3080651e-05
4.6730996e-05
2.9604637e-05
1.8941058e-05
1.2346259e-05
8.2451788e-06
5.6061182e-06
3.9211499e-06
2.8126827e-06
2.0962065e-06
1.680938e-06
1.4912255e-06
1.4873929e-06
1.6443358e-06
2.1303245e-06
2.9321831e-06
4.0980962e-06
5.7189757e-06
7.7538141e-06
1.0274575e-05
1.3270743e-05
1.6666232e-05
2.0336635e-05
2.4148847e-05
2.7996733e-05
3.1816179e-05
3.5575368e-05
3.9256243e-05
4.2844404e-05
4.6329041e-05
4.9704012e-05
5.2966638e-05
5.6117233e-05
5.9154972e-05
6.2080754e-05
6.4896756e-05
6.760519e-05
7.0208538e-05
7.2709081e-05
7.5109277e-05
7.7411885e-05
7.9619418e-05
8.1734319e-05
8.3759993e-05
8.5699595e-05
8.7556271e-05
8.9332925e-05
9.1032159e-05
9.2657084e-05
9.420994e-05
9.5693047e-05
9.7109018e-05
9.8459363e-05
9.9747391e-05
0.00010097571
0.00010214702
0.00010326321
0.00010432629
0.00010533824
0.00010630072
0.00010721578
0.0001080857
0.00010891205
0.00010969592
0.00011043923
0.00011114354
0.00011181044
0.00011244145
0.00011303806
0.0001136014
0.00011413275
0.0001146333
0.00011510425
0.00011554673
0.00011596185
0.00011635064
0.00011671413
0.0001170533
0.00011736908
0.00011766239
0.0001179341
0.00011818506
0.0001184161
0.00011862801
0.00011882161
0.00011899761
0.00011915694
0.00011930001
0.00011942847
0.00011954132
0.00011964342
0.00011972797
0.00011981138
0.00011986661
0.00011995472
0.00011998549
0.00012007173
0.00017139342
0.00016721927
0.00015303005
0.00013055161
0.00010507445
8.1144234e-05
6.1187451e-05
4.5525505e-05
3.3623613e-05
2.474083e-05
1.8174301e-05
1.3331753e-05
9.7438759e-06
7.1111854e-06
5.2011938e-06
3.8448071e-06
2.9033592e-06
2.3172595e-06
2.0049528e-06
1.9289113e-06
2.0655527e-06
2.5994074e-06
3.5061572e-06
4.8798475e-06
6.8020732e-06
9.2685506e-06
1.2322399e-05
1.5909797e-05
1.9902824e-05
2.4142282e-05
2.8486702e-05
3.284195e-05
3.7158026e-05
4.1407728e-05
4.5570904e-05
4.9632644e-05
5.358349e-05
5.7418526e-05
6.1135285e-05
6.4732556e-05
6.8210434e-05
7.1569761e-05
7.4811778e-05
7.7938236e-05
8.0951121e-05
8.3852476e-05
8.6644969e-05
8.9331491e-05
9.1915057e-05
9.4398643e-05
9.6785033e-05
9.9077294e-05
0.00010127813
0.00010339013
0.0001054161
0.00010735817
0.00010921938
0.00011100267
0.00011271103
0.00011434697
0.00011591289
0.00011741115
0.00011884439
0.00012021452
0.00012152326
0.0001227729
0.00012396615
0.00012510476
0.00012619059
0.00012722557
0.00012821157
0.00012915043
0.0001300437
0.00013089311
0.00013170004
0.00013246609
0.00013319271
0.00013388134
0.00013453333
0.00013515003
0.0001357327
0.0001362826
0.0001368009
0.00013728879
0.00013774737
0.00013817776
0.000138581
0.00013895816
0.00013931022
0.00013963836
0.00013994322
0.00014022673
0.00014048804
0.00014073243
0.00014095301
0.000141167
0.0001413457
0.00014155773
0.00014168548
0.00014195838
0.00017332357
0.00017438107
0.00017127943
0.00016222343
0.00014781033
0.00013006309
0.00011137868
9.3455058e-05
7.7244242e-05
6.3089231e-05
5.1018401e-05
4.0878846e-05
3.2453168e-05
2.5520738e-05
1.9865475e-05
1.5284733e-05
1.1604973e-05
8.7257684e-06
6.5252669e-06
4.8910397e-06
3.7146301e-06
2.9635403e-06
2.5475778e-06
2.4262525e-06
2.6361447e-06
3.3081726e-06
4.4700422e-06
6.2518895e-06
8.6617285e-06
1.1761256e-05
1.5517638e-05
1.9804756e-05
2.4441426e-05
2.9253431e-05
3.4117355e-05
3.8964676e-05
4.3758371e-05
4.8472619e-05
5.3087845e-05
5.7591566e-05
6.1976822e-05
6.6239328e-05
7.0376387e-05
7.4386915e-05
7.8270904e-05
8.2028898e-05
8.5662197e-05
8.9172691e-05
9.2562653e-05
9.5834581e-05
9.8990992e-05
0.00010203465
0.00010496826
0.00010779447
0.00011051605
0.00011313546
0.00011565555
0.00011807932
0.00012040989
0.00012265012
0.00012480274
0.00012687036
0.00012885581
0.00013076152
0.00013258961
0.00013434253
0.00013602312
0.00013763368
0.00013917642
0.00014065357
0.00014206734
0.0001434199
0.0001447133
0.00014594924
0.0001471298
0.00014825679
0.00014933199
0.00015035716
0.00015133398
0.0001522641
0.00015314911
0.00015399055
0.00015478992
0.00015554868
0.00015626825
0.00015695
0.00015759526
0.0001582054
0.00015878163
0.00015932543
0.00015983768
0.0001603206
0.00016077352
0.00016120209
0.00016159947
0.00016198349
0.0001623238
0.00016269746
0.00016295199
0.0001634661
0.00017374732
0.0001758643
0.00017660915
0.00017453439
0.00016887275
0.00015974565
0.00014790693
0.00013442606
0.00012026631
0.00010620765
9.2757545e-05
8.0206867e-05
6.8733451e-05
5.837762e-05
4.9113054e-05
4.0890297e-05
3.364521e-05
2.7318214e-05
2.1861491e-05
1.7218804e-05
1.3322267e-05
1.0161889e-05
7.6692169e-06
5.7677372e-06
4.4049529e-06
3.5323698e-06
3.078464e-06
2.9890889e-06
3.4401638e-06
4.4229396e-06
6.073129e-06
8.4708955e-06
1.1646888e-05
1.5594709e-05
2.0187202e-05
2.5220761e-05
3.0491236e-05
3.5850323e-05
4.121363e-05
4.6534868e-05
5.1782449e-05
5.6932982e-05
6.1971299e-05
6.6888261e-05
7.1677877e-05
7.6336252e-05
8.0861446e-05
8.5252873e-05
8.9510887e-05
9.3636577e-05
9.7631443e-05
0.00010149742
0.00010523668
0.0001088515
0.00011234436
0.00011571763
0.0001189739
0.00012211604
0.00012514705
0.00012806989
0.00013088744
0.00013360247
0.00013621787
0.00013873637
0.00014116043
0.00014349264
0.00014573592
0.00014789293
0.00014996619
0.00015195819
0.00015387141
0.0001557083
0.00015747123
0.00015916229
0.00016078376
0.0001623378
0.00016382649
0.0001652519
0.00016661602
0.0001679208
0.00016916813
0.00017035987
0.0001714978
0.00017258368
0.00017361921
0.00017460608
0.00017554589
0.00017644028
0.00017729076
0.00017809907
0.00017886636
0.00017959514
0.00018028497
0.0001809418
0.00018155892
0.00018215471
0.00018269706
0.0001832726
0.0001836862
0.00018449872
0.00017410279
0.00017611237
0.00017773577
0.00017821798
0.00017688759
0.00017334256
0.00016753068
0.00015972049
0.00015035373
0.00013993887
0.00012894882
0.00011778523
0.00010667855
9.583832e-05
8.5421175e-05
7.5524801e-05
6.6202009e-05
5.7471623e-05
4.9384867e-05
4.1950838e-05
3.5147946e-05
2.8995478e-05
2.3507757e-05
1.868323e-05
1.4540573e-05
1.1110172e-05
8.3762558e-06
6.2840322e-06
4.854655e-06
3.9845376e-06
3.6055476e-06
3.8078805e-06
4.6512037e-06
6.2354067e-06
8.6780173e-06
1.1998569e-05
1.6202165e-05
2.1148771e-05
2.6607523e-05
3.2347089e-05
3.8200957e-05
4.4074337e-05
4.9913886e-05
5.568287e-05
6.1354794e-05
6.6912532e-05
7.2345291e-05
7.7645845e-05
8.2809645e-05
8.7834248e-05
9.2718535e-05
9.7462445e-05
0.00010206669
0.00010653245
0.00011086134
0.00011505515
0.00011911596
0.00012304614
0.00012684835
0.00013052538
0.00013407997
0.00013751488
0.00014083296
0.000144037
0.00014712967
0.00015011363
0.00015299181
0.00015576707
0.00015844213
0.00016101969
0.00016350242
0.00016589299
0.00016819401
0.00017040788
0.0001725371
0.00017458409
0.00017655121
0.0001784408
0.00018025513
0.00018199642
0.00018366686
0.00018526858
0.00018680365
0.00018827411
0.00018968196
0.00019102915
0.00019231757
0.00019354915
0.00019472566
0.00019584913
0.00019692098
0.000197944
0.00019891799
0.0001998492
0.00020073108
0.00020158254
0.00020236954
0.00020318957
0.00020379712
0.00020496797
0.00017473255
0.00017639434
0.0001779671
0.00017908946
0.00017940168
0.00017856987
0.00017635575
0.00017266483
0.00016754245
0.00016114978
0.00015371828
0.00014551398
0.00013676561
0.00012767679
0.00011842747
0.00010916747
0.00010001127
9.1056683e-05
8.227835e-05
7.3742521e-05
6.5494266e-05
5.7571249e-05
5.000687e-05
4.287078e-05
3.6182113e-05
2.9989435e-05
2.4346607e-05
1.9288353e-05
1.4935363e-05
1.1333522e-05
8.4755027e-06
6.4097091e-06
5.0714869e-06
4.3752312e-06
4.3594688e-06
5.1134067e-06
6.711674e-06
9.2823173e-06
1.2848346e-05
1.7404613e-05
2.2780571e-05
2.8711385e-05
3.4943318e-05
4.1300931e-05
4.7685385e-05
5.403883e-05
6.0320952e-05
6.6503639e-05
7.256877e-05
7.8504463e-05
8.4302693e-05
8.995847e-05
9.5468912e-05
0.00010083252
0.00010604888
0.00011111827
0.00011604159
0.00012082025
0.00012545613
0.00012995139
0.00013430839
0.00013852955
0.00014261748
0.00014657485
0.00015040428
0.00015410842
0.00015769011
0.00016115223
0.00016449759
0.00016772899
0.00017084921
0.00017386105
0.00017676727
0.00017957051
0.00018227342
0.00018487863
0.00018738873
0.00018980627
0.00019213377
0.00019437369
0.00019652846
0.00019860046
0.00020059202
0.00020250546
0.00020434301
0.0002061069
0.00020779931
0.0002094224
0.00021097823
0.0002124691
0.00021389669
0.00021526407
0.00021657129
0.00021782487
0.00021901846
0.00022017152
0.00022124783
0.0002223572
0.00022319615
0.00022478805
0.00017569572
0.00017701324
0.0001783204
0.00017942669
0.00018016724
0.00018036878
0.00017985714
0.00017848286
0.00017614412
0.0001728045
0.00016849419
0.00016330094
0.00015734221
0.0001507469
0.00014364637
0.000136168
0.00012842608
0.00012053197
0.00011253901
0.00010450017
9.6468503e-05
8.848932e-05
8.0616392e-05
7.2798061e-05
6.5077173e-05
5.7500326e-05
5.0122815e-05
4.3003613e-05
3.6226952e-05
2.9878102e-05
2.4020564e-05
1.8805976e-05
1.4362983e-05
1.0743274e-05
8.0391638e-06
6.2322828e-06
5.2247765e-06
5.0523231e-06
5.784714e-06
7.5021515e-06
1.0312487e-05
1.4255572e-05
1.9285966e-05
2.5181048e-05
3.1637965e-05
3.8390231e-05
4.5265066e-05
5.2165571e-05
5.9031691e-05
6.5821429e-05
7.2506645e-05
7.9069161e-05
8.5496686e-05
9.1780927e-05
9.7916595e-05
0.0001039004
0.00010973056
0.00011540642
0.00012092823
0.00012629688
0.00013151373
0.00013658048
0.00014149915
0.00014627197
0.00015090128
0.00015538949
0.00015973921
0.00016395317
0.00016803409
0.00017198475
0.00017580793
0.00017950644
0.00018308312
0.00018654072
0.00018988198
0.00019310968
0.00019622655
0.00019923531
0.00020213864
0.0002049392
0.00020763962
0.00021024249
0.00021275036
0.00021516577
0.0002174912
0.0002197291
0.00022188188
0.00022395198
0.0002259417
0.00022785358
0.00022968957
0.00023145299
0.00023314415
0.00023476981
0.00023632385
0.00023782629
0.00023923856
0.00024068412
0.00024179439
0.00024387291
0.0001769811
0.00017800866
0.00017904305
0.00017996592
0.00018069738
0.00018116519
0.0001812876
0.00018096958
0.00018011105
0.00017862483
0.00017645218
0.00017357067
0.00016999203
0.00016575464
0.00016091571
0.0001555449
0.0001497166
0.00014351082
0.00013699491
0.00013022516
0.00012325328
0.00011612483
0.00010889422
0.00010156958
9.4166514e-05
8.6707646e-05
7.9238283e-05
7.1721441e-05
6.4163705e-05
5.6633115e-05
4.9174442e-05
4.1904459e-05
3.49414e-05
2.8375695e-05
2.2388436e-05
1.7180362e-05
1.2855091e-05
9.5733642e-06
7.34987e-06
6.0813981e-06
5.8592614e-06
6.6707371e-06
8.6492812e-06
1.18416e-05
1.6319821e-05
2.1958203e-05
2.8463258e-05
3.5497324e-05
4.2796294e-05
5.0201292e-05
5.762187e-05
6.4998819e-05
7.2291241e-05
7.9472156e-05
8.652359e-05
9.3433221e-05
0.00010019283
0.00010679707
0.00011324262
0.00011952767
0.00012565153
0.00013161436
0.00013741694
0.00014306059
0.00014854691
0.00015387779
0.00015905532
0.00016408186
0.00016895987
0.00017369188
0.00017828055
0.00018272856
0.00018703869
0.00019121369
0.00019525633
0.00019916941
0.00020295572
0.00020661807
0.00021015925
0.00021358205
0.00021688923
0.00022008354
0.00022316771
0.00022614444
0.0002290164
0.00023178625
0.00023445662
0.00023703015
0.00023950936
0.00024189703
0.00024419535
0.00024640786
0.00024853514
0.00025058413
0.00025254901
0.00025445035
0.00025624704
0.00025807753
0.00025950141
0.00026213498
0.0001785634
0.000179357
0.00018015868
0.0001808858
0.00018149051
0.00018194347
0.00018221786
0.00018227529
0.00018206013
0.00018150573
0.00018054564
0.00017912349
0.0001771995
0.00017475291
0.00017178121
0.00016829803
0.00016432906
0.00015991055
0.0001550834
0.0001498882
0.00014436442
0.00013854873
0.00013248171
0.00012619275
0.00011970359
0.000113032
0.00010620875
9.9236804e-05
9.2109425e-05
8.4839297e-05
7.7462595e-05
6.9919885e-05
6.2248807e-05
5.451157e-05
4.6798239e-05
3.9287279e-05
3.2088327e-05
2.5421531e-05
1.9545166e-05
1.460458e-05
1.0859854e-05
8.3244127e-06
6.8959536e-06
6.7845108e-06
7.8250163e-06
1.0245383e-05
1.4029663e-05
1.9211258e-05
2.5573147e-05
3.2751627e-05
4.0394084e-05
4.8257751e-05
5.620364e-05
6.4148149e-05
7.2034806e-05
7.9825763e-05
8.7495982e-05
9.5028307e-05
0.00010241099
0.00010963615
0.00011669862
0.00012359522
0.00013032425
0.00013688508
0.00014327788
0.00014950336
0.0001555627
0.00016145749
0.0001671896
0.00017276111
0.00017817429
0.00018343155
0.00018853544
0.00019348854
0.00019829353
0.00020295312
0.00020747007
0.00021184718
0.00021608727
0.00022019317
0.0002241677
0.00022801372
0.00023173403
0.00023533148
0.00023880888
0.00024216903
0.00024541473
0.0002485488
0.00025157394
0.00025449314
0.00025730878
0.00026002461
0.00026264147
0.00026516645
0.00026759403
0.00026994535
0.00027217664
0.00027444251
0.00027622445
0.00027948433
0.00018041842
0.00018102511
0.00018163747
0.00018219478
0.00018266206
0.00018302379
0.00018327503
0.00018340865
0.00018340546
0.00018323251
0.00018284697
0.00018220152
0.00018125007
0.0001799525
0.00017827783
0.00017620569
0.00017372608
0.00017083902
0.00016755307
0.00016388269
0.00015984617
0.00015546354
0.00015075781
0.00014575178
0.00014046562
0.00013491554
0.00012912101
0.00012309633
0.0001168467
0.00011037429
0.00010369847
9.6800226e-05
8.9668107e-05
8.2313041e-05
7.4742458e-05
6.69142e-05
5.8893196e-05
5.0767735e-05
4.275137e-05
3.4972057e-05
2.7713118e-05
2.1276549e-05
1.5838988e-05
1.1796872e-05
9.0941613e-06
7.6918886e-06
7.802927e-06
9.3296636e-06
1.2385494e-05
1.6997349e-05
2.306725e-05
3.0258912e-05
3.8157836e-05
4.6430169e-05
5.4871461e-05
6.3364296e-05
7.1833116e-05
8.0226872e-05
8.8511676e-05
9.6664543e-05
0.00010466968
0.00011251637
0.00012019744
0.00012770819
0.00013504574
0.00014220849
0.00014919581
0.00015600785
0.00016264537
0.00016910957
0.00017540199
0.00018152447
0.00018747911
0.00019326815
0.00019889396
0.00020435904
0.00020966598
0.00021481746
0.00021981621
0.000224665
0.00022936665
0.000233924
0.00023833991
0.00024261728
0.00024675898
0.00025076792
0.000254647
0.00025839917
0.00026202728
0.00026553447
0.00026892331
0.00027219767
0.00027535869
0.00027841352
0.00028135699
0.00028421078
0.00028692839
0.00028968166
0.00029186816
0.00029582834
0.00018252661
0.00018298366
0.00018344352
0.00018386095
0.00018420781
0.00018447201
0.00018465412
0.00018475847
0.00018478458
0.000184723
0.00018455507
0.00018425413
0.00018378806
0.00018312239
0.00018222336
0.0001810605
0.00017960805
0.00017784612
0.00017576119
0.00017334576
0.00017059752
0.00016751822
0.00016411329
0.00016039099
0.00015636109
0.00015203294
0.00014741684
0.00014252299
0.00013735883
0.00013192717
0.00012623578
0.00012028358
0.00011406209
0.00010756604
0.00010079564
9.3719373e-05
8.6325592e-05
7.8640942e-05
7.0607047e-05
6.2267252e-05
5.3729931e-05
4.5225457e-05
3.6897127e-05
2.9141434e-05
2.2242862e-05
1.6510461e-05
1.2313748e-05
9.6144067e-06
8.5888032e-06
9.1489262e-06
1.1416249e-05
1.5366281e-05
2.1019266e-05
2.8101026e-05
3.6167016e-05
4.4796285e-05
5.3704776e-05
6.2729112e-05
7.1769536e-05
8.0759643e-05
8.9655404e-05
9.8427323e-05
0.00010705512
0.00011552487
0.00012382701
0.00013195504
0.00013990469
0.00014767333
0.00015525954
0.00016266285
0.00016988351
0.00017692232
0.00018378052
0.00019045968
0.00019696164
0.00020328848
0.00020944243
0.00021542588
0.00022124133
0.00022689139
0.00023237875
0.00023770615
0.00024287641
0.00024789238
0.00025275695
0.00025747305
0.00026204362
0.00026647168
0.00027076019
0.00027491236
0.00027893092
0.00028281985
0.0002865805
0.00029022008
0.00029373379
0.00029714379
0.00030040082
0.00030369493
0.00030633432
0.00031107144
0.00018487294
0.00018520937
0.00018554612
0.00018584945
0.00018609613
0.00018627488
0.00018638599
0.00018643577
0.00018643013
0.00018637094
0.00018625442
0.00018607057
0.00018580341
0.00018543206
0.00018493231
0.00018427842
0.00018344454
0.00018240614
0.00018114121
0.00017963102
0.00017786035
0.00017581753
0.00017349425
0.00017088541
0.00016798863
0.00016480331
0.00016133036
0.00015757192
0.00015353043
0.00014920671
0.00014460229
0.00013971715
0.00013454708
0.00012908518
0.00012332669
0.00011725663
0.00011085399
0.00010411734
9.7008744e-05
8.9501108e-05
8.1609101e-05
7.3305871e-05
6.458992e-05
5.56184e-05
4.6610584e-05
3.7801387e-05
2.9622885e-05
2.2364817e-05
1.6586171e-05
1.2477909e-05
1.0077942e-05
9.6521455e-06
1.1029446e-05
1.4292019e-05
1.945329e-05
2.633225e-05
3.4486909e-05
4.342347e-05
5.2771666e-05
6.2311692e-05
7.1914454e-05
8.14962e-05
9.1001313e-05
0.00010039266
0.00010964479
0.00011874011
0.00012766639
0.00013641521
0.00014498086
0.0001533596
0.00016154921
0.00016954854
0.00017735733
0.00018497594
0.00019240527
0.0001996466
0.00020670154
0.00021357197
0.00022025998
0.00022676783
0.00023309793
0.00023925282
0.00024523513
0.0002510476
0.00025669301
0.00026217425
0.00026749422
0.00027265594
0.0002776624
0.00028251685
0.00028722211
0.0002917822
0.0002961987
0.00030047878
0.00030461804
0.0003086391
0.00031248988
0.00031637953
0.00031952177
0.00032511498
0.00018744594
0.00018768438
0.00018792108
0.00018813104
0.00018829511
0.00018840247
0.00018845196
0.0001884486
0.00018839902
0.0001883087
0.00018818053
0.00018801382
0.00018780371
0.00018754108
0.00018721299
0.0001868033
0.00018629347
0.00018566348
0.0001848928
0.00018396129
0.00018284987
0.00018154102
0.00018001913
0.00017827074
0.00017628459
0.00017405146
0.00017156392
0.00016881619
0.00016580377
0.00016252258
0.00015896897
0.00015513937
0.000151029
0.00014663102
0.00014193816
0.00013694017
0.00013162051
0.00012596691
0.00011995763
0.00011356232
0.00010676447
9.9533052e-05
9.1821843e-05
8.3650081e-05
7.4981028e-05
6.5827421e-05
5.6378019e-05
4.6835815e-05
3.7608479e-05
2.9102716e-05
2.1742593e-05
1.6150683e-05
1.2385471e-05
1.0800061e-05
1.1215661e-05
1.3775445e-05
1.8387569e-05
2.4987445e-05
3.3160818e-05
4.2358865e-05
5.2123609e-05
6.216891e-05
7.2329562e-05
8.2501705e-05
9.2616893e-05
0.00010262962
0.00011250881
0.00012223296
0.00013178707
0.00014116072
0.0001503467
0.00015934015
0.00016813795
0.00017673829
0.00018514034
0.00019334401
0.00020134983
0.0002091588
0.00021677228
0.00022419196
0.00023141975
0.00023845781
0.00024530845
0.00025197413
0.00025845745
0.00026476111
0.00027088791
0.00027684077
0.00028262264
0.00028823672
0.00029368589
0.00029897414
0.00030410322
0.00030908021
0.00031390115
0.000318589
0.00032308893
0.00032762991
0.00033132643
0.00033785719
0.00019023677
0.00019039499
0.00019054978
0.00019068282
0.00019077844
0.0001908265
0.00019082459
0.00019077584
0.00019068569
0.00019055981
0.00019040304
0.00019021853
0.00019000713
0.00018976695
0.0001894932
0.00018917826
0.00018881182
0.00018838116
0.00018787173
0.00018726765
0.00018655225
0.00018570861
0.00018472002
0.0001835704
0.00018224465
0.00018072879
0.00017901015
0.00017707732
0.00017492016
0.0001725295
0.00016989695
0.0001670147
0.00016387503
0.00016046957
0.00015678933
0.00015282428
0.00014856111
0.00014398575
0.00013908119
0.00013382379
0.00012819024
0.00012215407
0.00011567457
0.00010872906
0.00010127777
9.3266105e-05
8.4730595e-05
7.5581541e-05
6.5911954e-05
5.5911878e-05
4.5873504e-05
3.6324158e-05
2.7613584e-05
2.0543947e-05
1.5401875e-05
1.2432922e-05
1.190166e-05
1.3690145e-05
1.7744976e-05
2.4045851e-05
3.2207056e-05
4.1641133e-05
5.1808797e-05
6.235418e-05
7.3071761e-05
8.3835551e-05
9.4563339e-05
0.00010520072
0.00011571078
0.00012606795
0.00013625441
0.00014625764
0.00015606889
0.00016568212
0.00017509333
0.00018429996
0.00019330062
0.00020209477
0.00021068256
0.00021906468
0.00022724226
0.00023521679
0.00024299003
0.00025056401
0.00025794096
0.00026512327
0.0002721135
0.00027891439
0.00028552874
0.00029195964
0.00029820991
0.00030428345
0.00031018217
0.00031591294
0.00032147226
0.00032688339
0.00033208874
0.00033733779
0.00034164127
0.00034919316
0.0001932386
0.00019333065
0.00019341788
0.00019348711
0.00019352559
0.00019352406
0.00019347931
0.00019339289
0.00019326871
0.00019311151
0.000192926
0.00019271634
0.00019248554
0.00019223511
0.00019196483
0.00019167254
0.00019135401
0.00019100293
0.00019061098
0.0001901681
0.00018966265
0.00018908173
0.00018841153
0.0001876377
0.0001867456
0.00018572069
0.00018454874
0.00018321604
0.00018170954
0.00018001685
0.00017812628
0.0001760267
0.00017370743
0.00017115786
0.00016836721
0.00016532433
0.00016201669
0.00015843054
0.00015455051
0.00015035773
0.00014583064
0.00014094558
0.00013567097
0.00012997574
0.00012382538
0.00011716754
0.00010998265
0.00010220318
9.3783751e-05
8.476606e-05
7.5026305e-05
6.477156e-05
5.4163725e-05
4.3749035e-05
3.3959677e-05
2.5447533e-05
1.8920357e-05
1.463302e-05
1.3095874e-05
1.4052454e-05
1.7537585e-05
2.3521427e-05
3.165067e-05
4.1305724e-05
5.18698e-05
6.291491e-05
7.4191891e-05
8.5551092e-05
9.6895999e-05
0.00010816301
0.00011930916
0.00013030476
0.00014112905
0.00015176741
0.00016220953
0.00017244818
0.00018247842
0.00019229698
0.00020190189
0.00021129214
0.00022046753
0.00022942845
0.00023817578
0.00024671083
0.00025503522
0.00026315086
0.00027105991
0.00027876476
0.00028626795
0.00029357234
0.00030068061
0.00030759649
0.00031432196
0.00032086362
0.00032721844
0.00033340987