/*--------------------------------*- C++ -*----------------------------------*\
| =========                 |                                                 |
| \\      /  F ield         | OpenFOAM: The Open Source CFD Toolbox           |
|  \\    /   O peration     | Version:  2206                                  |
|   \\  /    A nd           | Website:  www.openfoam.com                      |
|    \\/     M anipulation  |                                                 |
\*---------------------------------------------------------------------------*/
FoamFile
{
    version     2.0;
    format      ascii;
    arch        "LSB;label=32;scalar=64";
    class       volScalarField;
    location    "1000";
    object      p;
}
// * * * * * * * * * * * * * * * * * * * * * * * * * * * * * * * * * * * * * //

dimensions      [0 2 -2 0 0 0 0];

internalField   nonuniform List<scalar> 
7480
(
0.062778846
0.051860266
0.036454193
0.027105044
0.021837385
0.018678869
0.016689039
0.015168449
0.013834858
0.012723227
0.011841437
0.011148899
0.010624407
0.010241636
0.0099699264
0.0097868379
0.0096720905
0.0096116608
0.0095851597
0.0095822402
0.0096042998
0.0096272814
0.0096433932
0.0096553857
0.0096611768
0.0096595574
0.0096513351
0.0096366804
0.0096141855
0.0095844177
0.0095486161
0.0095072295
0.0094607591
0.0094099704
0.0093548313
0.0092955465
0.0092322746
0.0091648982
0.0090938719
0.0090195944
0.0089421121
0.0088613275
0.0087777829
0.0086915647
0.0086026526
0.0085114364
0.0084177335
0.0083216615
0.0082234262
0.0081227758
0.008020053
0.00791523
0.0078083229
0.0076995044
0.0075885321
0.0074756421
0.0073607476
0.0072438485
0.0071249464
0.0070039744
0.0068810602
0.006756064
0.0066290855
0.0065000201
0.0063688912
0.0062356524
0.0061002637
0.0059626967
0.0058229139
0.0056809105
0.0055366289
0.0053900648
0.0052411606
0.0050899243
0.0049362915
0.0047802701
0.0046218041
0.0044609212
0.0042975773
0.0041318205
0.0039636278
0.0037930759
0.0036201905
0.0034450712
0.003267851
0.0030886534
0.0029077945
0.0027254679
0.0025423473
0.0023585893
0.0021760339
0.0019936577
0.0018183405
0.0016408516
0.0014918817
0.0013182993
0.001257224
0.0010529522
0.0018192049
-0.0017943449
0.059087686
0.050851628
0.038516351
0.029247343
0.022958564
0.019177734
0.016934242
0.015320873
0.013950282
0.012822967
0.011930245
0.011228025
0.010695273
0.010304666
0.010025388
0.0098354346
0.0097148172
0.009648983
0.0096215863
0.0096200047
0.0096341388
0.0096501263
0.0096639381
0.0096739245
0.0096779083
0.00967474
0.0096651718
0.0096493123
0.009625749
0.0095950542
0.0095584402
0.0095163231
0.0094691962
0.0094178151
0.0093621371
0.0093023655
0.009238655
0.0091708818
0.0090994919
0.0090248818
0.0089470929
0.0088660258
0.0087822212
0.0086957611
0.0086066242
0.0085151988
0.0084213003
0.0083250466
0.0082266415
0.0081258317
0.0080229597
0.0079179962
0.0078109568
0.0077020133
0.007590923
0.0074779217
0.0073629218
0.0072459229
0.0071269266
0.0070058652
0.006882866
0.006757789
0.0066307337
0.0065015953
0.0063703968
0.006237092
0.0061016403
0.0059640134
0.0058241735
0.0056821157
0.0055377821
0.0053911685
0.005242217
0.0050909355
0.0049372596
0.0047811972
0.004622692
0.0044617716
0.0042983919
0.0041326011
0.0039643758
0.0037937928
0.0036208778
0.0034457302
0.003268483
0.0030892598
0.0029083765
0.0027260268
0.0025428843
0.0023591058
0.0021765313
0.0019941372
0.0018188049
0.0016413013
0.001492323
0.0013187323
0.0012576626
0.0010534738
0.0018196209
-0.0017937852
0.055319713
0.048535579
0.037747931
0.029011327
0.023218414
0.019689166
0.0174332
0.015724531
0.014269606
0.013091444
0.012161827
0.011428754
0.010871999
0.010461155
0.010164445
0.0099599283
0.0098264724
0.0097491201
0.0097125838
0.0097018638
0.00970467
0.0097129235
0.0097204883
0.0097247228
0.0097236734
0.0097162286
0.0097029478
0.0096836915
0.009657086
0.009623749
0.009584833
0.0095406481
0.0094916658
0.0094386083
0.0093814123
0.0093202479
0.0092552816
0.0091863938
0.0091139695
0.0090384158
0.008959762
0.0088779012
0.0087933715
0.0087062412
0.0086164853
0.0085244875
0.0084300555
0.0083333091
0.0082344464
0.0081332098
0.0080299416
0.0079246076
0.007817222
0.0077079542
0.0075965588
0.007483272
0.0073680031
0.0072507512
0.0071315168
0.0070102311
0.0068870205
0.0067617433
0.0066344991
0.0065051819
0.0063738143
0.0062403492
0.0061047457
0.005966975
0.0058269987
0.0056848114
0.0055403548
0.0053936244
0.0052445619
0.0050931749
0.0049393987
0.0047832409
0.0046246449
0.0044636383
0.0043001765
0.0041343075
0.0039660078
0.0037953541
0.0036223718
0.0034471602
0.0032698522
0.0030905712
0.0029096332
0.0027272316
0.0025440405
0.0023602159
0.0021775994
0.0019951649
0.0018198001
0.0016422615
0.0014932691
0.001319651
0.0012586115
0.0010544306
0.0018207047
-0.0017930516
0.05241845
0.046813564
0.037490125
0.029321234
0.023792498
0.02024204
0.017892914
0.016133468
0.014646304
0.013438313
0.012474786
0.011706517
0.011120674
0.010684162
0.010364132
0.010138776
0.0099860895
0.0098915888
0.0098398336
0.0098157043
0.0098072592
0.0098059061
0.0098048642
0.0098014441
0.0097935049
0.0097799777
0.0097613236
0.0097371476
0.0097061063
0.0096688847
0.0096265217
0.0095791999
0.0095273877
0.0094717658
0.009412239
0.0093488605
0.0092818907
0.0092112429
0.0091371466
0.0090600732
0.0089800255
0.008896882
0.0088111793
0.0087229643
0.0086322067
0.0085392812
0.0084439821
0.0083464348
0.0082468284
0.0081448978
0.0080409866
0.0079350517
0.0078271058
0.0077173137
0.0076054256
0.0074916787
0.0073759766
0.0072583172
0.0071386995
0.0070170539
0.0068935049
0.006767908
0.0066403624
0.0065107606
0.0063791243
0.0062454047
0.0061095605
0.0059715621
0.0058313703
0.0056889787
0.0055443283
0.005397414
0.0052481771
0.0050966247
0.0049426912
0.004786384
0.0046276462
0.0044665048
0.0043029149
0.0041369241
0.0039685086
0.0037977448
0.0036246579
0.0034493469
0.0032719446
0.003092574
0.0029115511
0.0027290692
0.0025458025
0.0023619065
0.0021792245
0.0019967276
0.0018213109
0.0016437183
0.0014946994
0.0013210383
0.0012600347
0.0010558069
0.0018223747
-0.0017920649
0.049712429
0.044988188
0.03702134
0.029671739
0.024430158
0.020826903
0.018354889
0.016499891
0.014941417
0.01371604
0.012748989
0.011973116
0.011370975
0.010912213
0.010572495
0.010329274
0.010160197
0.010050785
0.0099834752
0.0099445876
0.009923279
0.0099103693
0.009900047
0.0098890125
0.0098742754
0.0098545955
0.0098304187
0.0098011838
0.0097654961
0.0097241045
0.0096779165
0.0096270246
0.0095719237
0.0095132894
0.0094510055
0.0093849852
0.0093156057
0.0092428064
0.0091666606
0.0090877094
0.0090059284
0.0089211808
0.0088340052
0.0087444218
0.0086523963
0.0085582942
0.008461889
0.0083633138
0.0082627501
0.0081599244
0.0080551834
0.0079484713
0.0078398002
0.0077293297
0.0076168046
0.0075024631
0.0073862001
0.0072680124
0.0071478981
0.0070257866
0.0069018
0.0067757897
0.0066478547
0.0065178854
0.0063859024
0.0062518546
0.0061156999
0.005977408
0.0058369386
0.005694284
0.0055493841
0.0054022335
0.0052527727
0.0051010078
0.0049468726
0.004790374
0.0046314543
0.0044701403
0.0043063864
0.0041402398
0.0039716763
0.0038007718
0.0036275512
0.0034521133
0.0032745903
0.0030951053
0.0029139741
0.0027313896
0.0025480262
0.0023640389
0.0021812725
0.0019986953
0.00182321
0.0016455485
0.0014964878
0.0013227723
0.0012617937
0.0010575086
0.0018244503
-0.0017908353
0.047223161
0.043097644
0.036337008
0.029804964
0.024856466
0.021316257
0.018804666
0.016894557
0.015299348
0.014034032
0.013027309
0.012211103
0.011582372
0.011104916
0.010755892
0.010500783
0.010314808
0.010194666
0.010118153
0.010071002
0.01004209
0.010020438
0.010001191
0.0099815001
0.0099587489
0.0099322873
0.0099026931
0.0098688501
0.0098289506
0.0097837652
0.0097340334
0.0096797267
0.0096213808
0.0095597077
0.0094945771
0.009425847
0.0093539644
0.0092788523
0.0092005156
0.0091195356
0.0090358594
0.0089493355
0.0088605166
0.0087693916
0.0086759228
0.0085804788
0.0084828104
0.0083830576
0.008281394
0.0081775339
0.008071829
0.0079642106
0.0078546916
0.0077434275
0.0076301569
0.0075151186
0.0073981961
0.0072793872
0.0071586891
0.0070360293
0.0069115272
0.0067850291
0.0066566344
0.0065262314
0.0063938395
0.0062594045
0.0061228832
0.0059842452
0.0058434483
0.0057004835
0.0055552895
0.0054078603
0.0052581357
0.0051061207
0.0049517479
0.0047950239
0.0046358903
0.0044743732
0.0043104264
0.0041440967
0.0039753592
0.0038042895
0.0036309119
0.0034553249
0.0032776604
0.003098041
0.0029167825
0.0027340773
0.0025506001
0.0023665052
0.0021836388
0.0020009671
0.0018253983
0.0016476555
0.0014985368
0.0013247567
0.0012637845
0.0010594417
0.0018267972
-0.0017894045
0.045052435
0.041341618
0.035537664
0.029750133
0.02514121
0.021719228
0.019202378
0.017260338
0.015654084
0.014362965
0.013326609
0.012482366
0.011822915
0.011314924
0.010937039
0.010654658
0.010446002
0.010312885
0.010227807
0.010172479
0.010136726
0.010111539
0.010090584
0.010069141
0.010043404
0.010012268
0.0099771489
0.0099377752
0.0098928281
0.0098436668
0.0097907275
0.0097334922
0.0096723892
0.0096081097
0.0095404401
0.0094692322
0.0093950156
0.0093176739
0.0092371883
0.0091541995
0.0090686163
0.0089802737
0.0088897557
0.0087970169
0.0087020187
0.0086051442
0.0085061232
0.0084051069
0.0083022585
0.0081972746
0.0080905179
0.0079819054
0.0078714514
0.0077593087
0.0076452073
0.0075293895
0.0074117301
0.007292228
0.0071708776
0.0070476026
0.0069225203
0.0067954721
0.0066665584
0.0065356655
0.0064028115
0.0062679381
0.0061310016
0.0059919712
0.0058508031
0.0057074867
0.0055619595
0.0054142145
0.0052641904
0.0051118914
0.0049572489
0.0048002691
0.0046408926
0.0044791451
0.0043149793
0.0041484416
0.0039795066
0.0038082493
0.0036346934
0.0034589372
0.0032811119
0.0031013399
0.0029199367
0.0027370944
0.0025534876
0.0023692702
0.0021862891
0.0020035092
0.0018278425
0.0016500068
0.001500813
0.0013269582
0.0012659698
0.0010615639
0.0018293585
-0.0017877779
0.043149923
0.039813649
0.034758628
0.029597161
0.025320879
0.022036545
0.019544597
0.01759247
0.015980825
0.01467056
0.013613145
0.012751421
0.012069936
0.011536441
0.011135058
0.010828609
0.010595337
0.010440799
0.010334697
0.010260923
0.010211435
0.010178877
0.010154598
0.01013077
0.010105097
0.010075681
0.010041915
0.010002969
0.0099564405
0.0099041186
0.0098474233
0.0097865144
0.0097223733
0.0096557182
0.0095859464
0.009512721
0.0094366108
0.0093574008
0.0092750434
0.0091902627
0.0091029289
0.0090128768
0.0089207374
0.0088264314
0.0087299286
0.0086316308
0.0085312443
0.0084289422
0.0083248781
0.0082187306
0.0081108802
0.0080012274
0.0078897882
0.0077767142
0.0076617241
0.0075450691
0.0074266177
0.0073063693
0.0071843141
0.0070603717
0.0069346581
0.0068070105
0.0066775303
0.0065461004
0.0064127382
0.0062773828
0.00613999
0.0060005275
0.0058589496
0.005715245
0.0055693497
0.0054212555
0.0052708998
0.0051182861
0.0049633446
0.0048060809
0.004646435
0.0044844315
0.0043200225
0.0041532538
0.0039840992
0.0038126333
0.0036388791
0.0034629345
0.0032849303
0.0031049883
0.0029234238
0.0027404284
0.0025566767
0.0023723223
0.0021892122
0.0020063109
0.0018305318
0.0016525917
0.001503305
0.0013293649
0.0012683355
0.0010638567
0.0018321028
-0.0017859394
0.041440769
0.038462966
0.03405177
0.029428394
0.025449894
0.022298616
0.019845542
0.017895823
0.016284096
0.014963147
0.013890214
0.013012836
0.01231092
0.011756641
0.011332103
0.011004795
0.010753055
0.010578156
0.010453108
0.010362742
0.010298351
0.010251613
0.010214869
0.01018056
0.010148345
0.010117366
0.010083714
0.010045447
0.01000193
0.0099527667
0.0098982955
0.0098376729
0.0097719021
0.0097026602
0.0096301788
0.0095546152
0.0094767503
0.009396047
0.0093122384
0.0092260813
0.0091373544
0.0090458834
0.0089523593
0.0088566669
0.0087587984
0.0086591838
0.0085575054
0.0084539707
0.0083487268
0.0082414349
0.0081324999
0.0080218045
0.0079093709
0.0077953501
0.0076794495
0.007561932
0.0074426586
0.0073216312
0.0071988369
0.007074192
0.0069478119
0.0068195291
0.0066894471
0.0065574439
0.0064235369
0.006287665
0.0061497824
0.0060098547
0.0058678349
0.0057237108
0.005577417
0.0054289444
0.0052782289
0.005125273
0.0049700063
0.0048124338
0.0046524941
0.0044902114
0.0043255369
0.0041585159
0.0039891212
0.003817427
0.0036434558
0.0034673048
0.0032891044
0.0031089759
0.0029272342
0.0027440706
0.0025601594
0.0023756539
0.0021924008
0.0020093653
0.0018334594
0.0016554033
0.0015060051
0.0013319687
0.0012708712
0.0010663071
0.0018350023
-0.001783866
0.03988641
0.037229857
0.033383216
0.029247652
0.025551555
0.022532551
0.020125353
0.018183798
0.016573768
0.01524549
0.014159284
0.013267506
0.012547618
0.011974338
0.011528191
0.011181233
0.010911682
0.010716944
0.01057432
0.010469267
0.010391173
0.010331458
0.010283923
0.010240244
0.01019947
0.010160637
0.010119638
0.010075504
0.010030283
0.0099819041
0.0099289662
0.0098714948
0.009809393
0.0097429431
0.0096716767
0.0095954377
0.009515833
0.0094331673
0.0093476233
0.009260194
0.009170395
0.0090778824
0.0089833531
0.0088866056
0.0087876476
0.0086869434
0.0085841499
0.0084795249
0.0083732138
0.0082648627
0.0081549109
0.0080432228
0.0079298318
0.00781489
0.0076980936
0.0075797212
0.0074596246
0.007337811
0.0072142659
0.0070889034
0.006961839
0.0068329004
0.0067021946
0.0065695948
0.0064351192
0.0062987055
0.0061603077
0.0060198894
0.0058774025
0.0057328335
0.0055861163
0.0054372409
0.0052861415
0.0051328202
0.0049772056
0.004819302
0.004659047
0.0044964644
0.0043315042
0.0041642114
0.0039945579
0.0038226175
0.0036484117
0.0034720376
0.0032936248
0.0031132942
0.0029313603
0.002748014
0.0025639291
0.002379259
0.0021958494
0.0020126669
0.0018366197
0.0016584363
0.0015089074
0.0013347636
0.0012735687
0.0010689048
0.0018380306
-0.0017815305
0.038465735
0.036089011
0.032728399
0.029036115
0.025616848
0.022738056
0.020387666
0.018462138
0.016856405
0.015522695
0.01442444
0.013518891
0.012782206
0.012190622
0.011724282
0.01135809
0.011070944
0.010857394
0.010697876
0.01057737
0.010485485
0.010413642
0.01035581
0.010303771
0.010255338
0.010209428
0.010162115
0.010112748
0.010062536
0.010009133
0.0099515631
0.0098920513
0.0098307129
0.0097661365
0.0096976917
0.0096250802
0.0095484151
0.0094673648
0.0093816735
0.009293047
0.0092018021
0.0091080324
0.0090126049
0.0089150882
0.0088153791
0.0087139216
0.0086103068
0.0085048416
0.008397669
0.008288423
0.0081775899
0.0080650175
0.0079507575
0.0078349664
0.0077173295
0.0075981459
0.0074772577
0.0073546804
0.0072303988
0.0071043264
0.0069765804
0.0068469833
0.0067156474
0.006582442
0.0064473863
0.006310417
0.0061714883
0.0060305628
0.005887591
0.0057425591
0.0055953997
0.0054461024
0.0052946002
0.0051408944
0.0049849129
0.0048266595
0.0046660708
0.0045031701
0.0043379066
0.0041703247
0.0040003954
0.0038281923
0.0036537361
0.0034771233
0.0032984831
0.0031179358
0.0029357955
0.0027522527
0.0025679808
0.002383133
0.0021995536
0.0020162119
0.001840009
0.0016616871
0.0015120075
0.0013377449
0.0012764217
0.0010716411
0.0018411623
-0.0017789011
0.037162833
0.035029425
0.032083045
0.028788137
0.025637402
0.022907115
0.020626282
0.018727276
0.017131142
0.015795426
0.014687313
0.013768977
0.013016335
0.012406971
0.011921189
0.011536031
0.011231382
0.010999605
0.010823267
0.010687437
0.010581971
0.010498052
0.010429479
0.010368656
0.010312604
0.010260026
0.010207292
0.01015331
0.010098547
0.010040913
0.0099798378
0.0099169798
0.0098521298
0.0097839736
0.0097134062
0.0096414119
0.0095666203
0.0094881914
0.0094059719
0.0093201963
0.0092305492
0.009136809
0.009040502
0.0089419067
0.0088413163
0.0087392338
0.0086350592
0.0085290596
0.0084213188
0.0083114327
0.0081999375
0.0080866603
0.0079716805
0.007855164
0.007736787
0.0076168764
0.007495265
0.0073719792
0.0072470049
0.0071202564
0.0069918543
0.0068616166
0.0067296629
0.0065958588
0.0064602259
0.0063227
0.0061832363
0.006041797
0.0058983319
0.0057528267
0.0056052134
0.0054554816
0.005303563
0.0051494588
0.0049930958
0.0048344778
0.0046735405
0.0045103068
0.0043447249
0.004176839
0.0040066192
0.0038341389
0.0036594179
0.0034825525
0.0033036712
0.0031228937
0.0029405339
0.0027567817
0.0025723099
0.0023872721
0.0022035102
0.0020199972
0.0018436244
0.0016651529
0.0015153021
0.0013409093
0.0012794248
0.0010745085
0.0018443715
-0.0017759408
0.035964242
0.034043257
0.031449359
0.028507362
0.025612708
0.023035805
0.020835597
0.018973756
0.017393989
0.01606104
0.014946389
0.014017119
0.013249871
0.012623617
0.012119206
0.011715511
0.011393461
0.011143807
0.010950712
0.010799688
0.010680563
0.010584555
0.010505205
0.010435326
0.010371488
0.010312095
0.010253688
0.010194822
0.010135656
0.010074427
0.010010411
0.0099446597
0.0098768659
0.0098060585
0.009733084
0.009658515
0.0095809334
0.0095006905
0.0094191064
0.0093351514
0.0092480151
0.0091575132
0.0090638216
0.0089665469
0.0088659432
0.0087631564
0.0086581731
0.0085515972
0.0084434436
0.0083331579
0.0082212704
0.0081075403
0.0079920616
0.0078750075
0.0077560456
0.0076355394
0.0075133136
0.0073894109
0.00726382
0.0071364582
0.007007452
0.006876615
0.0067440765
0.0066096993
0.0064735086
0.0063354399
0.0061954502
0.0060535022
0.0059095455
0.005763566
0.0056154955
0.0054653238
0.0053129819
0.0051584708
0.005001717
0.0048427242
0.0046814274
0.0045178491
0.0043519371
0.0041837352
0.0040132127
0.003840443
0.0036654449
0.0034883146
0.0033091799
0.0031281601
0.0029455688
0.0027615953
0.0025769117
0.0023916722
0.0022077155
0.0020240199
0.001847463
0.0016688312
0.0015187881
0.0013442533
0.0012825728
0.0010774998
0.0018476309
-0.0017726076
0.034858351
0.033123635
0.030830151
0.028200007
0.025546441
0.02312438
0.021013169
0.019197882
0.017641407
0.016316487
0.015199246
0.014261593
0.013481636
0.012839829
0.01231788
0.011896313
0.011557135
0.011290009
0.01108034
0.010914187
0.010781362
0.010673181
0.010582988
0.010503915
0.010432167
0.010365779
0.010301455
0.010237532
0.010173887
0.010108909
0.010041725
0.009973071
0.0099027309
0.0098298539
0.0097549142
0.0096781949
0.0095985789
0.0095165562
0.0094329969
0.0093468093
0.0092583335
0.009168582
0.0090766678
0.0089818693
0.008884218
0.0087836906
0.0086796231
0.0085729073
0.0084641807
0.008353321
0.008241067
0.0081270556
0.0080113085
0.0078939532
0.0077746202
0.0076537066
0.0075310247
0.0074066389
0.0072805442
0.0071526641
0.0070231344
0.0068917653
0.0067586985
0.0066237947
0.0064870845
0.0063485036
0.0062080122
0.0060655741
0.0059211395
0.0057746954
0.0056261736
0.0054755651
0.0053228003
0.0051678809
0.0050107328
0.0048513603
0.0046896977
0.0045257678
0.0043595175
0.0041909908
0.0040201564
0.0038470875
0.0036718023
0.0034943968
0.0033149983
0.0031337258
0.0029508922
0.0027666868
0.0025817806
0.0023963285
0.0022121655
0.0020282764
0.0018515216
0.001672719
0.001522462
0.0013477737
0.0012858604
0.0010806075
0.0018509111
-0.0017688537
0.03383509
0.032264359
0.030227662
0.027872336
0.025443603
0.02317512
0.021158705
0.019397743
0.01787103
0.016559377
0.015443732
0.01450066
0.013710258
0.013054577
0.012516431
0.012077884
0.011722058
0.011437964
0.011212011
0.011030862
0.010884381
0.010763985
0.010662892
0.010574475
0.010494658
0.010421133
0.010350741
0.010281632
0.010213382
0.010144475
0.010073964
0.010002323
0.0099293467
0.0098542389
0.0097772731
0.0096986834
0.0096175599
0.0095341534
0.0094489991
0.009361256
0.009271398
0.0091800057
0.009086249
0.0089907382
0.0088940029
0.0087952192
0.0086936254
0.0085894818
0.0084824952
0.0083721694
0.0082596614
0.0081451874
0.0080291004
0.0079115339
0.0077920065
0.0076708975
0.0075479638
0.0074232776
0.0072968358
0.0071685705
0.0070386306
0.006906825
0.0067733123
0.0066379516
0.0065007809
0.0063617377
0.0062207857
0.0060778914
0.0059330062
0.0057861194
0.0056371633
0.0054861308
0.0053329523
0.0051776306
0.0050200917
0.0048603407
0.0046983115
0.0045340276
0.0043674354
0.0041985791
0.0040274268
0.0038540521
0.0036784725
0.003500784
0.0033211134
0.0031395794
0.0029564946
0.0027720479
0.0025869094
0.002401235
0.0022168551
0.0020327622
0.0018557961
0.0016768127
0.0015263197
0.0013514665
0.0012892816
0.0010838234
0.0018541791
-0.0017646251
0.03288569
0.031459825
0.029643426
0.027529947
0.025309351
0.023191111
0.021273107
0.019572643
0.018081461
0.016788037
0.015678152
0.014732813
0.013934447
0.01326681
0.012714003
0.012259566
0.011887762
0.011587313
0.011345473
0.011149544
0.010989515
0.010856917
0.010744897
0.010647022
0.010559
0.010478229
0.010401628
0.010327187
0.010254207
0.010181235
0.010107268
0.010032543
0.0099568251
0.0098793582
0.0098002823
0.0097197662
0.009637015
0.0095521569
0.0094656397
0.0093767965
0.0092858903
0.0091932596
0.0090983179
0.0090016976
0.0089034713
0.0088031519
0.0087015543
0.0085985009
0.0084932085
0.0083853856
0.0082750375
0.0081616803
0.0080457677
0.0079279222
0.0078080664
0.0076867714
0.0075637148
0.0074389088
0.0073123075
0.0071838299
0.0070536322
0.0069215199
0.0067876727
0.0066519503
0.0065144013
0.0063749658
0.0062336134
0.0060903138
0.005945021
0.005797727
0.0056483661
0.0054969334
0.0053433604
0.0051876514
0.005029733
0.0048696118
0.0047072218
0.0045425871
0.0043756542
0.0042064679
0.0040349959
0.0038613123
0.003685434
0.0035074575
0.003327509
0.0031457069
0.0029623638
0.0027776683
0.0025922893
0.0024063841
0.0022217775
0.0020374718
0.0018602813
0.0016811078
0.0015303563
0.0013553269
0.0012928294
0.0010871382
0.0018573983
-0.0017598613
0.032002498
0.030704975
0.029078344
0.027177615
0.02514856
0.023175674
0.021357886
0.019722637
0.018271987
0.01700136
0.015901241
0.014956829
0.014153081
0.013475556
0.012909763
0.012440684
0.012053738
0.011737648
0.011480417
0.011270011
0.011096604
0.010951868
0.010828933
0.010721523
0.010625191
0.010537076
0.010454136
0.010374229
0.010296412
0.010219263
0.010141721
0.010063812
0.0099852547
0.0099053291
0.0098240551
0.0097415347
0.0096570628
0.0095706804
0.009482755
0.0093927109
0.0093007176
0.0092070801
0.0091113268
0.0090138397
0.0089146062
0.0088133509
0.0087108133
0.0086063507
0.008500014
0.0083926725
0.0082836691
0.0081722102
0.0080585047
0.007942244
0.0078229722
0.0077015937
0.0075782824
0.0074533106
0.0073266267
0.007198082
0.0070677946
0.0069355373
0.0068015014
0.0066655427
0.0065277236
0.0063879891
0.0062463166
0.006102681
0.0059570402
0.0058093902
0.0056596678
0.0055078715
0.0053539343
0.0051978632
0.0050395858
0.0048791108
0.0047163726
0.0045513971
0.0043841305
0.004214619
0.00404283
0.0038688385
0.0036926611
0.0035143947
0.0033341654
0.0031520913
0.002968485
0.0027835351
0.0025979091
0.0024117662
0.0022269245
0.0020423977
0.0018649707
0.0016855985
0.0015345654
0.0013593492
0.001296496
0.0010905411
0.0018605276
-0.0017544939
0.03117881
0.029995274
0.028532818
0.026819314
0.024965683
0.023132112
0.021414844
0.01984823
0.018442333
0.01719864
0.016112068
0.015171734
0.01436522
0.013679957
0.013102946
0.012620589
0.012219466
0.011888542
0.011616508
0.011392004
0.011205455
0.0110487
0.010914898
0.010797915
0.010693193
0.010597651
0.01050826
0.010422769
0.010340016
0.010258582
0.010177355
0.010096169
0.010014689
0.0099322192
0.0098486715
0.0097640786
0.0096778094
0.0095898279
0.0095004262
0.0094091062
0.0093159713
0.0092212835
0.0091246228
0.0090262868
0.0089263031
0.0088244231
0.0087211034
0.0086158147
0.0085087359
0.0084004269
0.008290208
0.0081785408
0.0080656017
0.0079506899
0.007833512
0.0077139411
0.0075915512
0.0074667416
0.0073398992
0.0072112054
0.0070808596
0.0069485696
0.0068144938
0.006678449
0.006540497
0.0064005832
0.0062586943
0.0061148126
0.0059689015
0.005820963
0.0056709374
0.0055188279
0.0053645695
0.0052081729
0.0050495671
0.004888764
0.0047256989
0.0045603996
0.0043928131
0.0042229871
0.0040508892
0.0038765956
0.0037001228
0.0035215685
0.0033410587
0.0031587117
0.0029748401
0.0027896324
0.0026037551
0.0024173691
0.0022322855
0.0020475308
0.0018698558
0.0016902772
0.0015389395
0.001363526
0.0013002717
0.0010940197
0.0018635204
-0.0017484465
0.030408735
0.029326664
0.028006869
0.026458304
0.024764714
0.023063604
0.021445913
0.019950199
0.018592518
0.017379441
0.016309937
0.015376746
0.014570072
0.01387926
0.013292857
0.01279867
0.012384445
0.012039568
0.0117534
0.011515252
0.011315858
0.011147254
0.011002673
0.010876114
0.01076295
0.010659916
0.010563979
0.010472798
0.010385015
0.010299196
0.01021418
0.010129629
0.010045147
0.0099600528
0.0098741615
0.0097874375
0.0096993073
0.0096096682
0.009518738
0.0094260829
0.0093317451
0.009235944
0.0091383145
0.0090390937
0.0089383097
0.0088357167
0.0087317047
0.0086258623
0.0085182557
0.008409258
0.0082983603
0.0081860639
0.0080720567
0.0079563173
0.0078395215
0.0077210831
0.0076003503
0.0074773517
0.0073516829
0.0072233844
0.0070929914
0.0069605758
0.0068264561
0.0066904101
0.0065524537
0.0064124975
0.0062705202
0.0061265056
0.0059804228
0.0058322815
0.0056820272
0.0055296695
0.0053751464
0.0052184733
0.0050595813
0.0048984861
0.0047351244
0.0045695271
0.004401642
0.004231519
0.0040591263
0.0038845419
0.0037077822
0.0035289464
0.0033481605
0.0031655431
0.002981407
0.002795941
0.0026098102
0.0024231782
0.0022378475
0.0020528595
0.0018749262
0.0016951347
0.001543469
0.0013678485
0.0013041455
0.001097559
0.0018663238
-0.0017416333
0.029687084
0.028695527
0.02750024
0.026097212
0.024549198
0.022973162
0.021453081
0.02002951
0.018722766
0.017543516
0.016494322
0.015571214
0.014766948
0.014072791
0.013478861
0.012974356
0.012548189
0.012190312
0.011890746
0.011639473
0.01142759
0.011247359
0.011092127
0.010956024
0.010834393
0.010723821
0.010621261
0.010524295
0.010431397
0.010341099
0.010252196
0.010164195
0.010076636
0.0099888395
0.009900537
0.0098116254
0.0097215741
0.0096302241
0.0095377216
0.0094436833
0.0093480983
0.0092511422
0.0091524973
0.0090523384
0.0089506941
0.0088473406
0.0087426157
0.0086361537
0.0085279722
0.008418434
0.0083071108
0.0081942793
0.0080796808
0.0079634121
0.0078458549
0.00772649
0.0076056798
0.0074834513
0.0073590783
0.0072325332
0.0071034827
0.0069716434
0.0068375735
0.0067014414
0.006563454
0.0064235157
0.0062815594
0.0061375356
0.0059913997
0.0058431619
0.0056927721
0.0055402473
0.0053855306
0.005228643
0.0050695191
0.004908179
0.0047445617
0.0045787013
0.0044105474
0.0042401526
0.0040674862
0.0038926283
0.003715596
0.0035364899
0.0033554367
0.0031725553
0.0029881591
0.0028024375
0.002616054
0.0024291752
0.0022435943
0.0020583697
0.0018801689
0.0017001593
0.0015481423
0.0013723061
0.0013081041
0.0011011418
0.0018688767
-0.0017339584
0.029009269
0.028098635
0.027012483
0.025738133
0.024322241
0.022863608
0.021438345
0.020087261
0.018833465
0.017690777
0.016664827
0.015754588
0.014955237
0.014259934
0.013660364
0.013147106
0.012710228
0.012340361
0.012028196
0.011764382
0.011540421
0.011348834
0.011183117
0.011037539
0.010907444
0.010789308
0.010680065
0.010577234
0.010479142
0.010384281
0.010291398
0.010199867
0.010109156
0.010018582
0.0099278026
0.0098366475
0.0097446173
0.0096515039
0.0095573864
0.0094619198
0.0093650481
0.0092669038
0.0091672068
0.0090660756
0.0089635364
0.0088593849
0.0087538966
0.0086467599
0.0085379742
0.008427867
0.0083160442
0.0082027202
0.0080877301
0.0079710807
0.0078530108
0.0077331398
0.0076117993
0.007488718
0.0073639863
0.0072378854
0.0071098425
0.0069796142
0.0068469402
0.0067115131
0.0065736743
0.0064336902
0.0062917143
0.0061477219
0.0060016258
0.0058534033
0.0057029874
0.0055503951
0.005395572
0.0052385467
0.0050792579
0.004917732
0.0047539107
0.0045878325
0.0044194489
0.0042488161
0.0040759046
0.0039007977
0.0037235132
0.003544154
0.0033628472
0.0031797129
0.0029950652
0.0028090941
0.0026224618
0.0024353384
0.0022495066
0.002064044
0.0018855684
0.0017053369
0.0015529454
0.0013768858
0.001312132
0.0011047477
0.0018711107
-0.0017253144
0.028371224
0.027533109
0.026543017
0.025382702
0.024086545
0.022737558
0.021403681
0.02012465
0.018925147
0.017821269
0.016821174
0.01592641
0.015134394
0.014440116
0.013836805
0.013316392
0.012870098
0.012489307
0.0121654
0.011889686
0.011654111
0.011451488
0.011275493
0.011120545
0.010982019
0.010856314
0.010740345
0.010631583
0.010528228
0.010428725
0.010331777
0.010236637
0.010142703
0.010049281
0.009955959
0.0098625054
0.0097684395
0.0096735111
0.0095777359
0.0094807968
0.0093825997
0.0092832344
0.0091824509
0.0090803193
0.0089768591
0.0088718811
0.0087656032
0.0086577622
0.0085483377
0.0084376128
0.0083252443
0.0082114146
0.0080959792
0.0079789097
0.0078604458
0.0077402556
0.0076185029
0.0074949754
0.0073698538
0.0072430204
0.0071143967
0.0069844014
0.0068525934
0.0067185439
0.006582078
0.0064428827
0.0063011364
0.0061571375
0.0060110348
0.005862854
0.0057124916
0.0055599326
0.0054051041
0.0052480335
0.0050886616
0.0049270218
0.0047630596
0.0045968194
0.004428255
0.0042574271
0.0040843078
0.0039089842
0.003731475
0.0035518859
0.0033703452
0.0031869741
0.003002088
0.0028158778
0.0026290044
0.0024416418
0.0022555612
0.0020698618
0.0018911057
0.0017106505
0.0015578616
0.0013815721
0.0013162113
0.001108353
0.0018729609
-0.001715581
0.027769341
0.026996372
0.026091179
0.02503218
0.023844435
0.022597417
0.021351017
0.020142947
0.018998462
0.017935163
0.016963196
0.016086302
0.01530393
0.014612802
0.014007643
0.013481704
0.013027338
0.012636741
0.012301998
0.012015082
0.011768411
0.011555118
0.011369094
0.011204918
0.011058024
0.010924768
0.010802051
0.010687305
0.010578628
0.010474413
0.010373321
0.010274498
0.010177273
0.010080932
0.009985005
0.009889198
0.0097930412
0.0096962468
0.0095987711
0.0095003163
0.009400755
0.0093001358
0.009198232
0.009095072
0.0089906651
0.0088848346
0.008777748
0.0086691813
0.0085590947
0.0084477299
0.0083347901
0.0082204182
0.0081044894
0.0079869731
0.0078680897
0.0077475241
0.0076254047
0.0075015891
0.0073761277
0.0072489051
0.0071199377
0.0069893688
0.0068569445
0.0067229244
0.0065871599
0.0064491498
0.0063087284
0.0061655646
0.0060197506
0.0058715958
0.0057212396
0.0055687308
0.0054139659
0.0052569415
0.0050975796
0.0049359116
0.0047718847
0.0046055496
0.0044368638
0.0042658931
0.0040926122
0.0039171122
0.0037394135
0.003559625
0.0033778764
0.0031942906
0.0030091844
0.0028227501
0.0026356472
0.0024480545
0.0022617306
0.0020757984
0.0018967584
0.0017160798
0.0015628711
0.0013863465
0.0013203209
0.0011119295
0.0018743762
-0.0017046223
0.027200411
0.026486117
0.025656256
0.024687513