/*--------------------------------*- C++ -*----------------------------------*\
| =========                 |                                                 |
| \\      /  F ield         | OpenFOAM: The Open Source CFD Toolbox           |
|  \\    /   O peration     | Version:  2206                                  |
|   \\  /    A nd           | Website:  www.openfoam.com                      |
|    \\/     M anipulation  |                                                 |
\*---------------------------------------------------------------------------*/
FoamFile
{
    version     2.0;
    format      ascii;
    arch        "LSB;label=32;scalar=64";
    class       surfaceScalarField;
    location    "1000";
    object      phi;
}
// * * * * * * * * * * * * * * * * * * * * * * * * * * * * * * * * * * * * * //

dimensions      [0 3 -1 0 0 0 0];

oriented        oriented;

internalField   nonuniform List<scalar> 
14782
(
0.00064615887
7.520604e-05
-0.00072136491
0.00055263218
9.3526696e-05
0.00046308269
8.9549481e-05
0.00039114214
7.1940549e-05
0.00033988235
5.1259794e-05
0.00030377791
3.6104445e-05
0.00027701658
2.676133e-05
0.00025588146
2.1135113e-05
0.0002383871
1.7494361e-05
0.00022364657
1.4740529e-05
0.00021118043
1.2466142e-05
0.00020060909
1.0571342e-05
0.00019163207
8.9770228e-06
0.00018399467
7.6373944e-06
0.00017747256
6.5221147e-06
0.00017188453
5.5880253e-06
0.00016708171
4.8028251e-06
0.00016294197
4.1397338e-06
0.00015935166
3.5903166e-06
0.00015620585
3.1458072e-06
0.00015342804
2.7778079e-06
0.00015093933
2.4887143e-06
0.0001486841
2.2552287e-06
0.00014662338
2.0607209e-06
0.00014472483
1.8985475e-06
0.00014296307
1.7617573e-06
0.00014131874
1.644329e-06
0.00013977424
1.5445079e-06
0.00013831268
1.4615514e-06
0.00013692256
1.3901241e-06
0.00013559704
1.3255221e-06
0.00013432967
1.2673648e-06
0.00013311436
1.2153176e-06
0.00013194592
1.1684395e-06
0.00013081976
1.1261594e-06
0.00012973049
1.0892681e-06
0.00012867357
1.0569148e-06
0.00012764663
1.0269432e-06
0.00012664667
9.9996199e-07
0.00012567112
9.7554812e-07
0.00012471791
9.5321309e-07
0.00012378491
9.3299662e-07
0.00012287098
9.1393026e-07
0.00012197495
8.9603231e-07
0.00012109551
8.7943564e-07
0.00012023184
8.6367702e-07
0.00011938256
8.4927118e-07
0.00011854669
8.3587529e-07
0.00011772363
8.230596e-07
0.00011691245
8.1118298e-07
0.00011611276
7.9968814e-07
0.00011532407
7.8869233e-07
0.00011454591
7.7815514e-07
0.00011377805
7.6786039e-07
0.0001130199
7.5815163e-07
0.00011227124
7.4865542e-07
0.00011153168
7.3956267e-07
0.00011080079
7.308901e-07
0.00011007825
7.2253955e-07
0.00010936383
7.1442441e-07
0.0001086575
7.0632982e-07
0.00010795902
6.9848028e-07
0.00010726825
6.9076877e-07
0.00010658499
6.8325344e-07
0.00010590913
6.7586009e-07
0.00010524048
6.6865425e-07
0.00010457883
6.6165392e-07
0.00010392403
6.5479318e-07
0.00010327599
6.4804462e-07
0.00010263459
6.4139632e-07
0.00010199971
6.3488621e-07
0.00010137123
6.2847808e-07
0.00010074906
6.2217008e-07
0.00010013311
6.1594263e-07
9.9523261e-05
6.0985341e-07
9.8919391e-05
6.0387071e-07
9.8321379e-05
5.980117e-07
9.7729137e-05
5.9224183e-07
9.7142544e-05
5.8659314e-07
9.6561506e-05
5.8103747e-07
9.5985895e-05
5.75611e-07
9.5415606e-05
5.7028924e-07
9.4850501e-05
5.6510553e-07
9.4290441e-05
5.6005956e-07
9.3735277e-05
5.5516381e-07
9.3184809e-05
5.504678e-07
9.2638842e-05
5.4596791e-07
9.2097081e-05
5.4176076e-07
9.1559232e-05
5.3784885e-07
9.1024797e-05
5.3443537e-07
9.0493303e-05
5.3149311e-07
8.9963666e-05
5.2963722e-07
8.9435268e-05
5.2839855e-07
8.8904773e-05
5.3049496e-07
8.8372963e-05
5.3180985e-07
8.7824559e-05
5.4840408e-07
8.7273638e-05
5.5092105e-07
8.6626754e-05
6.4688368e-07
8.6358995e-05
2.677589e-07
1.1915e-06
0.00078821465
8.1346734e-05
-0.00079435534
0.00076958017
0.00011216117
0.00073468194
0.00012444771
0.00068735605
0.00011926643
0.00063520268
0.00010341317
0.00058552883
8.5778293e-05
0.00054180897
7.0481189e-05
0.00050465234
5.8291746e-05
0.00047334515
4.8801549e-05
0.00044692822
4.1157451e-05
0.00042450772
3.488665e-05
0.00040534653
2.973253e-05
0.00038889456
2.5428995e-05
0.0003747228
2.1809147e-05
0.00036248172
1.8763204e-05
0.00035188283
1.6186912e-05
0.00034267015
1.4015502e-05
0.00033462054
1.2189349e-05
0.00032754264
1.0668215e-05
0.0003212756
9.4128461e-06
0.00031568339
8.3700179e-06
0.0003106473
7.5248002e-06
0.00030607395
6.8285824e-06
0.00030189052
6.2441528e-06
0.00029803677
5.7522916e-06
0.00029446448
5.3340535e-06
0.00029113516
4.9736442e-06
0.00028801464
4.6650354e-06
0.00028507331
4.4028793e-06
0.00028228871
4.1747176e-06
0.00027964446
3.9697782e-06
0.00027712584
3.7859784e-06
0.00027471975
3.6214151e-06
0.00027241476
3.473426e-06
0.00027020131
3.3396117e-06
0.00026806861
3.2219623e-06
0.00026600761
3.1179226e-06
0.00026401285
3.0217005e-06
0.00026207771
2.9350961e-06
0.00026019668
2.8565783e-06
0.00025836526
2.7846383e-06
0.00025657919
2.7190705e-06
0.00025483534
2.6577781e-06
0.00025313086
2.6005148e-06
0.00025146295
2.5473459e-06
0.00024982931
2.4973124e-06
0.00024822727
2.4513144e-06
0.00024665461
2.4085333e-06
0.00024510969
2.3679801e-06
0.00024359067
2.3302034e-06
0.00024209631
2.2940416e-06
0.00024062539
2.2596175e-06
0.00023917678
2.2267601e-06
0.00023774964
2.1950046e-06
0.00023634283
2.1649601e-06
0.00023495562
2.1358697e-06
0.00023358709
2.1080879e-06
0.00023223634
2.0816406e-06
0.00023090261
2.0562711e-06
0.00022958533
2.0317004e-06
0.0002282842
2.0074623e-06
0.00022699868
1.9839997e-06
0.00022572834
1.9611124e-06
0.00022447272
1.9388706e-06
0.00022323147
1.9171129e-06
0.00022200414
1.8959789e-06
0.0002207903
1.8755021e-06
0.00021958958
1.8555121e-06
0.0002184017
1.8359258e-06
0.00021722638
1.8167152e-06
0.00021606331
1.7979503e-06
0.00021491224
1.7795491e-06
0.00021377293
1.761486e-06
0.00021264514
1.7437262e-06
0.0002115286
1.7263913e-06
0.00021042306
1.7094151e-06
0.00020932825
1.6928197e-06
0.00020824396
1.6765332e-06
0.00020716994
1.6606143e-06
0.00020610597
1.6450084e-06
0.00020505179
1.6297874e-06
0.00020400718
1.614905e-06
0.00020297185
1.6004338e-06
0.00020194553
1.5863793e-06
0.00020092791
1.5727815e-06
0.00019991862
1.5597531e-06
0.00019891726
1.5473288e-06
0.00019792332
1.5357046e-06
0.00019693615
1.5250213e-06
0.000195955
1.515585e-06
0.00019497861
1.5078849e-06
0.00019400584
1.5024072e-06
0.00019303363
1.5006039e-06
0.00019206011
1.5040116e-06
0.00019107765
1.5142721e-06
0.00019007733
1.5487225e-06
0.00018904553
1.5827286e-06
0.00018793598
1.7564326e-06
0.00018703611
1.1676295e-06
2.7347702e-06
0.00082976027
7.7953111e-05
-0.00082636665
0.00083404171
0.00010787974
0.00083507273
0.0001234167
0.00082822434
0.00012611482
0.00080998954
0.00012164797
0.00078234612
0.00011342171
0.00074961421
0.0001032131
0.00071537747
9.2528486e-05
0.00068183541
8.2343607e-05
0.00065031685
7.267601e-05
0.00062147171
6.3731797e-05
0.00059550411
5.5700125e-05
0.0005723662
4.8566907e-05
0.00055185065
4.2324701e-05
0.00053368265
3.6931198e-05
0.00051758435
3.2285212e-05
0.00050328865
2.8311202e-05
0.00049055654
2.4921466e-05
0.00047917803
2.2046722e-05
0.00046897028
1.9620597e-05
0.00045976993
1.7570365e-05
0.000451435
1.5859733e-05
0.00044384445
1.4419133e-05
0.00043689608
1.3192517e-05
0.00043050178
1.2146599e-05
0.00042458519
1.1250641e-05
0.00041908415
1.0474682e-05
0.00041394825
9.800937e-06
0.00040913382
9.2173144e-06
0.00040460417
8.704359e-06
0.00040032825
8.2456999e-06
0.00039627893
7.8352995e-06
0.00039243269
7.4676534e-06
0.00038876955
7.1365648e-06
0.00038527235
6.8368122e-06
0.00038192318
6.5711312e-06
0.00037870743
6.3336729e-06
0.00037561422
6.1149164e-06
0.00037263175
5.9175608e-06
0.00036975061
5.7377199e-06
0.00036696263
5.5726186e-06
0.00036426017
5.4215311e-06
0.00036163687
5.2810771e-06
0.00035908701
5.1503794e-06
0.00035660523
5.0291228e-06
0.00035418691
4.9156357e-06
0.00035182739
4.8108361e-06
0.00034952261
4.7133076e-06
0.00034726921
4.6213856e-06
0.00034506383
4.5355798e-06
0.00034290377
4.4541006e-06
0.00034078646
4.3769278e-06
0.00033870959
4.3036339e-06
0.00033667119
4.2334032e-06
0.00033466921
4.1669396e-06
0.00033270196
4.1031164e-06
0.00033076769
4.0423579e-06
0.00032886474
3.9845972e-06
0.00032699166
3.9293466e-06
0.00032514726
3.8760999e-06
0.00032333058
3.8241444e-06
0.00032154052
3.77406e-06
0.0003197761
3.7255259e-06
0.00031803641
3.6785656e-06
0.00031632061
3.6329144e-06
0.00031462784
3.5887504e-06
0.00031295725
3.5460859e-06
0.00031130814
3.5046228e-06
0.00030967986
3.4642052e-06
0.00030807181
3.4247684e-06
0.00030648338
3.3863825e-06
0.00030491402
3.3489068e-06
0.00030336323
3.3122778e-06
0.00030183051
3.2764408e-06
0.00030031535
3.2415585e-06
0.00029881724
3.2075225e-06
0.00029733571
3.1743451e-06
0.00029587033
3.1419146e-06
0.00029442064
3.1103014e-06
0.00029298623
3.0794233e-06
0.00029156664
3.0493777e-06
0.00029016145
3.0200973e-06
0.00028877019
2.99169e-06
0.0002873924
2.9641694e-06
0.00028602757
2.9376104e-06
0.00028467513
2.9121916e-06
0.00028333444
2.888022e-06
0.00028200476
2.8653832e-06
0.0002806851
2.8446777e-06
0.0002793745
2.826189e-06
0.00027807095
2.8114333e-06
0.00027677338
2.7999774e-06
0.00027547649
2.7974981e-06
0.00027418019
2.8003118e-06
0.00027286888
2.825582e-06
0.00027154175
2.8758464e-06
0.00027015738
2.9671065e-06
0.00026872313
3.1906745e-06
0.00026728744
2.6033271e-06
4.4003676e-06
0.00085995236
7.4383876e-05
-0.00085638313
0.00086611848
0.00010171362
0.00087213982
0.00011739536
0.00087636948
0.00012188516
0.00087779334
0.0001202241
0.00087496572
0.00011624933
0.00086663974
0.00011153908
0.00085251348
0.00010665475
0.00083346016
0.00010139692
0.00081116808
9.4968098e-05
0.00078703285
8.7867027e-05
0.00076216574
8.0567232e-05
0.00073748956
7.3243086e-05
0.00071369317
6.612109e-05
0.00069123805
5.9386319e-05
0.00067038291
5.314035e-05
0.00065121181
4.7482304e-05
0.00063369202
4.2441256e-05
0.00061772039
3.8018348e-05
0.00060316482
3.4176172e-05
0.00058988727
3.0847917e-05
0.00057775522
2.7991779e-05
0.00056664465
2.5529708e-05
0.00055644115
2.3396011e-05
0.0005470396
2.154815e-05
0.00053834396
1.9946279e-05
0.00053027158
1.854707e-05
0.00052275398
1.7318534e-05
0.00051573054
1.6240754e-05
0.00050914782
1.5287074e-05
0.00050295905
1.443447e-05
0.00049712312
1.3671234e-05
0.00049160368
1.2987093e-05
0.00048636986
1.2370386e-05
0.00048139491
1.1811756e-05
0.00047665482
1.1311222e-05
0.00047212829
1.0860205e-05
0.00046779628
1.0446928e-05
0.00046364181
1.0072033e-05
0.00045964994
9.7295869e-06
0.00045580755
9.4150078e-06
0.00045210252
9.1265609e-06
0.00044852431
8.8592888e-06
0.00044506341
8.6112809e-06
0.00044171104
8.3814858e-06
0.00043845963
8.1670546e-06
0.00043530195
7.968515e-06
0.0004322315
7.7837512e-06
0.0004292427
7.6101865e-06
0.0004263302
7.4480785e-06
0.00042348935
7.2949496e-06
0.00042071581
7.1504759e-06
0.00041800562
7.013822e-06
0.00041535538
6.8836374e-06
0.00041276178
6.7605383e-06
0.00041022188
6.6430218e-06
0.00040773279
6.5314464e-06
0.00040529191
6.4254831e-06
0.00040289692
6.3243306e-06
0.00040054575
6.2272673e-06
0.00039823656
6.133337e-06
0.00039596747
6.0431481e-06
0.00039373681
5.9561936e-06
0.00039154298
5.8723888e-06
0.00038938456
5.7913352e-06
0.00038726012
5.7131928e-06
0.00038516831
5.6378921e-06
0.00038310795
5.564986e-06
0.00038107792
5.4942332e-06
0.00037907719
5.4254997e-06
0.00037710476
5.3588125e-06
0.00037515971
5.2939537e-06
0.00037324118
5.230813e-06
0.00037134832
5.1693013e-06
0.00036948029
5.1095856e-06
0.00036763631
5.051499e-06
0.00036581563
4.9950298e-06
0.00036401753
4.940019e-06
0.00036224129
4.8865315e-06
0.00036048627
4.8344505e-06
0.00035875176
4.7838853e-06
0.00035703711
4.7347433e-06
0.00035534164
4.6871594e-06
0.00035366466
4.6411528e-06
0.00035200544
4.596834e-06
0.00035036318
4.5544452e-06
0.00034873701
4.514191e-06
0.00034712597
4.476429e-06
0.00034552875
4.4418993e-06
0.00034394415
4.4107903e-06
0.00034236962
4.3859596e-06
0.00034080401
4.3655893e-06
0.00033924052
4.3609869e-06
0.00033767998
4.3608543e-06
0.00033610179
4.4037719e-06
0.00033450976
4.4678765e-06
0.00033284473
4.6321339e-06
0.00033114699
4.8884107e-06
0.00032929375
4.4565707e-06
6.1773636e-06
0.00088987338
7.1375583e-05
-0.00088686509
0.00089569093
9.5896077e-05
0.00090201791
0.00011106838
0.00090735468
0.00011654839
0.00091111111
0.00011646768
0.00091363798
0.00011372246
0.00091473361
0.00011044345
0.00091400137
0.000107387
0.00091114058
0.00010425771
0.00090515011
0.00010095856
0.00089561154
9.7405599e-05
0.000882656
9.3522768e-05
0.00086691236
8.8986734e-05
0.00084909101
8.3942435e-05
0.00082983556
7.864177e-05
0.00080978527
7.3190636e-05
0.00078954874
6.7718842e-05
0.00076965354
6.2336451e-05
0.00075050244
5.7169445e-05
0.00073235913
5.2319483e-05
0.00071535411
4.7852937e-05
0.00069951227
4.3833619e-05
0.00068479588
4.0246104e-05
0.00067113823
3.7053661e-05
0.00065846129
3.4225084e-05
0.0006466839
3.1723671e-05
0.00063572617
2.9504797e-05
0.00062551218
2.7532528e-05
0.00061597001
2.5782927e-05
0.00060703462
2.422246e-05
0.00059864804
2.2821053e-05
0.00059075754
2.1561735e-05
0.00058331532
2.0429311e-05
0.00057627961
1.9406094e-05
0.000569613
1.8478369e-05
0.00056328351
1.7640715e-05
0.0005572624
1.688131e-05
0.00055152222
1.6187114e-05
0.00054603939
1.5554856e-05
0.00054079293
1.4976052e-05
0.00053576388
1.4444053e-05
0.00053093467
1.3955772e-05
0.00052628981
1.350415e-05
0.00052181526
1.3085835e-05
0.00051749802
1.2698725e-05
0.00051332688
1.2338193e-05
0.00050929163
1.2003761e-05
0.00050538303
1.1692351e-05
0.00050159288
1.1400337e-05
0.0004979133
1.112766e-05
0.00049433723
1.0871017e-05
0.00049085818
1.0629531e-05
0.00048747021
1.0401791e-05
0.00048416811
1.0185734e-05
0.00048094691
9.9817404e-06
0.00047780209
9.7878448e-06
0.00047472942
9.6041157e-06
0.00047172515
9.4297536e-06
0.00046878589
9.263589e-06
0.00046590842
9.1047363e-06
0.0004630898
8.951954e-06
0.00046032721
8.8057382e-06
0.00045761809
8.665313e-06
0.00045496006
8.530425e-06
0.0004523509
8.4004911e-06
0.00044978852
8.275576e-06
0.00044727096
8.1554541e-06
0.00044479643
8.0395118e-06
0.00044236326
7.9274041e-06
0.00043996988
7.8188812e-06
0.00043761481
7.7138779e-06
0.00043529669
7.6120783e-06
0.00043301418
7.5133195e-06
0.00043076604
7.4174487e-06
0.00042855103
7.3245905e-06
0.00042636803
7.2344986e-06
0.00042421594
7.1471219e-06
0.00042209372
7.0622409e-06
0.00042000035
6.979896e-06
0.00041793488
6.8999229e-06
0.00041589634
6.8224273e-06
0.0004138838
6.7472822e-06
0.00041189632
6.6746382e-06
0.00040993296
6.6045134e-06
0.00040799274
6.5370496e-06
0.00040607464
6.4725479e-06
0.00040417751
6.4113183e-06
0.00040230015
6.3537891e-06
0.00040044097
6.3010813e-06
0.00039859851
6.2532545e-06
0.00039676978
6.2146884e-06
0.00039495342
6.1819448e-06
0.00039314165
6.1727556e-06
0.00039133555
6.1669569e-06
0.00038951151
6.2278117e-06
0.00038767542
6.3039688e-06
0.00038575725
6.5503017e-06
0.00038381647
6.8291957e-06
0.00038160727
6.6657662e-06
8.0910581e-06
0.0009207103
6.8768889e-05
-0.00091810361
0.0009258894
9.0716981e-05
0.00093169637
0.0001052614
0.00093681523
0.00011142953
0.00094090922
0.00011237369
0.00094389942
0.00011073225
0.00094602337
0.00010831951
0.00094749978
0.00010591058
0.00094845994
0.00010329755
0.00094876393
0.00010065457
0.00094809152
9.8078008e-05
0.0009461481
9.5466194e-05
0.0009423126
9.2822237e-05
0.00093612745
9.012758e-05
0.00092738884
8.7380387e-05
0.00091620843
8.4371042e-05
0.00090291563
8.1011637e-05
0.00088784276
7.7409327e-05
0.00087138435
7.3627854e-05
0.00085402244
6.9681396e-05
0.00083627314
6.560223e-05
0.0008186066
6.1500163e-05
0.00080140025
5.7452451e-05
0.00078490725
5.354666e-05
0.00076925973
4.9872608e-05
0.00075449966
4.6483739e-05
0.00074061751
4.3386942e-05
0.00072757822
4.0571826e-05
0.00071533374
3.8027407e-05
0.0007038318
3.5724392e-05
0.00069301845
3.3634409e-05
0.00068283929
3.1740893e-05
0.00067324236
3.0026237e-05
0.00066417999
2.8468471e-05
0.00065560713
2.7051229e-05
0.00064748314
2.5764705e-05
0.00063977202
2.4592429e-05
0.00063243957
2.351956e-05
0.00062545483
2.2539594e-05
0.00061879049
2.1640394e-05
0.00061242162
2.081292e-05
0.00060632499
2.0052404e-05
0.00060047984
1.9349298e-05
0.00059486725
1.8698427e-05
0.00058946973
1.8096249e-05
0.00058427182
1.7536103e-05
0.00057925946
1.7016113e-05
0.00057442005
1.6531763e-05
0.00056974225
1.607814e-05
0.00056521525
1.5654656e-05
0.00056082935
1.5256921e-05
0.00055657558
1.4883297e-05
0.00055244569
1.4531685e-05
0.00054843228
1.4199145e-05
0.00054452826
1.3885755e-05
0.00054072726
1.3588849e-05
0.00053702353
1.330785e-05
0.0005334119
1.3041382e-05
0.00052988759
1.2787891e-05
0.00052644604
1.2546292e-05
0.00052308304
1.2314948e-05
0.00051979467
1.2094115e-05
0.00051657733
1.1882652e-05
0.00051342765
1.16801e-05
0.0005103425
1.1485648e-05
0.00050731893
1.1299138e-05
0.00050435429
1.1120101e-05
0.00050144605
1.0947753e-05
0.00049859184
1.0781607e-05
0.00049578949
1.0621233e-05
0.00049303695
1.0466423e-05
0.00049033228
1.0316745e-05
0.00048767362
1.0171978e-05
0.00048505922
1.0031853e-05
0.00048248741
9.896398e-06
0.00047995664
9.7652676e-06
0.00047746541
9.6383523e-06
0.0004750123
9.5153526e-06
0.00047259593
9.3962626e-06
0.000470215
9.2808526e-06
0.00046786822
9.1692071e-06
0.00046555435
9.0611505e-06
0.00046327216
8.9568352e-06
0.0004610204
8.856268e-06
0.00045879784
8.7596133e-06
0.00045660316
8.6672243e-06
0.00045443496
8.579518e-06
0.00045229176
8.4969898e-06
0.00045017168
8.4211654e-06
0.00044807297
8.351961e-06
0.00044599227
8.2953854e-06
0.00044392795
8.2462658e-06
0.00044187149
8.2292186e-06
0.00043982388
8.2145712e-06
0.00043775956
8.2921268e-06
0.00043568521
8.3783179e-06
0.00043352362
8.7118965e-06
0.00043134672
9.0060982e-06
0.00042880985
9.2026358e-06
1.0159352e-05
0.0009525851
6.6485232e-05
-0.00095030144
0.00095719383
8.6108253e-05
0.00096252568
9.9929554e-05
0.00096731362
0.0001066416
0.00097119297
0.00010849434
0.00097417267
0.00010775255
0.00097648334
0.00010600885
0.00097835782
0.0001040361
0.00097980517
0.0001018502
0.00098087421
9.9585528e-05
0.00098162109
9.7331132e-05
0.00098205761
9.5029669e-05
0.00098210891
9.2770942e-05
0.00098158393
9.065256e-05
0.00098033293
8.8631389e-05
0.00097797743
8.6726539e-05
0.00097404193
8.494713e-05
0.00096824032
8.3210945e-05
0.00096038295
8.1485217e-05
0.00095047342
7.9590935e-05
0.00093865251
7.742314e-05
0.00092512513
7.502754e-05
0.00091021934
7.2358237e-05
0.00089437981
6.9386195e-05
0.00087809433
6.6158083e-05
0.00086180814
6.2769934e-05
0.00084586827
5.9326813e-05
0.00083049741
5.5942687e-05
0.00081580676
5.271806e-05
0.00080183584
4.9695307e-05
0.00078858542
4.6884825e-05
0.0007760362
4.4290115e-05
0.00076415811
4.1904332e-05
0.0007529151
3.9711474e-05
0.00074226688
3.7699449e-05
0.00073217254
3.585905e-05
0.00072259375
3.4171222e-05
0.00071349327
3.262004e-05
0.00070483543
3.1197426e-05
0.00069658776
2.9888069e-05
0.00068872023
2.8680449e-05
0.00068120468
2.7567951e-05
0.00067401549
2.6538487e-05
0.000667129
2.5584917e-05
0.00066052332
2.470193e-05
0.00065417862
2.3880803e-05
0.00064807652
2.3118221e-05
0.00064220042
2.2407862e-05
0.00063653539
2.1743163e-05
0.0006310674
2.1122646e-05
0.00062578376
2.0540561e-05
0.00062067273
1.9994329e-05
0.00061572347
1.9480951e-05
0.00061092615
1.8996463e-05
0.00060627142
1.8540484e-05
0.0006017508
1.8109471e-05
0.00059735661
1.7702043e-05
0.00059308187
1.7316122e-05
0.00058892012
1.6949633e-05
0.0005848653
1.6601118e-05
0.00058091181
1.6268439e-05
0.00057705442
1.5951499e-05
0.00057328837
1.5648706e-05
0.00056960908
1.5359392e-05
0.00056601229
1.5082435e-05
0.00056249416
1.4817267e-05
0.00055905115
1.4563113e-05
0.00055567988
1.4319023e-05
0.00055237718
1.4084307e-05
0.00054914011
1.3858299e-05
0.00054596594
1.3640595e-05
0.00054285209
1.3430598e-05
0.00053979608
1.322799e-05
0.00053679558
1.303235e-05
0.00053384841
1.2843565e-05
0.00053095252
1.266116e-05
0.00052810593
1.2484942e-05
0.00052530678
1.2314503e-05
0.00052255327
1.2149768e-05
0.00051984371
1.1990419e-05
0.00051717642
1.1836496e-05
0.00051454981
1.168776e-05
0.0005119623
1.1544346e-05
0.00050941233
1.1406237e-05
0.00050689834
1.1273607e-05
0.00050441871
1.1146851e-05
0.00050197174
1.102649e-05
0.00049955564
1.0913082e-05
0.00049716824
1.0808569e-05
0.00049480748
1.0712719e-05
0.00049246963
1.0633233e-05
0.00049015275
1.0563155e-05
0.00048784771
1.0534258e-05
0.00048555523
1.0507048e-05
0.0004832484
1.0598955e-05
0.00048093401
1.0692704e-05
0.00047852966
1.1116253e-05
0.00047611666
1.1419096e-05
0.00047326325
1.2056048e-05
1.2395552e-05
0.00098563661
6.4467767e-05
-0.00098361914
0.00098973359
8.2011268e-05
0.0009946366
9.5026543e-05
0.00099917961
0.00010209859
0.0010029227
0.00010475126
0.0010058476
0.00010482763
0.0010081409
0.00010371553
0.0010100074
0.0001021696
0.0010115244
0.00010033319
0.001012763
9.8346937e-05
0.0010137739
9.6320241e-05
0.0010145485
9.4255118e-05
0.0010150923
9.2227055e-05
0.0010154725
9.027236e-05
0.0010156375
8.8466454e-05
0.0010155381
8.6825904e-05
0.0010151473
8.533795e-05
0.0010142981
8.4060113e-05
0.0010127985
8.2984802e-05
0.0010103172
8.2072244e-05
0.0010064816
8.1258727e-05
0.0010009829
8.0526299e-05
0.00099361874
7.9722381e-05
0.00098433807
7.8666867e-05
0.00097319811
7.7298043e-05
0.00096038577
7.5582273e-05
0.00094624773
7.3464849e-05
0.00093124747
7.0942955e-05
0.00091586457
6.8100956e-05
0.00090051222
6.5047656e-05
0.00088548433
6.1912715e-05
0.00087095269
5.8821757e-05
0.0008570001
5.5856921e-05
0.00084365863
5.3052945e-05
0.00083093272
5.0425353e-05
0.00081881055
4.7981221e-05
0.000807271
4.5710778e-05
0.00079628634
4.3604699e-05
0.00078582544
4.1658326e-05
0.00077585722
3.9856289e-05
0.00076635091
3.8186755e-05
0.00075727629
3.6642575e-05
0.00074860495
3.5209825e-05
0.00074030993
3.3879937e-05
0.00073236578
3.2646078e-05
0.00072474904
3.1497544e-05
0.00071743753
3.0429735e-05
0.0007104109
2.9434489e-05
0.00070365061
2.8503453e-05
0.0006971392
2.7634052e-05
0.00069086078
2.6818982e-05
0.00068480058
2.6054533e-05
0.000678945
2.5336533e-05
0.00067328163
2.4659832e-05
0.00066779873
2.4023376e-05
0.00066248557
2.3422636e-05
0.00065733217
2.2855441e-05
0.00065232945
2.2318845e-05
0.00064746904
2.181004e-05
0.00064274316
2.1326996e-05
0.00063814464
2.0866957e-05
0.00063366676
2.0429385e-05
0.00062930333
2.0012133e-05
0.0006250485
1.961422e-05
0.00062089681
1.9234134e-05
0.00061684325
1.887082e-05
0.00061288325
1.8523115e-05
0.00060901245
1.8189825e-05
0.00060522676
1.7869996e-05
0.00060152238
1.7562682e-05
0.00059789574
1.7267234e-05
0.00059434352
1.6982815e-05
0.00059086256
1.6708952e-05
0.00058744987
1.6445036e-05
0.00058410266
1.6190773e-05
0.00058081829
1.594553e-05
0.00057759425
1.5708989e-05
0.00057442814
1.5480606e-05
0.00057131771
1.5260202e-05
0.00056826078
1.5047347e-05
0.00056525526
1.4842015e-05
0.00056229915
1.4643875e-05
0.00055939047
1.4453029e-05
0.00055652729
1.4269416e-05
0.00055370769
1.4093207e-05
0.00055092971
1.3924824e-05
0.00054819132
1.3764885e-05
0.0005454904
1.3614002e-05
0.00054282443
1.3474538e-05
0.00054019104
1.3346111e-05
0.00053758612
1.3238153e-05
0.00053500736
1.3141911e-05
0.00053244514
1.3096477e-05
0.00052989979
1.3052403e-05
0.00052734334
1.3155403e-05
0.00052478238
1.3253662e-05
0.0005221304
1.3768232e-05
0.00051947679
1.4072705e-05
0.00051630828
1.5224557e-05
1.4811402e-05
0.0010198877
6.2648066e-05
-0.001018068
0.0010235361
7.8362886e-05
0.0010280253
9.0537352e-05
0.0010323383
9.7785601e-05
0.0010359987
0.00010109086
0.001038924
0.00010190231
0.0010412412
0.00010139829
0.0010431192
0.00010029158
0.0010446483
9.8804109e-05
0.0010459014
9.7093832e-05
0.0010469351
9.5286512e-05
0.0010477729
9.3417387e-05
0.0010484403
9.1559606e-05
0.0010489556
8.9757073e-05
0.0010493354
8.808671e-05
0.0010495845
8.6576752e-05
0.0010497192
8.5203281e-05
0.0010497417
8.4037623e-05
0.0010496257
8.3100723e-05
0.0010493289
8.2369101e-05
0.0010487488
8.1838864e-05
0.0010477647
8.1510333e-05
0.0010461561
8.1330983e-05
0.0010435788
8.1244141e-05
0.0010396822
8.1194642e-05
0.0010341436
8.1120865e-05
0.0010267606
8.0847915e-05
0.0010174813
8.0222284e-05
0.0010063714
7.9210789e-05
0.00099367707
7.7742011e-05
0.00097981209
7.5777696e-05
0.00096526439
7.3369455e-05
0.00095048809
7.0633225e-05
0.00093583053
6.7710505e-05
0.00092151147
6.4744411e-05
0.00090764896
6.1843727e-05
0.00089430071
5.9059032e-05
0.00088149077
5.6414641e-05
0.00086922277
5.3926328e-05
0.00085748775
5.1591306e-05
0.00084626809
4.9406418e-05
0.00083554117
4.7369492e-05
0.0008252828
4.5468197e-05
0.00081546761
4.369512e-05
0.00080607007
4.2043623e-05
0.00079706557
4.0502047e-05
0.00078843
3.9065298e-05
0.0007801406
3.7723889e-05
0.00077217607
3.6467991e-05
0.00076451603
3.5294087e-05
0.00075714171
3.41933e-05
0.00075003549
3.3160757e-05
0.00074318102
3.2190998e-05
0.00073656329
3.1277564e-05
0.00073016807
3.04186e-05
0.00072398224
2.9608459e-05
0.00071799356
2.8844129e-05
0.0007121907
2.8121707e-05
0.00070656322
2.7437516e-05
0.00070110142
2.6788792e-05
0.00069579636
2.6172016e-05
0.00069063962
2.5586125e-05
0.00068562345
2.5028304e-05
0.00068074059
2.4497082e-05
0.00067598425
2.3990471e-05
0.00067134813
2.3506946e-05
0.00066682638
2.3044864e-05
0.00066241356
2.2602642e-05
0.00065810456
2.2179001e-05
0.00065389458
2.1772663e-05
0.00064977913
2.138268e-05
0.00064575403
2.1007912e-05
0.00064181533
2.064766e-05
0.00063795928
2.030108e-05
0.0006341824
1.9967658e-05
0.00063048137
1.9646559e-05
0.00062685306
1.9337299e-05
0.0006232945
1.9039162e-05
0.00061980287
1.8751833e-05
0.00061637548
1.8474737e-05
0.00061300974
1.8207752e-05
0.00060970319
1.7950434e-05
0.00060645339
1.7702824e-05
0.00060325801
1.7464797e-05
0.00060011472
1.7236501e-05
0.00059702117
1.7018372e-05
0.00059397494
1.6811109e-05
0.00059097357
1.6615372e-05
0.00058801417
1.6433941e-05
0.000585094
1.6266285e-05
0.00058220857
1.6123585e-05
0.00057935518
1.59953e-05
0.00057652372
1.5927934e-05
0.00057371406
1.5862063e-05
0.00057089738
1.5972081e-05
0.00056807988
1.6071159e-05
0.00056517156
1.6676559e-05
0.00056226944
1.6974825e-05
0.00055878106
1.8712933e-05
1.7418466e-05
0.0010553162
6.0967545e-05
-0.0010536357
0.0010585882
7.5090951e-05
0.0010626876
8.6437944e-05
0.0010667561
9.3717026e-05
0.0010703257
9.7521347e-05
0.001073261
9.8967006e-05
0.0010756275
9.9031739e-05
0.0010775544
9.8364731e-05
0.0010791267
9.7231764e-05
0.0010804132
9.5807312e-05
0.00108147
9.4229734e-05
0.0010823293
9.2558126e-05
0.0010830221
9.0866754e-05
0.0010835702
8.920903e-05
0.0010840006
8.7656225e-05
0.0010843329
8.6244486e-05
0.0010845709
8.4965344e-05
0.0010847293
8.3879202e-05
0.0010848279
8.3002125e-05
0.001084863
8.2334001e-05
0.00108483
8.1871831e-05
0.0010847277
8.1612595e-05
0.0010845134
8.1545371e-05
0.0010841209
8.1636623e-05
0.0010834483
8.1867216e-05
0.0010823517
8.2217432e-05
0.0010805565
8.2643195e-05
0.001077694
8.3084781e-05
0.0010734039
8.3500793e-05
0.0010673868
8.3759118e-05
0.0010594798
8.3684696e-05
0.0010496616
8.3187742e-05
0.0010380974
8.2197363e-05
0.0010251523
8.065558e-05
0.0010113092
7.8587533e-05
0.00099704542
7.6107526e-05
0.00098274264
7.3361814e-05
0.00096865225
7.0505028e-05
0.00095491715
6.766143e-05
0.00094161416
6.4894298e-05
0.00092878233
6.2238246e-05
0.00091643737
5.9714452e-05
0.00090458015
5.7325411e-05
0.00089320116
5.5074118e-05
0.00088228482
5.295996e-05
0.0008718127
5.0974166e-05
0.000861764
4.9113993e-05
0.00085211733
4.7370561e-05
0.00084285139
4.5733935e-05
0.00083394486
4.4200618e-05
0.00082537747
4.2760682e-05
0.00081712975
4.1408482e-05
0.00080918328
4.0137467e-05
0.00080152088
3.8939969e-05
0.00079412608
3.7813395e-05
0.00078698361
3.6750935e-05
0.00078007901
3.5748722e-05
0.00077339885
3.4801875e-05
0.00076693057
3.3905791e-05
0.00076066248
3.305688e-05
0.00075458376
3.225074e-05
0.00074868419
3.1485695e-05
0.00074295433
3.0758159e-05
0.00073738536
3.0066049e-05
0.00073196905
2.9406784e-05
0.00072669768
2.8778322e-05
0.00072156405
2.8178486e-05
0.0007165615
2.7605198e-05
0.00071168373
2.7056769e-05
0.00070692487
2.6531521e-05
0.0007022794
2.602815e-05
0.00069774216
2.5545154e-05
0.00069330829
2.5081529e-05
0.00068897323
2.4636141e-05
0.00068473267
2.4208219e-05
0.00068058256
2.3796671e-05
0.00067651905
2.3400805e-05
0.00067253852
2.3019687e-05
0.00066863752
2.2652832e-05
0.00066481278
2.2299485e-05
0.00066106114
2.1959393e-05
0.0006573796
2.1631971e-05
0.00065376525
2.1317171e-05
0.00065021527
2.1014782e-05
0.00064672686
2.0724903e-05
0.00064329727
2.0447966e-05
0.00063992364
2.0184737e-05
0.00063660311
1.9935909e-05
0.00063333237
1.9704674e-05
0.00063010831
1.949035e-05
0.00062692602
1.9305877e-05
0.00062378237
1.9138943e-05
0.00062066679
1.9043514e-05
0.00061757863
1.8950227e-05
0.0006144883
1.9062407e-05
0.00061140155
1.9157915e-05
0.00060822516
1.9852951e-05
0.00060506386
2.0136118e-05
0.00060124638
2.2530411e-05
2.0228777e-05
0.0010919114
5.9388983e-05
-0.0010903328
0.0010948735
7.2128844e-05
0.0010986222
8.2689239e-05
0.0011024409
8.9898335e-05
0.0011058951
9.4067154e-05
0.0011088211
9.6040971e-05
0.001111233
9.6619877e-05
0.0011132193
9.6378409e-05
0.0011148517
9.5599324e-05
0.0011161916
9.4467466e-05
0.0011172919
9.3129358e-05
0.0011181878
9.1662235e-05
0.0011189112
9.0143358e-05
0.0011194869
8.8633385e-05
0.0011199425
8.7200585e-05
0.0011203006
8.5886386e-05
0.0011205715
8.4694493e-05
0.0011207739
8.3676787e-05
0.0011209224
8.2853627e-05
0.0011210264
8.2229968e-05
0.0011210918
8.1806415e-05
0.0011211302
8.157427e-05
0.0011211417
8.1533823e-05
0.0011211157
8.1662647e-05
0.001121041
8.1941879e-05
0.0011208925
8.2365911e-05
0.0011206228
8.2912898e-05
0.0011201478
8.3559816e-05
0.0011193514
8.429724e-05
0.001118016
8.5094424e-05
0.0011158016
8.5899135e-05
0.0011123255
8.666382e-05
0.0011072268
8.7296061e-05
0.0011002599
8.7622549e-05
0.001091341
8.7506352e-05
0.001080579
8.6869535e-05
0.0010683049
8.5635927e-05
0.0010549966
8.3813344e-05
0.0010411442
8.1513802e-05
0.0010271467
7.8891857e-05
0.0010132704
7.6114483e-05
0.00099967179
7.3313103e-05
0.00098643955
7.0557645e-05
0.00097362293
6.7890744e-05
0.00096124627
6.5336618e-05
0.0009493177
6.290274e-05
0.0009378338
6.0597889e-05
0.00092678464
5.8419719e-05
0.0009161562
5.636238e-05
0.00090593144