/*--------------------------------*- C++ -*----------------------------------*\
| =========                 |                                                 |
| \\      /  F ield         | OpenFOAM: The Open Source CFD Toolbox           |
|  \\    /   O peration     | Version:  2206                                  |
|   \\  /    A nd           | Website:  www.openfoam.com                      |
|    \\/     M anipulation  |                                                 |
\*---------------------------------------------------------------------------*/
FoamFile
{
    version     2.0;
    format      ascii;
    arch        "LSB;label=32;scalar=64";
    class       volVectorField;
    location    "1000";
    object      U;
}
// * * * * * * * * * * * * * * * * * * * * * * * * * * * * * * * * * * * * * //

dimensions      [0 1 -1 0 0 0 0];

internalField   nonuniform List<vector> 
7480
(
(0.86075018 0.014753366 5.8383085e-16)
(0.74498886 0.025621246 0)
(0.62909458 0.027265201 0)
(0.5257557 0.019490928 0)
(0.45006812 0.0094048942 0)
(0.3978317 0.0037518127 0)
(0.3601027 0.0017193655 0)
(0.33098614 0.001208475 0)
(0.30728436 0.001085152 0)
(0.2873948 0.0009675209 0)
(0.27056499 0.00081749343 0)
(0.25631021 0.00067110347 0)
(0.2442155 0.00054330557 0)
(0.23393391 0.00043797002 0)
(0.22517176 0.00035431594 0)
(0.21767299 0.00028708842 0)
(0.21123719 0.00023279594 0)
(0.20570196 0.00018445829 0)
(0.20090192 0.00024322876 -1.0948983e-17)
(0.19675358 0.00029649347 -1.7117e-17)
(0.19307848 0.0001362247 0)
(0.18980925 9.0283143e-05 0)
(0.18686697 7.7358463e-05 0)
(0.18418671 6.8831488e-05 0)
(0.18172659 6.1485077e-05 0)
(0.17945011 5.522443e-05 0)
(0.17733221 4.9907319e-05 0)
(0.17534879 4.5578478e-05 0)
(0.17347823 4.217287e-05 0)
(0.17170218 3.9256024e-05 0)
(0.17001031 3.6542133e-05 0)
(0.16839504 3.4098311e-05 0)
(0.16684812 3.1924754e-05 0)
(0.16536303 2.9968294e-05 0)
(0.16393262 2.8213466e-05 0)
(0.16255311 2.6701214e-05 0)
(0.16121469 2.5360001e-05 0)
(0.15991561 2.4084077e-05 0)
(0.15865217 2.2934947e-05 0)
(0.15742046 2.1880892e-05 0)
(0.15621783 2.0903189e-05 0)
(0.1550416 2.0009054e-05 0)
(0.15388973 1.9148032e-05 0)
(0.15276095 1.8331363e-05 0)
(0.15165358 1.756809e-05 0)
(0.15056648 1.6834207e-05 0)
(0.14949817 1.6156191e-05 0)
(0.14844706 1.5515469e-05 0)
(0.14741232 1.4895797e-05 0)
(0.14639291 1.4316677e-05 0)
(0.14538804 1.3752898e-05 0)
(0.14439721 1.3213112e-05 0)
(0.14341975 1.2696351e-05 0)
(0.14245534 1.2194217e-05 0)
(0.14150337 1.1720811e-05 0)
(0.14056336 1.1260665e-05 0)
(0.13963499 1.0821858e-05 0)
(0.13871769 1.0403386e-05 0)
(0.13781097 1.0001864e-05 0)
(0.13691446 9.6160535e-06 0)
(0.13602808 9.2396975e-06 0)
(0.13515167 8.8799409e-06 0)
(0.13428496 8.5321618e-06 0)
(0.13342774 8.1985517e-06 0)
(0.13257981 7.8766365e-06 0)
(0.13174103 7.5678027e-06 0)
(0.13091108 7.2718083e-06 0)
(0.13008977 6.9869691e-06 0)
(0.12927694 6.712764e-06 0)
(0.12847248 6.4486262e-06 0)
(0.12767623 6.1951402e-06 0)
(0.12688803 5.9511173e-06 0)
(0.12610775 5.7165096e-06 0)
(0.12533531 5.4904974e-06 0)
(0.12457055 5.2738846e-06 0)
(0.12381333 5.0655942e-06 0)
(0.12306348 4.8658257e-06 0)
(0.1223209 4.6735907e-06 0)
(0.12158543 4.4892808e-06 0)
(0.12085696 4.3120142e-06 0)
(0.12013534 4.1421604e-06 0)
(0.11942043 3.9789457e-06 0)
(0.11871208 3.8225819e-06 0)
(0.1180101 3.6726921e-06 0)
(0.11731435 3.5290195e-06 0)
(0.11662457 3.3918915e-06 0)
(0.11594056 3.2604707e-06 0)
(0.11526196 3.1359065e-06 0)
(0.11458854 3.0163514e-06 0)
(0.1139195 2.9055705e-06 0)
(0.11325497 2.7968043e-06 0)
(0.1125924 2.7060284e-06 0)
(0.11193438 2.6016787e-06 0)
(0.1112706 2.5570448e-06 0)
(0.11061651 2.4244179e-06 0)
(0.10992962 2.5322555e-06 0)
(0.10927361 2.2286626e-06 -2.4564068e-21)
(0.1084994 6.2035182e-06 6.7093332e-20)
(0.10789584 -1.6429469e-06 -3.2117205e-19)
(0.10672422 1.2251142e-05 -1.1178416e-18)
(0.95760928 0.024812371 0)
(0.94366669 0.032450963 0)
(0.91262271 0.032584927 0)
(0.86105299 0.028780864 0)
(0.79824292 0.022936904 0)
(0.73524258 0.017291552 0)
(0.67835964 0.012895159 0)
(0.62961381 0.0098261194 0)
(0.58860696 0.0077468308 0)
(0.55410289 0.0062558741 0)
(0.52489804 0.0051166256 0)
(0.50000979 0.0042183332 0)
(0.47867596 0.0034892116 0)
(0.46032101 0.0028909427 0)
(0.44448263 0.0024000096 0)
(0.43078754 0.0019956598 0)
(0.41890919 0.0016645399 0)
(0.40856045 0.0013950694 0)
(0.39948519 0.0011767941 0)
(0.3914808 0.00099452448 0)
(0.38436342 0.00084841784 0)
(0.37798177 0.00074389357 0)
(0.37220851 0.0006550754 0)
(0.366944 0.00058039327 0)
(0.36211078 0.00051855462 0)
(0.35764127 0.00046668546 0)
(0.35348797 0.00042244846 0)
(0.34960486 0.00038490328 0)
(0.34595413 0.00035321581 0)
(0.34250381 0.00032578247 0)
(0.33923173 0.00030129598 0)
(0.33611981 0.00027943687 0)
(0.33315087 0.0002599252 0)
(0.33031078 0.00024242702 0)
(0.32758553 0.00022665844 0)
(0.32496647 0.00021270309 0)
(0.32243605 0.00020024319 0)
(0.31998984 0.00018875336 0)
(0.31761948 0.00017834285 0)
(0.31531722 0.00016883112 0)
(0.31307739 0.00016007661 0)
(0.31089467 0.00015203226 0)
(0.30876457 0.00014451658 0)
(0.30668369 0.00013749416 0)
(0.30464849 0.00013095027 0)
(0.30265612 0.00012480286 0)
(0.30070346 0.00011909178 0)
(0.2987874 0.00011374659 0)
(0.29690579 0.00010869535 0)
(0.29505647 0.00010395908 0)
(0.29323758 9.9459563e-05 0)
(0.29144773 9.5195075e-05 0)
(0.28968538 9.1148217e-05 0)
(0.28794953 8.7287927e-05 0)
(0.28623883 8.3637703e-05 0)
(0.28455222 8.0152058e-05 0)
(0.28288876 7.6840666e-05 0)
(0.28124728 7.369749e-05 0)
(0.27962674 7.0705102e-05 0)
(0.27802632 6.7846631e-05 0)
(0.27644559 6.509836e-05 0)
(0.27488407 6.247389e-05 0)
(0.27334111 5.996042e-05 0)
(0.27181618 5.7556806e-05 0)
(0.27030881 5.5253075e-05 0)
(0.26881856 5.3050016e-05 0)
(0.26734482 5.0944674e-05 0)
(0.26588711 4.892789e-05 0)
(0.26444507 4.6993816e-05 0)
(0.26301837 4.5138469e-05 0)
(0.26160665 4.3360984e-05 0)
(0.26020956 4.1655987e-05 0)
(0.25882679 4.0020106e-05 0)
(0.2574581 3.8449661e-05 0)
(0.25610316 3.6945271e-05 0)
(0.25476164 3.5502593e-05 0)
(0.25343323 3.4119804e-05 0)
(0.25211766 3.2792789e-05 0)
(0.25081463 3.1520751e-05 0)
(0.24952387 3.0300216e-05 0)
(0.24824509 2.9130684e-05 0)
(0.246978 2.8009039e-05 0)
(0.2457223 2.6934752e-05 0)
(0.24447763 2.5905861e-05 0)
(0.24324369 2.4921066e-05 0)
(0.24202002 2.3980411e-05 0)
(0.24080622 2.3082127e-05 0)
(0.23960163 2.2227633e-05 0)
(0.23840581 2.1415997e-05 0)
(0.2372174 2.0650788e-05 0)
(0.23603646 1.9932917e-05 0)
(0.23485872 1.9272517e-05 0)
(0.23368823 1.8669945e-05 0)
(0.2325079 1.8170586e-05 0)
(0.2313426 1.7721643e-05 0)
(0.23012243 1.7652732e-05 0)
(0.22895011 1.7380794e-05 4.4082011e-21)
(0.22757928 1.9261137e-05 0)
(0.22648551 9.9920012e-06 0)
(0.22440049 3.0841184e-05 0)
(0.96647004 0.026184474 0)
(0.97134297 0.035045792 0)
(0.97634502 0.038621045 0)
(0.97514969 0.037509299 0)
(0.96054945 0.034296444 0)
(0.93239484 0.02995834 0)
(0.89573333 0.025262821 0)
(0.85572087 0.020866656 0)
(0.81562414 0.017141002 0)
(0.7773707 0.01408339 0)
(0.742011 0.011602249 0)
(0.70999575 0.0096044161 0)
(0.68137489 0.0079828374 0)
(0.65596741 0.0066593357 0)
(0.63346723 0.0055786115 0)
(0.61354419 0.0046924972 0)
(0.59587466 0.0039644363 0)
(0.58016214 0.0033646072 0)
(0.56614275 0.0028689667 0)
(0.5535897 0.0024618576 0)
(0.54230318 0.0021330254 0)
(0.53210264 0.0018647612 0)
(0.52283607 0.0016421908 0)
(0.51437418 0.0014567422 0)
(0.50660683 0.0013015069 0)
(0.49943823 0.001170513 0)
(0.49278681 0.0010585091 0)
(0.48658856 0.00096234111 0)
(0.48078888 0.00087988313 0)
(0.47534166 0.00080809197 0)
(0.47020732 0.00074448259 0)
(0.46535232 0.00068796109 0)
(0.46074712 0.00063762221 0)
(0.45636662 0.0005925565 0)
(0.45218878 0.00055201162 0)
(0.44819589 0.00051603126 0)
(0.44436372 0.00048382821 0)
(0.44068233 0.00045433696 0)
(0.43713641 0.00042763584 0)
(0.43371376 0.00040328186 0)
(0.43040445 0.00038093205 0)
(0.42719925 0.00036042591 0)
(0.4240899 0.00034140624 0)
(0.42106954 0.00032374019 0)
(0.41813163 0.00030734297 0)
(0.41527048 0.00029203785 0)
(0.41248063 0.00027784163 0)
(0.40975687 0.00026460508 0)
(0.407095 0.00025217444 0)
(0.40449108 0.00024054626 0)
(0.40194156 0.00022957189 0)
(0.39944343 0.00021922233 0)
(0.39699376 0.00020944669 0)
(0.39459019 0.00020017562 0)
(0.39223028 0.00019142738 0)
(0.38991191 0.00018311773 0)
(0.38763309 0.0001752497 0)
(0.38539177 0.00016780164 0)
(0.38318611 0.00016073235 0)
(0.38101457 0.00015400183 0)
(0.37887598 0.00014756329 0)
(0.37676914 0.00014143114 0)
(0.3746928 0.00013557898 0)
(0.37264584 0.00012999698 0)
(0.37062728 0.00012466333 0)
(0.36863615 0.00011957462 0)
(0.36667139 0.00011472127 0)
(0.3647321 0.0001100828 0)
(0.36281752 0.00010564495 0)
(0.36092691 0.00010139747 0)
(0.35905958 9.7335288e-05 0)
(0.35721483 9.3446324e-05 0)
(0.35539206 8.9721652e-05 0)
(0.3535907 8.6152902e-05 0)
(0.35181016 8.2738687e-05 0)
(0.35004982 7.9469553e-05 0)
(0.34830912 7.6339984e-05 0)
(0.34658754 7.3341205e-05 0)
(0.34488456 7.0469805e-05 0)
(0.34319966 6.7718409e-05 0)
(0.34153235 6.5084481e-05 0)
(0.33988211 6.2561445e-05 0)
(0.33824843 6.0147084e-05 0)
(0.33663075 5.7836948e-05 0)
(0.33502855 5.5627958e-05 0)
(0.33344114 5.3519224e-05 0)
(0.3318679 5.1507779e-05 0)
(0.33030789 4.9594615e-05 0)
(0.32876044 4.778074e-05 0)
(0.32722371 4.6067617e-05 0)
(0.32569766 4.447e-05 0)
(0.32417679 4.298264e-05 0)
(0.32266598 4.1665665e-05 0)
(0.32114365 4.0492173e-05 0)
(0.31964056 3.961205e-05 0)
(0.3180692 3.9206155e-05 0)
(0.31655645 3.9097874e-05 3.2492649e-21)
(0.31479453 4.129902e-05 0)
(0.31336435 2.9908337e-05 0)
(0.3106936 5.6877184e-05 -1.1461439e-20)
(0.9692379 0.024334473 0)
(0.9748028 0.032483126 0)
(0.9828086 0.036275577 0)
(0.98939328 0.036568856 0)
(0.99292178 0.034816588 0)
(0.99257023 0.032340114 0)
(0.98638036 0.029710981 0)
(0.97355162 0.027087 0)
(0.95424289 0.024423251 0)
(0.93040219 0.02157726 0)
(0.90378754 0.018754656 0)
(0.8757854 0.016133727 0)
(0.84754889 0.013795451 0)
(0.81998637 0.011765252 0)
(0.79374641 0.010024847 0)
(0.76922658 0.0085437115 0)
(0.74660575 0.0072951249 0)
(0.72589722 0.0062489384 0)
(0.70700928 0.0053801245 0)
(0.68979923 0.004661681 0)
(0.67411157 0.0040648908 0)
(0.65979009 0.0035684702 0)
(0.64669048 0.0031522174 0)
(0.63467814 0.0027999706 0)
(0.62362804 0.0025010776 0)
(0.61342764 0.0022464785 0)
(0.60397307 0.0020277458 0)
(0.59518098 0.0018388895 0)
(0.5869794 0.0016755546 0)
(0.57930435 0.0015328611 0)
(0.57209893 0.0014067986 0)
(0.56531385 0.0012951487 0)
(0.55890579 0.0011960088 0)
(0.55283611 0.001107481 0)
(0.54707335 0.0010280145 0)
(0.54158872 0.00095712029 0)
(0.53635683 0.00089357117 0)
(0.53135473 0.00083578033 0)
(0.5265625 0.0007834727 0)
(0.52196176 0.00073589657 0)
(0.51753699 0.0006923844 0)
(0.51327399 0.00065256856 0)
(0.50915985 0.00061585035 0)
(0.50518343 0.00058192685 0)
(0.50133439 0.00055057755 0)
(0.49760344 0.00052146633 0)
(0.49398244 0.00049452942 0)
(0.49046343 0.00046950718 0)
(0.48703969 0.00044612701 0)
(0.48370509 0.0004243251 0)
(0.48045396 0.00040386248 0)
(0.47728128 0.00038465677 0)
(0.47418227 0.00036659913 0)
(0.47115289 0.00034955913 0)
(0.46818932 0.00033352653 0)
(0.46528806 0.00031836938 0)
(0.46244583 0.00030406847 0)
(0.45965947 0.00029056943 0)
(0.45692622 0.0002777952 0)
(0.45424361 0.00026567591 0)
(0.45160947 0.00025413627 0)
(0.44902171 0.00024318055 0)
(0.44647829 0.00023276092 0)
(0.44397736 0.00022285094 0)
(0.44151726 0.00021341146 0)
(0.43909637 0.00020442896 0)
(0.43671309 0.00019588125 0)
(0.43436599 0.0001877322 0)
(0.4320538 0.00017995558 0)
(0.4297753 0.00017253102 0)
(0.42752934 0.00016544504 0)
(0.42531484 0.00015867585 0)
(0.42313079 0.00015220632 0)
(0.42097624 0.00014602101 0)
(0.41885023 0.00014011349 0)
(0.41675185 0.00013446695 0)
(0.41468021 0.00012907007 0)
(0.4126345 0.00012390771 0)
(0.41061391 0.00011897188 0)
(0.40861767 0.00011424985 0)
(0.40664501 0.00010973538 0)
(0.40469517 0.00010541721 0)
(0.40276742 0.00010129009 0)
(0.40086094 9.7346022e-05 0)
(0.39897498 9.3579202e-05 0)
(0.39710865 8.9986778e-05 0)
(0.39526108 8.6564304e-05 0)
(0.39343108 8.3311064e-05 0)
(0.39161774 8.0231238e-05 0)
(0.38981888 7.7320977e-05 0)
(0.38803426 7.461633e-05 0)
(0.38625768 7.208262e-05 0)
(0.38449422 6.9874553e-05 0)
(0.38272001 6.78291e-05 0)
(0.38096816 6.6442118e-05 0)
(0.37914303 6.5503782e-05 0)
(0.37738116 6.5760063e-05 2.4793845e-21)
(0.37534635 6.7906801e-05 0)
(0.37366411 5.7092824e-05 0)
(0.37058448 8.428115e-05 8.8396431e-21)
(0.97110528 0.02319474 0)
(0.97603434 0.030443257 0)
(0.9833892 0.034213739 0)
(0.99046077 0.034720474 0)
(0.99557696 0.033452195 0)
(0.99865857 0.031581287 0)
(1.0010927 0.029691525 0)
(1.0009578 0.027936708 0)
(0.99936793 0.026246682 0)
(0.99467987 0.024507208 0)
(0.98619657 0.022701146 0)
(0.97372943 0.020836533 0)
(0.9577931 0.018862453 0)
(0.93923157 0.016857685 0)
(0.91876013 0.014924093 0)
(0.89707088 0.013125123 0)
(0.87486851 0.01150598 0)
(0.85278417 0.01006343 0)
(0.83133476 0.0087957154 0)
(0.81088478 0.0076961672 0)
(0.79164451 0.0067505081 0)
(0.77368648 0.0059478838 0)
(0.75699193 0.0052682346 0)
(0.74149663 0.0046897429 0)
(0.72711766 0.0041949734 0)
(0.71376747 0.0037694326 0)
(0.70135647 0.0034004854 0)
(0.68979881 0.0030791063 0)
(0.67901368 0.0027990484 0)
(0.66892565 0.0025533868 0)
(0.65946769 0.0023363375 0)
(0.6505796 0.002144166 0)
(0.64220657 0.0019736021 0)
(0.63429899 0.0018214621 0)
(0.62681485 0.0016852032 0)
(0.61971439 0.0015634744 0)
(0.61296775 0.0014541954 0)
(0.60654162 0.001355225 0)
(0.60040935 0.0012657948 0)
(0.59454626 0.0011845541 0)
(0.58893087 0.0011104642 0)
(0.58354321 0.0010428592 0)
(0.57836506 0.00098078962 0)
(0.57338055 0.00092369137 0)
(0.56857485 0.00087113419 0)
(0.56393455 0.00082253389 0)
(0.55944832 0.0007776568 0)
(0.55510531 0.00073608308 0)
(0.55089616 0.00069739161 0)
(0.54681213 0.00066142845 0)
(0.54284495 0.00062783254 0)
(0.53898732 0.00059642982 0)
(0.53523235 0.00056702423 0)
(0.53157402 0.00053939691 0)
(0.52800682 0.00051348436 0)
(0.52452553 0.00048908929 0)
(0.52112538 0.00046614577 0)
(0.51780194 0.00044454478 0)
(0.51455143 0.00042416106 0)
(0.51137021 0.00040488923 0)
(0.50825492 0.00038661577 0)
(0.50520241 0.00036932037 0)
(0.50220972 0.00035292327 0)
(0.49927417 0.00033737218 0)
(0.49639326 0.00032260308 0)
(0.49356465 0.0003085845 0)
(0.49078607 0.00029527412 0)
(0.48805552 0.00028261518 0)
(0.48537109 0.00027056507 0)
(0.48273103 0.00025908807 0)
(0.48013366 0.00024815724 0)
(0.47757744 0.00023773745 0)
(0.47506088 0.00022780046 0)
(0.4725826 0.00021832032 0)
(0.47014121 0.00020928168 0)
(0.46773545 0.00020065764 0)
(0.46536409 0.00019242855 0)
(0.46302596 0.00018457079 0)
(0.46071994 0.00017706947 0)
(0.45844496 0.00016990459 0)
(0.45619996 0.0001630643 0)
(0.45398391 0.00015653106 0)
(0.45179581 0.00015029503 0)
(0.44963459 0.00014434326 0)
(0.44749925 0.00013866603 0)
(0.44538866 0.00013325736 0)
(0.44330172 0.00012811061 0)
(0.44123699 0.00012322217 0)
(0.43919332 0.00011859975 0)
(0.43716827 0.00011423199 0)
(0.43516134 0.00011018059 0)
(0.4331659 0.00010637288 0)
(0.43118687 0.00010307952 0)
(0.42919941 9.996342e-05 0)
(0.42723692 9.7953169e-05 0)
(0.42520091 9.6307805e-05 0)
(0.42322981 9.70103e-05 2.0332187e-21)
(0.42097669 9.8699955e-05 5.3951481e-20)
(0.41908322 9.0515629e-05 0)
(0.41567201 0.00011358575 0)
(0.97264477 0.022362567 0)
(0.97703283 0.028799212 0)
(0.9833847 0.032380982 0)
(0.98958291 0.03313646 0)
(0.99457072 0.032308264 0)
(0.99829722 0.030791738 0)
(1.0009026 0.029142084 0)
(1.0027451 0.027594299 0)
(1.0039369 0.026081704 0)
(1.004797 0.024621812 0)
(1.0045624 0.023237591 0)
(1.0033396 0.021904514 0)
(1.0004297 0.02058788 0)
(0.99517697 0.019270806 0)
(0.98729334 0.017960573 0)
(0.97662457 0.016605951 0)
(0.96357277 0.015198577 0)
(0.9484459 0.013803491 0)
(0.93162251 0.012457056 0)
(0.91356975 0.011191425 0)
(0.89484207 0.010024394 0)
(0.87597552 0.0089635299 0)
(0.85743124 0.008009468 0)
(0.83954487 0.0071613399 0)
(0.82251395 0.0064170265 0)
(0.80641963 0.0057700552 0)
(0.79126899 0.0052078562 0)
(0.77703328 0.0047167717 0)
(0.76366628 0.0042862117 0)
(0.75111365 0.0039060443 0)
(0.73931853 0.0035684632 0)
(0.72822306 0.003268512 0)
(0.7177703 0.0030017043 0)
(0.70790729 0.0027634518 0)
(0.69858573 0.0025500923 0)
(0.68975863 0.0023591025 0)
(0.68138732 0.0021874403 0)
(0.67343395 0.0020323705 0)
(0.66586402 0.001892315 0)
(0.65864675 0.0017652683 0)
(0.65175487 0.0016496393 0)
(0.64516288 0.0015443323 0)
(0.63884738 0.0014479505 0)
(0.63278761 0.001359566 0)
(0.62696428 0.0012784455 0)
(0.62135984 0.0012036857 0)
(0.61595891 0.0011348123 0)
(0.61074729 0.0010711754 0)
(0.60571248 0.0010121432 0)
(0.60084284 0.00095742166 0)
(0.59612736 0.00090648633 0)
(0.59155633 0.00085903696 0)
(0.58712055 0.00081476044 0)
(0.58281179 0.0007733166 0)
(0.57862251 0.00073456532 0)
(0.57454539 0.00069821427 0)
(0.57057414 0.00066411706 0)
(0.56670295 0.00063209171 0)
(0.56292669 0.00060195245 0)
(0.55924035 0.00057354629 0)
(0.5556393 0.00054670762 0)
(0.55211924 0.00052137649 0)
(0.54867619 0.00049742837 0)
(0.5453065 0.00047477637 0)
(0.54200671 0.00045332345 0)
(0.5387736 0.00043300855 0)
(0.53560422 0.00041376004 0)
(0.53249585 0.00039549567 0)
(0.52944588 0.00037815057 0)
(0.52645192 0.00036166716 0)
(0.52351173 0.00034599932 0)
(0.52062323 0.00033109469 0)
(0.5177844 0.00031691057 0)
(0.51499331 0.00030340579 0)
(0.51224817 0.00029055152 0)
(0.50954728 0.00027830768 0)
(0.50688902 0.00026664353 0)
(0.50427185 0.00025552425 0)
(0.50169429 0.00024492554 0)
(0.49915493 0.00023481777 0)
(0.49665239 0.00022518136 0)
(0.49418534 0.00021599055 0)
(0.49175248 0.0002072291 0)
(0.48935248 0.00019887755 0)
(0.48698408 0.00019092079 0)
(0.48464588 0.00018334833 0)
(0.48233652 0.00017615038 0)
(0.48005435 0.0001693192 0)
(0.47779795 0.00016286578 0)
(0.47556463 0.00015676964 0)
(0.47335362 0.00015112026 0)
(0.47115805 0.00014580221 0)
(0.46898244 0.00014121378 0)
(0.46680166 0.00013682385 0)
(0.46464843 0.00013404128 0)
(0.46242405 0.00013151991 0)
(0.46026515 0.00013266348 0)
(0.45782294 0.00013360273 0)
(0.45574252 0.00012960653 1.1207532e-19)
(0.45204151 0.00014528859 0)
(0.97409915 0.021591283 0)
(0.97792777 0.027348655 0)
(0.98349399 0.030749728 0)
(0.98898373 0.031703604 0)
(0.99350462 0.031175959 0)
(0.99698803 0.029942002 0)
(0.99961806 0.028511708 0)
(1.0016978 0.027105419 0)
(1.0034006 0.025705321 0)
(1.0046683 0.024350596 0)
(1.0055868 0.023067009 0)
(1.0061792 0.021832552 0)
(1.0064841 0.020660615 0)
(1.006273 0.019570249 0)
(1.0054014 0.018545094 0)
(1.0036926 0.017569542 0)
(1.0005457 0.016635846 0)
(0.99560777 0.015720843 0)
(0.98862182 0.014811332 0)
(0.97946951 0.013866444 0)
(0.96828172 0.012879896 0)
(0.9552142 0.011887693 0)
(0.94053351 0.010908191 0)
(0.92464743 0.0099624357 0)
(0.90806032 0.0090653466 0)
(0.89126796 0.0082281538 0)
(0.87468671 0.0074604685 0)
(0.85860832 0.0067673106 0)
(0.84319484 0.0061506504 0)
(0.82851232 0.0056049947 0)
(0.81457405 0.0051206011 0)
(0.80136755 0.0046889564 0)
(0.78886608 0.0043029004 0)
(0.77703468 0.0039563207 0)
(0.76583399 0.0036448868 0)
(0.7552208 0.003365261 0)
(0.74515484 0.0031133904 0)
(0.73559753 0.0028858386 0)
(0.72651119 0.0026802568 0)
(0.71786071 0.0024938348 0)
(0.70961437 0.0023243404 0)
(0.70174242 0.0021701511 0)
(0.6942172 0.0020293094 0)
(0.68701363 0.0019004315 0)
(0.68010837 0.0017823917 0)
(0.67348009 0.0016738805 0)
(0.66710927 0.0015741032 0)
(0.66097794 0.0014821062 0)
(0.65507012 0.0013969901 0)
(0.64937103 0.0013182728 0)
(0.64386691 0.0012452181 0)
(0.6385454 0.0011773512 0)
(0.63339485 0.0011142007 0)
(0.62840474 0.0010552738 0)
(0.62356537 0.0010003214 0)
(0.61886742 0.00094893131 0)
(0.61430273 0.00090085048 0)
(0.60986379 0.00085579541 0)
(0.60554381 0.00081349884 0)
(0.60133633 0.00077374375 0)
(0.5972354 0.00073629686 0)
(0.59323548 0.00070104107 0)
(0.58933147 0.00066779436 0)
(0.58551863 0.00063642635 0)
(0.58179238 0.00060679465 0)
(0.57814855 0.00057879363 0)
(0.57458345 0.00055231403 0)
(0.57109352 0.00052724292 0)
(0.56767539 0.00050348586 0)
(0.56432595 0.00048095638 0)
(0.56104228 0.00045958274 0)
(0.5578217 0.00043928943 0)
(0.5546616 0.0004200145 0)
(0.55155953 0.00040169727 0)
(0.54851317 0.00038429073 0)
(0.54552036 0.00036773781 0)
(0.54257905 0.00035199327 0)
(0.53968726 0.00033700801 0)
(0.53684313 0.00032274528 0)
(0.53404487 0.00030916328 0)
(0.53129076 0.00029623213 0)
(0.52857913 0.00028391569 0)
(0.52590836 0.00027218924 0)
(0.52327683 0.00026102494 0)
(0.52068298 0.00025040063 0)
(0.51812514 0.00024029975 0)
(0.51560171 0.00023070807 0)
(0.51311075 0.00022161246 0)
(0.51065061 0.0002130264 0)
(0.50821834 0.00020491904 0)
(0.50581291 0.00019740829 0)
(0.50342722 0.00019033332 0)
(0.50106538 0.00018422603 0)
(0.49870229 0.00017835121 0)
(0.4963695 0.00017462331 0)
(0.49396947 0.00017105262 0)
(0.49163532 0.00017257519 0)
(0.48902076 0.00017252427 0)
(0.48676923 0.00017399215 1.0024971e-19)
(0.48280334 0.00017960517 0)
(0.97562056 0.020894294 0)
(0.97889551 0.026011064 0)
(0.98376218 0.029256923 0)
(0.98871325 0.030389802 0)
(0.99289988 0.03012243 0)
(0.99617762 0.029137881 0)
(0.99870351 0.02789603 0)
(1.0007111 0.026614562 0)
(1.0023673 0.025320577 0)
(1.0037181 0.024054052 0)
(1.0048228 0.022836789 0)
(1.0057098 0.021661726 0)
(1.0063597 0.020545253 0)
(1.0067809 0.01949795 0)
(1.007118 0.018522856 0)
(1.0070983 0.017624477 0)
(1.0069111 0.016801611 0)
(1.0063268 0.016046685 0)
(1.0052148 0.015351818 0)
(1.0033389 0.014702102 0)
(1.0002756 0.014076303 0)
(0.99570968 0.013463295 0)
(0.98934289 0.012827246 0)
(0.98107478 0.012135009 0)
(0.97090862 0.011395299 0)
(0.95895463 0.010625936 0)
(0.94547619 0.0098459607 0)
(0.93089984 0.009079281 0)
(0.91571751 0.008339568 0)
(0.90039047 0.0076411772 0)
(0.88527427 0.0069950569 0)
(0.87059363 0.0064081865 0)
(0.85646357 0.0058809473 0)
(0.84293221 0.0054075711 0)
(0.83001401 0.0049811977 0)
(0.81770327 0.0045964036 0)
(0.80598242 0.0042479539 0)
(0.79482657 0.0039319866 0)
(0.78420566 0.0036457751 0)
(0.77408829 0.0033858496 0)
(0.76444387 0.0031493836 0)
(0.755242 0.0029342162 0)
(0.74645345 0.002737795 0)
(0.73805086 0.0025582331 0)
(0.73000818 0.0023939405 0)
(0.72230121 0.0022431516 0)
(0.71490736 0.0021047059 0)
(0.70780546 0.0019772753 0)
(0.70097635 0.0018596256 0)
(0.69440225 0.0017510197 0)
(0.6880666 0.0016504526 0)
(0.68195427 0.0015572326 0)
(0.67605117 0.0014706897 0)
(0.67034451 0.001390141 0)
(0.66482234 0.0013151973 0)
(0.6594735 0.0012452913 0)
(0.65428774 0.0011800315 0)
(0.64925562 0.0011190119 0)
(0.64436855 0.0010618612 0)
(0.63961853 0.0010082739 0)
(0.63499818 0.00095792836 0)
(0.6305006 0.00091063466 0)
(0.62611943 0.00086613683 0)
(0.62184873 0.00082424669 0)
(0.61768285 0.00078476622 0)
(0.6136166 0.0007475341 0)
(0.60964529 0.00071239094 0)
(0.6057645 0.00067918355 0)
(0.60197003 0.00064778008 0)
(0.59825798 0.00061805738 0)
(0.5946247 0.00058991108 0)
(0.59106678 0.00056323606 0)
(0.58758104 0.00053794573 0)
(0.5841644 0.00051395399 0)
(0.58081401 0.00049119043 0)
(0.57752719 0.00046957709 0)
(0.57430137 0.00044905016 0)
(0.57113415 0.00042954259 0)
(0.56802322 0.00041100185 0)
(0.56496637 0.00039337086 0)
(0.56196151 0.00037660664 0)
(0.55900659 0.00036066015 0)
(0.55609967 0.00034549579 0)
(0.55323879 0.00033107524 0)
(0.55042209 0.00031736733 0)
(0.5476476 0.00030434768 0)
(0.54491343 0.00029199604 0)
(0.54221739 0.00028029245 0)
(0.53955754 0.00026925183 0)
(0.53693071 0.00025883169 0)
(0.53433555 0.00024917825 0)
(0.53176483 0.00024008361 0)
(0.52922216 0.00023221616 0)
(0.52668264 0.00022463159 0)
(0.52417647 0.00021976393 0)
(0.52160793 0.0002149587 0)
(0.51910595 0.00021676049 0)
(0.51632875 0.00021548076 -1.9093726e-20)
(0.51391671 0.00022355167 0)
(0.50970145 0.00021670551 -2.9270218e-21)
(0.97714982 0.020280068 0)
(0.97996536 0.024804388 0)
(0.98418961 0.027847443 0)
(0.98864864 0.029113109 0)
(0.99256247 0.029094964 0)
(0.99570978 0.028353445 0)
(0.99817732 0.027295142 0)
(1.0001453 0.026138961 0)
(1.0017553 0.02494343 0)
(1.0030751 0.023751625 0)
(1.0041591 0.022592141 0)
(1.0050496 0.021469477 0)
(1.0057662 0.020400037 0)
(1.0063261 0.01938936 0)
(1.0067567 0.018450126 0)
(1.0070502 0.017584841 0)
(1.0072275 0.016781327 0)
(1.0073145 0.016049595 0)
(1.0072654 0.01539235 0)
(1.0070883 0.01479991 0)
(1.0066922 0.014261548 0)
(1.0059698 0.013772037 0)
(1.0047968 0.013317735 0)
(1.0028693 0.012882601 0)
(0.99983411 0.012449388 0)
(0.99537039 0.012002419 0)
(0.98917817 0.011506551 0)
(0.98117363 0.010940344 0)
(0.97134235 0.010324508 0)
(0.95982691 0.009673132 0)
(0.94696025 0.0090085137 0)
(0.93320451 0.0083483268 0)
(0.91903516 0.0077100568 0)
(0.90484714 0.00710864 0)
(0.89090941 0.0065537893 0)
(0.87737317 0.0060492853 0)
(0.86431312 0.005591837 0)
(0.85176399 0.0051759265 0)
(0.83973708 0.0047973057 0)
(0.82822828 0.0044517355 0)
(0.81722384 0.0041361717 0)
(0.80670365 0.003848271 0)
(0.79664474 0.0035850637 0)
(0.78702325 0.0033442735 0)
(0.77781446 0.0031238978 0)
(0.76899424 0.0029217158 0)
(0.76053923 0.0027361916 0)
(0.75242678 0.0025655933 0)
(0.74463583 0.0024083097 0)
(0.7371464 0.0022633018 0)
(0.72993966 0.0021292491 0)
(0.72299822 0.0020051992 0)
(0.71630575 0.0018902353 0)
(0.70984729 0.0017834466 0)
(0.70360883 0.0016842653 0)
(0.69757727 0.0015919392 0)
(0.69174045 0.0015059201 0)
(0.68608706 0.0014256516 0)
(0.68060671 0.0013506285 0)
(0.67528974 0.0012804292 0)
(0.67012724 0.0012146227 0)
(0.66511091 0.0011529281 0)
(0.66023297 0.0010949988 0)
(0.65548627 0.0010405737 0)
(0.65086408 0.00098938382 0)
(0.64636009 0.00094119858 0)
(0.64196851 0.00089579781 0)
(0.63768395 0.0008529774 0)
(0.63350135 0.00081255794 0)
(0.62941594 0.00077437152 0)
(0.6254233 0.00073827344 0)
(0.62151927 0.00070412094 0)
(0.61769995 0.000671795 0)
(0.61396166 0.00064117879 0)
(0.61030093 0.0006121735 0)
(0.6067145 0.00058467494 0)
(0.6031993 0.00055859616 0)
(0.59975239 0.00053384796 0)
(0.596371 0.00051035821 0)
(0.5930525 0.00048805106 0)
(0.58979436 0.00046686726 0)
(0.58659414 0.00044674188 0)
(0.58344952 0.00042762584 0)
(0.58035821 0.00040946787 0)
(0.57731799 0.00039222557 0)
(0.5743266 0.0003758647 0)
(0.57138182 0.00036035723 0)
(0.5684812 0.00034567471 0)
(0.56562249 0.00033183214 0)
(0.5628023 0.00031877408 0)
(0.56001897 0.00030667438 0)
(0.5572651 0.00029527683 0)
(0.55454381 0.00028538753 0)
(0.55183053 0.00027585053 0)
(0.54915396 0.00026962742 0)
(0.54642052 0.00026338637 0)
(0.54375482 0.00026533863 6.7769669e-22)
(0.54082032 0.00026257499 0)
(0.53825477 0.00027831673 8.6748646e-20)
(0.53379983 0.00025676682 0)
(0.97861642 0.019723349 0)
(0.98107523 0.023733156 0)
(0.98474182 0.026552937 0)
(0.98873135 0.027887568 0)
(0.99237141 0.028073169 0)
(0.99539684 0.027554024 0)
(0.99782485 0.026677875 0)
(0.99978208 0.025654134 0)
(1.0013838 0.024560727 0)
(1.002696 0.023447137 0)
(1.0037709 0.022348519 0)
(1.0046511 0.021277111 0)
(1.0053648 0.020249238 0)
(1.0059346 0.019273368 0)
(1.0063826 0.018362891 0)
(1.0067314 0.017519981 0)
(1.0069942 0.0167378 0)
(1.0071766 0.016025541 0)
(1.0072854 0.015381221 0)
(1.0073583 0.014797562 0)
(1.0073489 0.014271442 0)
(1.0072958 0.013800972 0)
(1.0071582 0.01337765 0)
(1.0068938 0.012991256 0)
(1.0064262 0.012635037 0)
(1.0056407 0.012302188 0)
(1.0043818 0.011981922 0)
(1.0022934 0.011661883 0)
(0.9990494 0.011327808 0)
(0.99430344 0.010953424 0)
(0.98784876 0.010510433 0)
(0.97959207 0.010004511 0)
(0.96958865 0.0094494593 0)
(0.95809386 0.008864668 0)
(0.94553206 0.0082712464 0)
(0.93237637 0.0076869381 0)
(0.91904026 0.0071282132 0)
(0.90581633 0.0066062631 0)
(0.8928771 0.0061266072 0)
(0.88031478 0.0056876872 0)
(0.86817845 0.0052854649 0)
(0.85649136 0.0049165692 0)
(0.84525959 0.0045776272 0)
(0.83447804 0.0042663714 0)
(0.82413416 0.0039807429 0)
(0.81421173 0.0037182741 0)
(0.80469235 0.0034771922 0)
(0.79555606 0.0032554377 0)
(0.78678301 0.0030510574 0)
(0.77835333 0.002862716 0)
(0.77024761 0.0026887582 0)
(0.76244741 0.0025279467 0)
(0.75493506 0.0023790863 0)
(0.74769412 0.0022410063 0)
(0.74070898 0.0021129302 0)
(0.73396489 0.0019938901 0)
(0.72744808 0.0018831571 0)
(0.72114558 0.0017799992 0)
(0.71504537 0.0016837526 0)
(0.70913618 0.0015938544 0)
(0.70340762 0.0015097411 0)
(0.69784992 0.0014310222 0)
(0.69245395 0.0013572414 0)
(0.68721128 0.0012880439 0)
(0.682114 0.0012230742 0)
(0.6771547 0.0011620234 0)
(0.67232648 0.0011045978 0)
(0.66762291 0.0010505276 0)
(0.663038 0.00099957506 0)
(0.6585661 0.00095151833 0)
(0.65420192 0.0009061637 0)
(0.64994053 0.00086332241 0)
(0.64577727 0.00082283516 0)
(0.64170779 0.00078454746 0)
(0.63772796 0.00074832605 0)
(0.63383392 0.00071403503 0)
(0.630022 0.00068155901 0)
(0.62628875 0.00065078193 0)
(0.62263088 0.00062160771 0)
(0.61904528 0.00059393782 0)
(0.61552897 0.0005676931 0)
(0.61207909 0.00054278948 0)
(0.60869293 0.0005191613 0)
(0.60536779 0.00049674164 0)
(0.60210111 0.00047547433 0)
(0.5988903 0.00045531298 0)
(0.59573281 0.00043621971 0)
(0.59262587 0.00041815573 0)
(0.58956696 0.00040113448 0)
(0.58655241 0.00038508614 0)
(0.58358024 0.00037021109 0)
(0.58064293 0.00035620381 0)
(0.57774306 0.00034400812 0)
(0.57485639 0.00033225542 0)
(0.57201021 0.0003244392 0)
(0.5691131 0.00031654217 0)
(0.56628548 0.00031849101 0)
(0.56319614 0.00031396587 0)
(0.56048144 0.00033840751 0)
(0.55579258 0.00029997547 0)
(0.979987 0.019204627 0)
(0.98216529 0.022771795 0)
(0.9853664 0.025375274 0)
(0.98892523 0.026735492 0)
(0.99228411 0.027076332 0)
(0.99516943 0.026747506 0)
(0.99754763 0.02604146 0)
(0.99949627 0.025150171 0)
(1.0011024 0.024161525 0)
(1.0024235 0.023130517 0)
(1.0035074 0.022096837 0)
(1.0043947 0.021078766 0)
(1.0051148 0.020093896 0)
(1.0056919 0.019153687 0)
(1.0061484 0.018270815 0)
(1.0065085 0.017449799 0)
(1.0067878 0.016686821 0)
(1.006997 0.015989119 0)
(1.0071498 0.015355396 0)
(1.0072623 0.014782029 0)
(1.0073357 0.014265226 0)
(1.0073788 0.013798685 0)
(1.0074048 0.013378741 0)
(1.0073976 0.012999108 0)
(1.0073573 0.012653791 0)
(1.0072634 0.012339244 0)
(1.0070884 0.012050206 0)
(1.0067761 0.011779883 0)