/*--------------------------------*- C++ -*----------------------------------*\
| =========                 |                                                 |
| \\      /  F ield         | OpenFOAM: The Open Source CFD Toolbox           |
|  \\    /   O peration     | Version:  2206                                  |
|   \\  /    A nd           | Website:  www.openfoam.com                      |
|    \\/     M anipulation  |                                                 |
\*---------------------------------------------------------------------------*/
FoamFile
{
    version     2.0;
    format      ascii;
    arch        "LSB;label=32;scalar=64";
    class       volScalarField;
    location    "500";
    object      epsilon;
}
// * * * * * * * * * * * * * * * * * * * * * * * * * * * * * * * * * * * * * //

dimensions      [0 2 -3 0 0 0 0];

internalField   nonuniform List<scalar> 
13056
(
0.0093591391
0.0093356587
0.0093245453
0.0093197304
0.0093171066
0.0093153883
0.0093141718
0.0093132864
0.0093126378
0.0093121674
0.0093118376
0.0093116245
0.0093115145
0.0093115027
0.0093115944
0.0093118059
0.0093121823
0.0093127843
0.0093138596
0.0093155047
0.0093196998
0.0093261534
0.0093428093
0.012673732
0.033270489
0.0026743988
0.011070109
0.00090883727
0.0064777498
0.0056009909
0.0050520127
0.0046330072
0.0043121519
0.0040578401
0.0038506981
0.0036783179
0.0035323898
0.0034071051
0.0032982401
0.0032026553
0.0031179749
0.0030423623
0.0029743728
0.002912859
0.0028568944
0.0028057133
0.0027586895
0.0027153017
0.0026751135
0.0026377555
0.0026029133
0.0025703172
0.0025397346
0.0025109637
0.0024838288
0.0024581757
0.0024338691
0.0024107892
0.0023888298
0.0023678965
0.0023479047
0.0023287792
0.0023104519
0.0022928615
0.0022759528
0.0022596755
0.002243984
0.0022288368
0.002214196
0.0022000271
0.0021862983
0.0021729805
0.0021600467
0.0021474722
0.0021352342
0.0021233116
0.0021116849
0.0021003357
0.0020892475
0.0020784046
0.0020677925
0.0020573973
0.0020472065
0.0020372081
0.002027391
0.0020177448
0.0020082599
0.0019989265
0.001989737
0.0019806829
0.0019717565
0.0019629506
0.0019542585
0.0019456738
0.0019371904
0.0019288027
0.0019205053
0.0019122933
0.0019041619
0.0018961063
0.0018881223
0.0018802058
0.001872353
0.0018645603
0.0018568242
0.0018491416
0.0018415095
0.0018339253
0.0018263865
0.0018188917
0.0018114393
0.0018040382
0.0017966655
0.0017896359
0.001783218
0.0017773974
0.00177209
0.0017672212
0.0017627305
0.0017585707
0.0017547036
0.001751097
0.0017477239
0.001744561
0.0017415879
0.0017387868
0.0017361418
0.0017336379
0.0017312623
0.0017289996
0.001726842
0.0017247504
0.0017227736
0.0017206827
0.0017190027
0.0017163474
0.0093575125
0.0093339328
0.0093227647
0.0093179224
0.0093152822
0.0093135526
0.0093123275
0.0093114353
0.0093107811
0.0093103057
0.0093099711
0.0093097531
0.0093096376
0.0093096192
0.0093097023
0.0093099019
0.0093102609
0.0093108369
0.009311866
0.0093134429
0.0093174531
0.0093236921
0.0093388768
0.012670179
0.036665566
0.003643645
0.014024138
0.0043431893
0.009390573
0.0085047689
0.007928314
0.0074949733
0.007162154
0.0068977024
0.0066818894
0.0065020543
0.0063496351
0.0062186447
0.0061047266
0.0060046345
0.0059159077
0.0058366402
0.0057653311
0.005700786
0.0056420406
0.0055882971
0.005538902
0.0054933107
0.0054510669
0.0054117841
0.0053751333
0.0053408321
0.0053086369
0.0052783362
0.0052497461
0.0052227048
0.0051970705
0.0051727176
0.0051495345
0.0051274224
0.0051062925
0.0050860659
0.0050666711
0.005048044
0.0050301266
0.0050128662
0.0049962151
0.0049801297
0.0049645704
0.004949501
0.0049348882
0.0049207016
0.0049069131
0.0048934967
0.0048804288
0.0048676873
0.0048552517
0.0048431033
0.0048312245
0.0048195993
0.0048082123
0.0047970494
0.0047860974
0.0047753442
0.0047647782
0.0047543887
0.0047441661
0.0047340995
0.0047241824
0.0047144053
0.0047047606
0.0046952412
0.0046858402
0.0046765512
0.0046673682
0.0046582855
0.0046492978
0.0046404003
0.0046315882
0.004622857
0.0046142024
0.0046056207
0.004597108
0.0045886609
0.0045802761
0.0045719507
0.0045636819
0.0045554673
0.0045473052
0.0045391947
0.0045311347
0.0045231372
0.004515172
0.004507647
0.0045008517
0.0044947305
0.004489176
0.0044840993
0.0044794306
0.0044751166
0.0044711149
0.0044673905
0.0044639134
0.0044606586
0.0044576041
0.0044547308
0.0044520215
0.0044494604
0.0044470338
0.0044447254
0.0044425271
0.0044403971
0.004438389
0.0044362536
0.0044345497
0.0044318557
0.0093523397
0.0093284561
0.0093171211
0.0093121952
0.0093095053
0.0093077414
0.0093064909
0.009305579
0.0093049089
0.0093044204
0.0093040744
0.0093038459
0.0093037203
0.0093036911
0.0093037617
0.0093039457
0.0093042828
0.0093048276
0.0093058026
0.0093073004
0.0093110954
0.0093170997
0.0093304476
0.012658808
0.03998877
0.0045846352
0.016831044
0.0077177326
0.012179538
0.011286812
0.010690647
0.010246278
0.0099041579
0.0096317641
0.0094091268
0.0092234128
0.0090658652
0.0089303602
0.00881244
0.008708776
0.0086168411
0.0085346753
0.0084607332
0.0083937836
0.0083328323
0.0082770558
0.0082257788
0.0081784382
0.0081345617
0.0080937494
0.0080556607
0.0080200027
0.0079865234
0.0079550035
0.0079252523
0.0078971023
0.0078704061
0.0078450337
0.0078208695
0.0077978106
0.0077757653
0.0077546514
0.0077343952
0.00771493
0.0076961957
0.0076781377
0.0076607066
0.0076438573
0.0076275487
0.0076117433
0.0075964068
0.0075815076
0.0075670167
0.0075529074
0.0075391552
0.0075257373
0.0075126327
0.007499822
0.0074872872
0.0074750118
0.00746298
0.0074511773
0.0074395902
0.0074282064
0.007417014
0.0074060022
0.0073951611
0.0073844795
0.0073739513
0.0073635667
0.007353318
0.0073431981
0.0073332002
0.0073233179
0.0073135453
0.0073038767
0.007294307
0.0072848314
0.0072754453
0.0072661443
0.0072569243
0.0072477817
0.0072387129
0.0072297144
0.0072207832
0.0072119167
0.0072031121
0.0071943677
0.0071856821
0.0071770549
0.0071684857
0.0071599891
0.0071515285
0.0071435973
0.0071365023
0.0071301481
0.0071244063
0.007119175
0.0071143764
0.007109952
0.0071058557
0.0071020498
0.0070985024
0.0070951867
0.0070920796
0.0070891607
0.0070864119
0.0070838168
0.0070813609
0.0070790271
0.0070768072
0.0070746572
0.0070726347
0.0070704736
0.0070687599
0.0070660495
0.0093434565
0.0093190537
0.0093074332
0.0093023646
0.0092995898
0.0092977675
0.0092964737
0.0092955285
0.009294832
0.009294322
0.0092939579
0.0092937137
0.0092935735
0.0092935301
0.0092935856
0.0092937519
0.0092940661
0.0092945794
0.0092955011
0.0092969226
0.0093005082
0.0093063022
0.0093177174
0.012639745
0.04317676
0.0054810338
0.019452179
0.010962112
0.014806354
0.013909881
0.013300636
0.012848495
0.012499686
0.012221497
0.011993833
0.011803772
0.011642416
0.011503548
0.01138264
0.011276305
0.011181969
0.011097631
0.011021715
0.010952961
0.010890354
0.010833051
0.01078036
0.010731704
0.010686598
0.010644633
0.010605459
0.010568777
0.010534326
0.010501882
0.01047125
0.010442257
0.010414752
0.010388602
0.010363687
0.010339902
0.010317153
0.010295355
0.010274434
0.01025432
0.010234951
0.010216272
0.010198232
0.010180785
0.010163888
0.010147504
0.010131597
0.010116134
0.010101086
0.010086426
0.010072129
0.010058171
0.010044531
0.010031189
0.010018127
0.010005328
0.0099927761
0.0099804563
0.009968355
0.0099564597
0.0099447584
0.0099332401
0.0099218953
0.0099107119
0.0098996846
0.0098888033
0.0098780602
0.0098674485
0.0098569612
0.0098465923
0.0098363357
0.0098261861
0.0098161383
0.0098061877
0.0097963299
0.0097865607
0.0097768762
0.0097672728
0.0097577471
0.009748296
0.0097389166
0.0097296062
0.0097203626
0.0097111843
0.0097020705
0.0096930212
0.0096840365
0.0096751337
0.0096662701
0.009658017
0.0096506943
0.0096441696
0.0096382953
0.0096329583
0.0096280737
0.0096235786
0.0096194237
0.0096155695
0.009611982
0.0096086333
0.0096054993
0.0096025588
0.0095997928
0.0095971842
0.0095947183
0.0095923773
0.009590153
0.0095879993
0.0095859774
0.0095838074
0.0095820963
0.0095793893
0.0093306046
0.0093054506
0.0092934167
0.0092881411
0.0092852432
0.0092833362
0.0092819799
0.0092809866
0.0092802522
0.0092797115
0.0092793221
0.0092790561
0.0092788967
0.0092788353
0.0092788726
0.0092790192
0.0092793089
0.0092797899
0.0092806587
0.0092820059
0.0092853861
0.0092909941
0.0093003586
0.01261248
0.046163409
0.0063156259
0.021846198
0.014006969
0.017230307
0.016334111
0.015717625
0.015260969
0.014908071
0.014626217
0.014395309
0.014202411
0.01403855
0.013897452
0.013774552
0.01366643
0.013570481
0.013484681
0.013407434
0.013337462
0.013273736
0.013215399
0.013161748
0.013112198
0.013066256
0.013023504
0.012983589
0.012946203
0.012911085
0.012878004
0.012846762
0.012817184
0.012789115
0.012762421
0.012736979
0.012712682
0.012689435
0.012667152
0.012645755
0.012625175
0.01260535
0.012586221
0.012567739
0.012549855
0.012532528
0.012515717
0.012499388
0.012483507
0.012468044
0.012452972
0.012438265
0.0124239
0.012409855
0.01239611
0.012382647
0.012369448
0.012356497
0.01234378
0.012331283
0.012318993
0.012306897
0.012294986
0.01228325
0.012271676
0.012260259
0.012248989
0.012237859
0.012226862
0.012215991
0.01220524
0.012194603
0.012184075
0.012173651
0.012163326
0.012153097
0.012142959
0.012132908
0.012122942
0.012113057
0.012103249
0.012093517
0.012083858
0.01207427
0.012064751
0.012055302
0.012045923
0.012036614
0.012027395
0.012018219
0.012009724
0.012002242
0.011995606
0.011989651
0.011984253
0.011979323
0.011974794
0.011970614
0.011966742
0.011963143
0.011959786
0.011956649
0.011953709
0.011950946
0.011948343
0.011945885
0.011943553
0.01194134
0.011939197
0.01193719
0.011935026
0.011933329
0.011930643
0.0093134349
0.0092872747
0.0092746863
0.0092691327
0.0092660692
0.0092640485
0.0092626081
0.0092615503
0.0092607652
0.0092601837
0.0092597606
0.0092594664
0.0092592824
0.0092591986
0.0092592144
0.0092593383
0.0092596016
0.0092600493
0.0092608651
0.0092621397
0.0092653174
0.0092707638
0.0092779384
0.012576334
0.048879552
0.0070703024
0.023969004
0.016784762
0.019408119
0.018516899
0.0178985
0.017440626
0.017086261
0.016802886
0.016570519
0.016376299
0.016211231
0.016069033
0.015945133
0.015836101
0.015739324
0.015652768
0.015574826
0.015504215
0.015439901
0.015381017
0.015326857
0.015276829
0.015230436
0.01518726
0.01514694
0.015109169
0.015073682
0.015040246
0.015008662
0.014978753
0.014950362
0.014923354
0.014897605
0.014873008
0.014849465
0.014826891
0.014805206
0.014784342
0.014764235
0.014744827
0.014726066
0.014707905
0.014690302
0.014673216
0.014656612
0.014640456
0.014624719
0.014609372
0.01459439
0.01457975
0.014565429
0.014551408
0.014537668
0.014524192
0.014510964
0.014497969
0.014485193
0.014472623
0.014460249
0.014448058
0.014436041
0.014424186
0.014412489
0.014400939
0.01438953
0.014378253
0.014367102
0.014356073
0.014345158
0.014334354
0.014323655
0.014313057
0.014302555
0.014292147
0.014281829
0.014271597
0.014261449
0.014251381
0.014241391
0.014231478
0.014221638
0.014211872
0.014202179
0.014192561
0.014183019
0.014173573
0.014164172
0.014155516
0.014147941
0.014141249
0.014135261
0.014129847
0.01412491
0.014120382
0.014116208
0.014112346
0.01410876
0.014105421
0.014102303
0.014099383
0.014096642
0.014094062
0.014091627
0.01408932
0.014087132
0.014085015
0.014083034
0.014080891
0.014079218
0.014076571
0.0092915091
0.0092640586
0.0092507576
0.0092448463
0.0092415695
0.0092394022
0.0092378535
0.0092367127
0.0092358623
0.0092352284
0.0092347625
0.0092344325
0.0092342178
0.0092341067
0.0092340968
0.0092341951
0.0092344296
0.0092348424
0.0092356047
0.0092368078
0.009239785
0.0092450962
0.0092499191
0.012530459
0.051253837
0.0077263319
0.025774466
0.019231097
0.021294577
0.020413559
0.019798284
0.019342555
0.018989389
0.018706666
0.01847465
0.018280638
0.018115676
0.017973515
0.017849613
0.017740554
0.017643735
0.017557128
0.01747913
0.017408461
0.017344088
0.017285146
0.017230924
0.017180834
0.017134378
0.017091135
0.017050749
0.017012909
0.016977351
0.016943843
0.016912183
0.016882195
0.016853724
0.016826631
0.016800796
0.016776108
0.016752472
0.016729801
0.016708016
0.016687048
0.016666834
0.016647315
0.016628441
0.016610163
0.016592439
0.016575229
0.016558497
0.01654221
0.016526339
0.016510856
0.016495734
0.016480951
0.016466484
0.016452315
0.016438424
0.016424794
0.01641141
0.016398256
0.016385319
0.016372587
0.016360048
0.016347691
0.016335507
0.016323482
0.016311615
0.016299894
0.016288312
0.016276862
0.016265538
0.016254335
0.016243247
0.016232269
0.016221397
0.016210626
0.016199953
0.016189374
0.016178887
0.016168487
0.016158172
0.01614794
0.016137789
0.016127715
0.016117718
0.016107798
0.016097954
0.016088188
0.016078502
0.016068919
0.016059382
0.016050642
0.016043038
0.016036345
0.016030372
0.016024982
0.016020076
0.016015581
0.016011443
0.016007619
0.016004072
0.016000772
0.015997693
0.015994813
0.015992112
0.015989571
0.015987176
0.015984908
0.015982759
0.01598068
0.015978737
0.015976629
0.01597499
0.015972396
0.0092643026
0.0092352419
0.0092210499
0.0092146902
0.0092111459
0.0092087945
0.0092071098
0.0092058648
0.0092049326
0.0092042331
0.0092037138
0.0092033393
0.0092030868
0.0092029426
0.0092029024
0.0092029713
0.0092031741
0.0092035502
0.0092042581
0.0092053906
0.0092081687
0.0092133733
0.0092156581
0.012473857
0.053214698
0.0082649322
0.027215936
0.021286401
0.022843935
0.021978752
0.021371498
0.020921356
0.020572113
0.020292259
0.020062433
0.019870185
0.019706659
0.01956569
0.019442795
0.019334601
0.019238535
0.019152591
0.019075181
0.019005039
0.018941142
0.01888263
0.018828799
0.018779064
0.018732933
0.018689988
0.018649873
0.018612283
0.018576954
0.018543655
0.018512188
0.018482377
0.018454067
0.018427121
0.01840142
0.018376854
0.018353328
0.018330755
0.018309059
0.01828817
0.018268025
0.018248566
0.018229744
0.018211509
0.018193821
0.01817664
0.018159929
0.018143658
0.018127795
0.018112314
0.018097189
0.018082396
0.018067916
0.018053727
0.018039812
0.018026154
0.018012736
0.017999546
0.017986569
0.017973792
0.017961205
0.017948797
0.01793656
0.017924479
0.017912553
0.017900771
0.017889125
0.017877611
0.017866221
0.017854951
0.017843794
0.017832747
0.017821806
0.017810965
0.017800222
0.017789574
0.017779017
0.017768549
0.017758166
0.017747868
0.01773765
0.017727513
0.017717453
0.017707472
0.017697571
0.01768775
0.017678012
0.017668381
0.017658798
0.017650052
0.017642483
0.017635842
0.01762993
0.017624604
0.017619763
0.017615335
0.017611262
0.017607502
0.017604017
0.017600778
0.017597758
0.017594936
0.017592292
0.017589806
0.017587465
0.01758525
0.017583152
0.017581123
0.01757923
0.017577169
0.017575573
0.017573048
0.0092312063
0.0092001735
0.0091848875
0.009177976
0.0091741018
0.0091715233
0.0091696709
0.0091682973
0.0091672641
0.0091664839
0.0091658988
0.0091654699
0.0091651713
0.0091649874
0.0091649114
0.0091649464
0.0091651142
0.009165451
0.0091661031
0.0091671658
0.0091697456
0.0091748755
0.0091744084
0.012405382
0.054693379
0.0086681279
0.028248494
0.022897885
0.024012034
0.023168619
0.022574237
0.022133203
0.021790663
0.021515938
0.021290179
0.021101275
0.020940539
0.020801933
0.02068107
0.020574647
0.02048014
0.02039558
0.020319409
0.020250384
0.020187503
0.020129916
0.020076933
0.020027976
0.019982562
0.019940279
0.019900779
0.01986376
0.019828962
0.019796159
0.019765156
0.019735777
0.019707873
0.019681309
0.019655965
0.019631735
0.019608524
0.019586249
0.019564832
0.019544206
0.019524308
0.019505083
0.01948648
0.019468453
0.019450959
0.019433961
0.019417423
0.019401314
0.019385605
0.019370267
0.019355277
0.019340612
0.019326251
0.019312174
0.019298365
0.019284805
0.019271481
0.019258377
0.019245482
0.019232782
0.019220266
0.019207925
0.01919575
0.019183728
0.019171857
0.019160127
0.01914853
0.019137061
0.019125715
0.019114486
0.019103368
0.019092359
0.019081453
0.019070647
0.019059938
0.019049323
0.019038799
0.019028363
0.019018013
0.019007747
0.018997562
0.018987458
0.018977433
0.018967487
0.018957622
0.018947839
0.018938142
0.018928554
0.018919016
0.018910343
0.018902871
0.018896335
0.018890529
0.018885307
0.018880567
0.018876235
0.018872255
0.018868584
0.018865184
0.018862027
0.018859087
0.018856341
0.018853769
0.018851354
0.018849081
0.018846931
0.018844897
0.018842931
0.018841098
0.018839097
0.018837553
0.01883511
0.009191529
0.0091581133
0.0091415013
0.0091339192
0.0091296436
0.0091267885
0.0091247316
0.0091232013
0.0091220451
0.0091211665
0.0091205014
0.0091200064
0.0091196524
0.0091194208
0.0091193026
0.0091192985
0.0091194271
0.0091197217
0.0091203161
0.0091213095
0.0091236912
0.009128782
0.0091253186
0.012323759
0.055627857
0.0089198514
0.028831826
0.024021758
0.024759046
0.02394353
0.023366856
0.022938514
0.022605503
0.022338202
0.022118413
0.021934459
0.021777884
0.021642826
0.021525033
0.021421296
0.021329162
0.021246716
0.021172443
0.021105134
0.021043812
0.020987651
0.020935975
0.020888222
0.020843921
0.02080267
0.02076413
0.020728006
0.020694045
0.020662027
0.020631759
0.020603074
0.020575823
0.020549876
0.020525115
0.020501437
0.02047875
0.020456972
0.020436027
0.020415851
0.020396382
0.020377565
0.020359351
0.020341696
0.020324558
0.020307901
0.020291689
0.020275893
0.020260482
0.020245433
0.020230719
0.020216319
0.020202214
0.020188383
0.020174811
0.02016148
0.020148376
0.020135485
0.020122795
0.020110294
0.020097971
0.020085817
0.020073823
0.020061977
0.020050277
0.020038713
0.020027279
0.020015969
0.020004777
0.0199937
0.019982731
0.019971867
0.019961105
0.01995044
0.019939871
0.019929393
0.019919005
0.019908705
0.019898489
0.019888356
0.019878304
0.019868332
0.019858439
0.019848625
0.019838893
0.019829244
0.019819681
0.019810229
0.019800827
0.019792306
0.019784995
0.019778616
0.01977296
0.019767881
0.019763276
0.019759071
0.019755211
0.019751653
0.019748362
0.019745307
0.019742464
0.019739811
0.019737328
0.019734998
0.019732806
0.019730735
0.019728777
0.019726884
0.019725123
0.019723194
0.01972171
0.019719363
0.0091444996
0.0091082336
0.0090900306
0.0090816416
0.0090768819
0.0090736931
0.0090713893
0.0090696697
0.0090683649
0.0090673675
0.0090666059
0.0090660314
0.0090656107
0.0090653223
0.0090651543
0.0090651049
0.0090651893
0.009065438
0.0090659724
0.0090668967
0.0090690798
0.0090741715
0.0090674323
0.012227589
0.055967372
0.0090072238
0.028933573
0.024625653
0.025052669
0.024271267
0.023717118
0.023305077
0.022984442
0.022726877
0.022514974
0.022337583
0.022186548
0.022056231
0.021942551
0.02184242
0.021753477
0.021673879
0.021602165
0.021537171
0.021477957
0.021423722
0.021373815
0.021327694
0.021284903
0.021245055
0.021207821
0.021172918
0.021140101
0.021109156
0.0210799
0.021052169
0.02102582
0.021000726
0.020976775
0.020953867
0.020931913
0.020910833
0.020890556
0.020871017
0.020852158
0.020833926
0.020816273
0.020799157
0.020782537
0.020766379
0.020750648
0.020735315
0.020720353
0.020705736
0.020691441
0.020677447
0.020663735
0.020650285
0.020637083
0.020624111
0.020611357
0.020598807
0.020586448
0.020574271
0.020562264
0.020550418
0.020538725
0.020527174
0.020515763
0.020504482
0.020493325
0.020482287
0.020471364
0.02046055
0.02044984
0.020439233
0.020428723
0.020418307
0.020407984
0.02039775
0.020387604
0.020377542
0.020367563
0.020357666
0.020347848
0.020338108
0.020328446
0.020318863
0.02030936
0.020299941
0.020290607
0.020281384
0.020272211
0.020263921
0.020256833
0.020250663
0.020245201
0.020240302
0.020235865
0.020231817
0.020228104
0.020224684
0.020221522
0.02021859
0.020215863
0.020213319
0.020210941
0.02020871
0.020206613
0.020204633
0.020202762
0.020200954
0.020199273
0.020197429
0.020196014
0.020193776
0.0090892691
0.0090496217
0.0090295246
0.0090201716
0.0090148327
0.0090112441
0.0090086444
0.0090066979
0.0090052148
0.0090040749
0.0090031976
0.0090025278
0.0090020276
0.0090016716
0.0090014449
0.009001343
0.0090013773
0.0090015757
0.009002047
0.009002902
0.0090048852
0.0090100227
0.0089996893
0.012115372
0.055677178
0.0089219433
0.028532984
0.024691202
0.024871605
0.024130488
0.023603605
0.023211447
0.022906013
0.022660478
0.022458365
0.022289139
0.022145013
0.022020624
0.021912091
0.02181648
0.021731542
0.02165552
0.021587023
0.021524939
0.021468375
0.021416565
0.021368887
0.021324823
0.021283936
0.021245859
0.021210277
0.021176918
0.02114555
0.021115967
0.021087995
0.021061478
0.021036277
0.021012274
0.020989359
0.020967438
0.020946425
0.020926245
0.020906828
0.020888114
0.020870046
0.020852575
0.020835655
0.020819244
0.020803305
0.020787804
0.020772709
0.020757991
0.020743625
0.020729587
0.020715853
0.020702405
0.020689223
0.02067629
0.020663591
0.020651111
0.020638836
0.020626754
0.020614853
0.020603124
0.020591556
0.02058014
0.020568869
0.020557731
0.020546727
0.020535845
0.020525082
0.020514431
0.020503889
0.020493451
0.020483112
0.020472871
0.020462722
0.020452664
0.020442694
0.020432811
0.02042301
0.020413292
0.020403653
0.020394093
0.020384611
0.020375204
0.020365872
0.020356617
0.020347441
0.020338347
0.020329337
0.020320437
0.020311585
0.020303604
0.020296801
0.02029089
0.020285665
0.020280984
0.020276748
0.020272886
0.020269346
0.020266088
0.020263077
0.020260286
0.020257693
0.020255275
0.020253016
0.020250899
0.02024891
0.020247033
0.02024526
0.020243547
0.020241957
0.020240208
0.02023887
0.020236755
0.0090249141
0.0089812824
0.0089589446
0.0089484475
0.0089424196
0.0089383549
0.0089354027
0.0089331856
0.00893149
0.00893018
0.0089291647
0.0089283814
0.0089277866
0.0089273505
0.0089270548
0.0089268916
0.0089268689
0.0089270115
0.0089274158
0.008928201
0.0089299819
0.0089352158
0.0089209259
0.011985516
0.0547432
0.0086616788
0.027624605
0.024216668
0.024209077
0.023514216
0.023019178
0.022650379
0.022362893
0.022131622
0.021941152
0.021781652
0.02164577
0.021528462
0.021426088
0.021335888
0.021255748
0.021184014
0.021119374
0.021060784
0.021007401
0.020958502
0.020913501
0.020871908
0.020833313
0.020797367
0.020763773
0.020732275
0.020702654
0.020674716
0.020648296
0.020623245
0.020599436
0.020576754
0.020555097
0.020534376
0.020514509
0.020495425
0.020477059
0.020459354
0.020442257
0.02042572
0.0204097
0.020394158
0.02037906
0.020364372
0.020350065
0.020336111
0.020322487
0.02030917
0.020296138
0.020283373
0.020270858
0.020258575
0.020246511
0.020234652
0.020222984
0.020211497
0.020200179
0.02018902
0.020178012
0.020167146
0.020156416
0.02014581
0.020135329
0.020124962
0.020114706
0.020104555
0.020094506
0.020084555
0.020074697
0.02006493
0.020055251
0.020045657
0.020036146
0.020026717
0.020017367
0.020008094
0.019998898
0.019989776
0.019980728
0.019971752
0.019962849
0.019954019
0.019945266
0.019936591
0.019927998
0.019919511
0.019911073
0.019903477
0.019897019
0.019891417
0.019886471
0.019882044
0.01987804
0.019874392
0.01987105
0.019867976
0.019865137
0.019862507
0.019860064
0.019857788
0.019855663
0.019853672
0.019851803
0.01985004
0.019848377
0.01984677
0.01984528
0.019843638
0.019842385
0.019840403
0.0089504414
0.0089021421
0.008877168
0.0088653201
0.0088584767
0.0088538481
0.0088504779
0.0088479398
0.008845992
0.0088444803
0.0088433011
0.0088423831
0.008841676
0.0088411453
0.0088407682
0.0088405338
0.0088404457
0.008840526
0.0088408586
0.0088415728
0.0088431481
0.0088485345
0.0088298785
0.011836367
0.053175622
0.0082313372
0.026221752
0.023219428
0.023076127
0.022433094
0.021974192
0.021632027
0.021365081
0.021150187
0.020973116
0.02082482
0.020698445
0.020589315
0.020494059
0.020410119
0.020335532
0.020268761
0.02020859
0.020154047
0.020104351
0.020058828
0.020016931
0.019978206
0.01994227
0.019908798
0.019877514
0.01984818
0.019820591
0.019794567
0.019769954
0.019746615
0.019724429
0.01970329
0.019683103
0.019663784
0.019645259
0.019627461
0.019610329
0.019593809
0.019577853
0.019562416
0.019547458
0.019532943
0.019518839
0.019505113
0.01949174
0.019478695
0.019465953
0.019453495
0.0194413
0.019429352
0.019417633
0.019406129
0.019394827
0.019383713
0.019372776
0.019362005
0.019351389
0.01934092
0.019330589
0.019320389
0.019310315
0.019300354
0.019290507
0.019280766
0.019271127
0.019261586
0.019252138
0.01924278
0.019233508
0.019224321
0.019215215
0.019206188
0.019197238
0.019188364
0.019179564
0.019170836
0.01916218
0.019153593
0.019145076
0.019136626
0.019128245
0.019119933
0.019111693
0.019103529
0.019095442
0.019087458
0.019079519
0.019072384
0.019066327
0.019061081
0.019056453
0.019052314
0.019048573
0.019045166
0.019042046
0.019039178
0.019036529
0.019034077
0.019031801
0.019029683
0.019027705
0.019025853
0.019024116
0.019022478
0.019020934
0.019019443
0.019018061
0.019016537
0.019015375
0.019013539
0.0088647944
0.0088110552
0.0087829943
0.0087695584
0.0087617545
0.0087564607
0.0087525972
0.00874968
0.0087474341
0.0087456838
0.0087443109
0.0087432336
0.0087423939
0.0087417515
0.008741279
0.0087409614
0.008740798
0.0087408084
0.0087410632
0.0087417048
0.0087430693
0.0087486712
0.008725188
0.01166623
0.051011527
0.007644044
0.024359388
0.021738057
0.02150432
0.020918069
0.020499147
0.020186568
0.019942508
0.019745908
0.019583831
0.019448084
0.019332371
0.019232419
0.019145159
0.019068253
0.01899991
0.018938724
0.018883582
0.018833595
0.01878805
0.018746328
0.01870793
0.018672437
0.018639498
0.018608817
0.01858014
0.018553248
0.018527954
0.018504092
0.018481523
0.018460118
0.018439769
0.018420378
0.018401857
0.01838413
0.018367128
0.01835079
0.01833506
0.01831989
0.018305234
0.018291051
0.018277305
0.018263962
0.018250994
0.01823837
0.018226068
0.018214062
0.018202334
0.018190862
0.018179631
0.018168622
0.018157822
0.018147217
0.018136794
0.018126542
0.01811645
0.018106507
0.018096705
0.018087036
0.018077492
0.018068067
0.018058754
0.018049543
0.018040437
0.018031425
0.018022506
0.018013675
0.018004928
0.017996263
0.017987677
0.017979167
0.01797073
0.017962366
0.017954072
0.017945847
0.01793769
0.017929599
0.017921573
0.017913612
0.017905714
0.017897879
0.017890107
0.017882399
0.017874759
0.017867189
0.017859692
0.017852291
0.017844934
0.017838327
0.017832726
0.017827878
0.017823605
0.017819785
0.017816334
0.017813193
0.017810317
0.017807674
0.017805234
0.017802977
0.017800883
0.017798934
0.017797116
0.017795415
0.01779382
0.017792318
0.017790902
0.017789535
0.01778827
0.017786873
0.017785809
0.017784129
0.0087668622
0.0087068131
0.0086751534
0.0086598587
0.0086509277
0.0086448524
0.0086404089
0.0086370458
0.0086344489
0.0086324176
0.0086308165
0.0086295514
0.0086285556
0.0086277818
0.0086271973
0.0086267826
0.0086265325
0.0086264637
0.0086266335
0.0086271999
0.0086283469
0.0086342339
0.0086054087
0.011473402
0.048315299
0.0069217114
0.022096014
0.019833607
0.019547498
0.019022107
0.01864638
0.018365875
0.018146691
0.017970016
0.0178243
0.017702253
0.01759819
0.017508278
0.017429769
0.017360568
0.017299066
0.017244002
0.017194375
0.017149386
0.017108395
0.017070845
0.017036287
0.017004342
0.016974696
0.016947081
0.016921269
0.016897063
0.016874293
0.016852812
0.016832492
0.016813219
0.016794894
0.016777429
0.016760746
0.016744776
0.016729457
0.016714732
0.016700553
0.016686875
0.016673658
0.016660865
0.016648462
0.016636421
0.016624714
0.016613315
0.016602202
0.016591355
0.016580754
0.016570383
0.016560224
0.016550265
0.016540491
0.01653089
0.016521451
0.016512163
0.016503017
0.016494004
0.016485115
0.016476344
0.016467683
0.016459127
0.016450671
0.016442304
0.01643403
0.01642584
0.016417731
0.0164097
0.016401744
0.01639386
0.016386046
0.0163783
0.016370619
0.016363002
0.016355448
0.016347955
0.016340523
0.01633315
0.016325836
0.01631858
0.01631138
0.016304238
0.016297152
0.016290125
0.01628316
0.016276259
0.016269425
0.01626268
0.016255975
0.016249957
0.016244858
0.016240447
0.01623656
0.016233088
0.016229951
0.016227096
0.016224483
0.016222083
0.016219868
0.016217819
0.01621592
0.016214154
0.016212506
0.016210966
0.016209522
0.016208164
0.016206884
0.016205649
0.016204506
0.016203245
0.016202284
0.016200769
0.0086554931
0.0085881578
0.0085523188
0.0085348564
0.008524608
0.008517618
0.0085124951
0.0085086091
0.0085056007
0.0085032397
0.0085013706
0.008499885
0.0084987058
0.0084977777
0.0084970619
0.0084965341
0.0084961838
0.0084960249
0.008496101
0.0084965886
0.0084975092
0.0085037584
0.008469022
0.011256214
0.045176659
0.0060949687
0.019514076
0.017589624
0.017282114
0.016820506
0.016490353
0.016243788
0.016050989
0.015895489
0.015767183
0.015659724
0.015568079
0.015488877
0.01541971
0.015358739
0.015304548
0.015256028
0.015212298
0.015172656
0.015136538
0.015103454
0.015073005
0.015044861
0.015018742
0.014994413
0.014971671
0.014950344
0.014930282
0.014911354
0.014893448
0.014876463
0.014860313
0.014844919
0.014830212
0.014816131
0.014802621
0.014789634
0.014777125
0.014765056
0.01475339
0.014742096
0.014731143
0.014720507
0.014710162
0.014700087
0.014690261
0.014680667
0.014671288
0.014662108
0.014653114
0.014644292
0.014635631
0.014627121
0.01461875
0.014610511
0.014602394
0.014594392
0.014586497
0.014578703
0.014571005
0.014563397
0.014555874
0.014548429
0.014541063
0.014533769
0.014526545
0.014519388
0.014512295
0.014505265
0.014498295
0.014491383
0.014484527
0.014477727
0.014470982
0.014464289
0.01445765
0.014451062
0.014444525
0.014438039
0.014431603
0.014425216
0.01441888
0.014412597
0.014406368
0.014400197
0.014394086
0.014388055
0.014382062
0.014376681
0.014372121
0.014368178
0.014364704
0.0143616
0.014358797
0.014356247
0.014353912
0.014351768
0.01434979
0.014347961
0.014346266
0.014344691
0.014343223
0.014341851
0.014340566
0.014339357
0.014338219
0.014337121
0.014336106
0.014334986
0.014334133
0.014332789
0.0085295119
0.0084537999
0.0084131261
0.0083931449
0.0083813617
0.008373305
0.008367389
0.0083628923
0.0083594028
0.0083566561
0.0083544733
0.0083527296
0.0083513355
0.0083502269
0.0083493577
0.0083486981
0.0083482317
0.0083479699
0.0083479418
0.0083483461
0.0083490291
0.008355725
0.0083144561
0.01101308
0.041705972
0.0052022593
0.016718351
0.015110364
0.014805643
0.014409306
0.014126051
0.013914508
0.013748992
0.013615426
0.013505181
0.013412861
0.013334114
0.013266046
0.013206599
0.013154194
0.013107616
0.013065915
0.013028332
0.012994264
0.012963228
0.012934802
0.012908642
0.012884464
0.012862027
0.012841128
0.012821594
0.012803275
0.012786042
0.012769783
0.012754402
0.012739811
0.012725935
0.012712709
0.01270007
0.012687968
0.012676355
0.012665189
0.012654431
0.01264405