/*--------------------------------*- C++ -*----------------------------------*\
| =========                 |                                                 |
| \\      /  F ield         | OpenFOAM: The Open Source CFD Toolbox           |
|  \\    /   O peration     | Version:  2206                                  |
|   \\  /    A nd           | Website:  www.openfoam.com                      |
|    \\/     M anipulation  |                                                 |
\*---------------------------------------------------------------------------*/
FoamFile
{
    version     2.0;
    format      ascii;
    arch        "LSB;label=32;scalar=64";
    class       volScalarField;
    location    "500";
    object      k;
}
// * * * * * * * * * * * * * * * * * * * * * * * * * * * * * * * * * * * * * //

dimensions      [0 2 -2 0 0 0 0];

internalField   nonuniform List<scalar> 
13056
(
0.00014329073
0.0001413323
0.00014073446
0.00014047569
0.00014032508
0.000140224
0.00014015165
0.00014009808
0.00014005756
0.00014002653
0.00014000259
0.00013998411
0.00013996993
0.00013995917
0.00013995119
0.0001399455
0.00013994168
0.0001399395
0.00013993838
0.00013993958
0.00013993621
0.00013996737
0.00013979099
0.00014065375
1.904885e-05
3.5410154e-06
9.1143918e-06
1.7200721e-06
6.3663529e-06
5.7733653e-06
5.3893601e-06
5.0854259e-06
4.846471e-06
4.6528497e-06
4.4921419e-06
4.3561989e-06
4.2394516e-06
4.1379329e-06
4.0487057e-06
3.9695512e-06
3.8987669e-06
3.8350192e-06
3.7772462e-06
3.7245954e-06
3.6763715e-06
3.631993e-06
3.5909805e-06
3.5529319e-06
3.5175077e-06
3.4844189e-06
3.4534172e-06
3.4242884e-06
3.3968467e-06
3.37093e-06
3.346396e-06
3.3231196e-06
3.30099e-06
3.2799091e-06
3.2597891e-06
3.2405518e-06
3.222127e-06
3.2044515e-06
3.1874683e-06
3.1711259e-06
3.1553774e-06
3.1401803e-06
3.1254955e-06
3.1112879e-06
3.0975248e-06
3.0841765e-06
3.0712156e-06
3.0586168e-06
3.0463569e-06
3.0344142e-06
3.0227689e-06
3.0114025e-06
3.0002978e-06
2.9894387e-06
2.9788105e-06
2.9683995e-06
2.9581926e-06
2.9481776e-06
2.9383432e-06
2.9286789e-06
2.9191745e-06
2.9098208e-06
2.9006091e-06
2.8915305e-06
2.8825781e-06
2.8737444e-06
2.8650221e-06
2.8564047e-06
2.8478862e-06
2.8394607e-06
2.8311225e-06
2.8228664e-06
2.8146875e-06
2.8065812e-06
2.7985431e-06
2.7905686e-06
2.7826539e-06
2.7747952e-06
2.7669887e-06
2.7592311e-06
2.7515192e-06
2.74385e-06
2.7362205e-06
2.7286283e-06
2.7210712e-06
2.7135478e-06
2.7060565e-06
2.6986064e-06
2.6911746e-06
2.6840777e-06
2.6775882e-06
2.6716946e-06
2.6663139e-06
2.6613724e-06
2.6568101e-06
2.6525799e-06
2.6486439e-06
2.6449701e-06
2.6415316e-06
2.638305e-06
2.6352701e-06
2.6324088e-06
2.6297053e-06
2.6271448e-06
2.624714e-06
2.6223975e-06
2.6201875e-06
2.6180443e-06
2.6160175e-06
2.6138733e-06
2.6121493e-06
2.6094235e-06
0.00014327516
0.00014130848
0.00014070767
0.00014044745
0.00014029595
0.00014019425
0.00014012145
0.00014006752
0.00014002674
0.00013999549
0.00013997138
0.00013995277
0.00013993846
0.00013992761
0.00013991955
0.00013991379
0.00013990992
0.00013990768
0.00013990653
0.0001399077
0.00013990428
0.00013993557
0.00013975832
0.00014062657
1.9173656e-05
3.5846726e-06
9.505803e-06
2.3779166e-06
6.8382725e-06
6.2650456e-06
5.8813851e-06
5.5823789e-06
5.346871e-06
5.155757e-06
4.9969457e-06
4.8625089e-06
4.7469599e-06
4.6464118e-06
4.557986e-06
4.479503e-06
4.4092885e-06
4.3460292e-06
4.2886789e-06
4.2364039e-06
4.1885235e-06
4.1444488e-06
4.103704e-06
4.065891e-06
4.0306757e-06
3.9977732e-06
3.9669384e-06
3.9379596e-06
3.9106529e-06
3.8848577e-06
3.8604332e-06
3.8372554e-06
3.8152146e-06
3.7942133e-06
3.7741646e-06
3.7549909e-06
3.7366225e-06
3.7189968e-06
3.7020571e-06
3.6857523e-06
3.6700358e-06
3.6548655e-06
3.6402027e-06
3.6260122e-06
3.6122617e-06
3.5989218e-06
3.5859651e-06
3.5733667e-06
3.5611033e-06
3.5491537e-06
3.5374979e-06
3.5261177e-06
3.514996e-06
3.5041169e-06
3.4934659e-06
3.4830292e-06
3.4727939e-06
3.462748e-06
3.4528802e-06
3.4431801e-06
3.4336378e-06
3.424244e-06
3.4149903e-06
3.4058676e-06
3.3968696e-06
3.3879884e-06
3.3792171e-06
3.3705494e-06
3.3619791e-06
3.3535007e-06
3.3451085e-06
3.3367975e-06
3.3285628e-06
3.3204e-06
3.3123048e-06
3.3042728e-06
3.2963003e-06
3.2883836e-06
3.2805191e-06
3.2727035e-06
3.2649339e-06
3.2572073e-06
3.249521e-06
3.2418728e-06
3.2342605e-06
3.2266832e-06
3.2191394e-06
3.2116392e-06
3.2041577e-06
3.1970329e-06
3.1905411e-06
3.1846602e-06
3.1793014e-06
3.1743875e-06
3.1698562e-06
3.1656593e-06
3.1617579e-06
3.1581198e-06
3.1547173e-06
3.1515271e-06
3.1485285e-06
3.1457035e-06
3.1430361e-06
3.1405113e-06
3.138116e-06
3.1358346e-06
3.1336595e-06
3.1315506e-06
3.1295587e-06
3.127447e-06
3.1257542e-06
3.1230769e-06
0.00014322532
0.00014123348
0.00014062364
0.00014035899
0.00014020477
0.00014010119
0.00014002701
0.00013997203
0.00013993042
0.00013989852
0.00013987389
0.00013985484
0.00013984018
0.00013982903
0.00013982073
0.00013981477
0.00013981071
0.00013980834
0.00013980705
0.00013980814
0.00013980456
0.00013983626
0.00013965636
0.00014054038
1.9275084e-05
3.6094887e-06
9.8303649e-06
3.1059051e-06
7.2538466e-06
6.7013466e-06
6.322791e-06
6.030814e-06
5.8005248e-06
5.6134364e-06
5.4578407e-06
5.3260722e-06
5.2127532e-06
5.114099e-06
5.0273073e-06
4.9502519e-06
4.8812973e-06
4.8191599e-06
4.7628162e-06
4.711459e-06
4.6644287e-06
4.6211299e-06
4.5810931e-06
4.5439277e-06
4.509309e-06
4.4769584e-06
4.4466364e-06
4.4181353e-06
4.391275e-06
4.3658978e-06
4.3418657e-06
4.3190569e-06
4.2973636e-06
4.2766902e-06
4.2569513e-06
4.2380708e-06
4.21998e-06
4.2026175e-06
4.1859276e-06
4.1698601e-06
4.1543692e-06
4.1394133e-06
4.1249546e-06
4.1109584e-06
4.0973932e-06
4.0842297e-06
4.0714411e-06
4.0590032e-06
4.0468928e-06
4.0350893e-06
4.0235729e-06
4.0123259e-06
4.0013314e-06
3.9905739e-06
3.980039e-06
3.9697134e-06
3.9595843e-06
3.9496401e-06
3.9398696e-06
3.9302627e-06
3.9208096e-06
3.9115015e-06
3.9023299e-06
3.893286e-06
3.8843638e-06
3.8755556e-06
3.8668546e-06
3.8582546e-06
3.84975e-06
3.841335e-06
3.8330044e-06
3.8247532e-06
3.8165769e-06
3.8084711e-06
3.8004316e-06
3.7924545e-06
3.784536e-06
3.7766726e-06
3.7688611e-06
3.7610982e-06
3.753381e-06
3.7457071e-06
3.7380738e-06
3.7304788e-06
3.7229207e-06
3.7153985e-06
3.7079112e-06
3.7004694e-06
3.6930468e-06
3.6859978e-06
3.6795985e-06
3.673816e-06
3.6685571e-06
3.663742e-06
3.6593074e-06
3.6552044e-06
3.6513941e-06
3.6478441e-06
3.6445267e-06
3.6414185e-06
3.6384994e-06
3.6357512e-06
3.633158e-06
3.630705e-06
3.6283793e-06
3.6261656e-06
3.6240563e-06
3.6220117e-06
3.6200829e-06
3.6180336e-06
3.6163958e-06
3.613805e-06
0.00014313968
0.00014110491
0.00014047965
0.00014020746
0.00014004858
0.00013994178
0.00013986523
0.00013980845
0.00013976544
0.00013973242
0.00013970689
0.00013968711
0.00013967184
0.00013966019
0.00013965147
0.00013964515
0.0001396408
0.00013963817
0.00013963667
0.00013963762
0.00013963377
0.00013966617
0.00013948176
0.00014039236
1.9345485e-05
3.6129488e-06
1.0079766e-05
3.8664329e-06
7.6041867e-06
7.0736459e-06
6.7041522e-06
6.4210891e-06
6.1975972e-06
6.0158801e-06
5.8646633e-06
5.7365824e-06
5.6263948e-06
5.5304383e-06
5.4460031e-06
5.3710287e-06
5.303929e-06
5.2434579e-06
5.1886215e-06
5.1386463e-06
5.0929001e-06
5.0507805e-06
5.0118252e-06
4.9756565e-06
4.9419618e-06
4.9104716e-06
4.8809534e-06
4.8532057e-06
4.8270532e-06
4.8023426e-06
4.7789397e-06
4.7567259e-06
4.7355965e-06
4.7154585e-06
4.6962286e-06
4.6778328e-06
4.6602042e-06
4.6432829e-06
4.6270148e-06
4.6113508e-06
4.5962465e-06
4.5816614e-06
4.5675585e-06
4.5539041e-06
4.5406675e-06
4.5278203e-06
4.5153363e-06
4.5031919e-06
4.4913647e-06
4.4798345e-06
4.4685823e-06
4.4575906e-06
4.4468431e-06
4.4363249e-06
4.4260219e-06
4.4159211e-06
4.4060102e-06
4.3962779e-06
4.3867134e-06
4.3773069e-06
4.368049e-06
4.3589309e-06
4.3499449e-06
4.3410821e-06
4.3323368e-06
4.3237017e-06
4.3151702e-06
4.3067365e-06
4.2983949e-06
4.2901402e-06
4.2819673e-06
4.2738715e-06
4.2658483e-06
4.2578937e-06
4.2500038e-06
4.2421748e-06
4.2344031e-06
4.2266856e-06
4.219019e-06
4.2114004e-06
4.2038271e-06
4.1962968e-06
4.1888071e-06
4.181356e-06
4.1739422e-06
4.166565e-06
4.1592237e-06
4.1519295e-06
4.1446549e-06
4.1377664e-06
4.1315356e-06
4.1259197e-06
4.1208222e-06
4.116162e-06
4.1118753e-06
4.1079135e-06
4.1042378e-06
4.1008162e-06
4.0976214e-06
4.0946305e-06
4.0918235e-06
4.0891828e-06
4.0866928e-06
4.0843389e-06
4.0821086e-06
4.0799869e-06
4.0779665e-06
4.0760087e-06
4.0741639e-06
4.0721996e-06
4.0706345e-06
4.0681582e-06
0.00014301588
0.00014091903
0.00014027145
0.00013998833
0.00013982272
0.00013971125
0.00013963127
0.00013957188
0.00013952683
0.0001394922
0.00013946536
0.00013944451
0.00013942837
0.00013941598
0.00013940665
0.00013939982
0.00013939503
0.00013939204
0.00013939023
0.00013939096
0.00013938671
0.00013942012
0.0001392292
0.00014017812
1.9376736e-05
3.5924802e-06
1.0245289e-05
4.6163425e-06
7.8801262e-06
7.3730206e-06
7.0158744e-06
6.7434387e-06
6.5281698e-06
6.3530325e-06
6.2072343e-06
6.0837468e-06
5.9774886e-06
5.8849387e-06
5.8034948e-06
5.7311742e-06
5.6664489e-06
5.6081183e-06
5.555224e-06
5.507033e-06
5.4629486e-06
5.4223576e-06
5.3848044e-06
5.3499309e-06
5.31744e-06
5.2870733e-06
5.2586072e-06
5.2318472e-06
5.2066247e-06
5.1827915e-06
5.1602185e-06
5.1387914e-06
5.1184091e-06
5.098982e-06
5.0804297e-06
5.0626807e-06
5.0456704e-06
5.0293409e-06
5.0136399e-06
4.9985201e-06
4.9839386e-06
4.9698561e-06
4.9562372e-06
4.9430491e-06
4.9302623e-06
4.9178493e-06
4.9057849e-06
4.8940464e-06
4.8826122e-06
4.8714628e-06
4.8605799e-06
4.8499467e-06
4.8395475e-06
4.8293679e-06
4.8193944e-06
4.8096146e-06
4.8000164e-06
4.7905892e-06
4.7813225e-06
4.772207e-06
4.7632337e-06
4.7543941e-06
4.745681e-06
4.7370855e-06
4.7286027e-06
4.7202253e-06
4.7119472e-06
4.7037628e-06
4.6956668e-06
4.6876541e-06
4.67972e-06
4.6718602e-06
4.6640703e-06
4.6563465e-06
4.6486854e-06
4.6410831e-06
4.6335365e-06
4.6260426e-06
4.6185985e-06
4.6112013e-06
4.6038487e-06
4.5965385e-06
4.5892685e-06
4.582037e-06
4.574843e-06
4.5676862e-06
4.5605658e-06
4.5534937e-06
4.5464414e-06
4.539783e-06
4.5337826e-06
4.5283881e-06
4.523501e-06
4.5190399e-06
4.5149415e-06
4.5111577e-06
4.5076504e-06
4.5043885e-06
4.5013453e-06
4.4984985e-06
4.4958288e-06
4.493319e-06
4.490954e-06
4.4887198e-06
4.4866043e-06
4.4845929e-06
4.4826788e-06
4.4808245e-06
4.4790792e-06
4.4772169e-06
4.4757374e-06
4.4733963e-06
0.00014285069
0.00014067076
0.00013999329
0.00013969551
0.00013952086
0.00013940312
0.00013931854
0.00013925564
0.00013920786
0.00013917105
0.00013914245
0.00013912017
0.00013910285
0.00013908949
0.00013907933
0.00013907181
0.00013906644
0.00013906295
0.00013906071
0.00013906116
0.00013905638
0.00013909113
0.00013889149
0.00013989171
1.9360709e-05
3.5455522e-06
1.0318048e-05
5.3114045e-06
8.0723586e-06
7.5903376e-06
7.2482838e-06
6.9880439e-06
6.7822947e-06
6.6148309e-06
6.4753876e-06
6.3573045e-06
6.2556873e-06
6.1671741e-06
6.089284e-06
6.0201225e-06
5.958229e-06
5.902455e-06
5.8518835e-06
5.8058282e-06
5.7637374e-06
5.72498e-06
5.6891051e-06
5.6557839e-06
5.6247375e-06
5.5957203e-06
5.5685188e-06
5.5429474e-06
5.5188447e-06
5.4960691e-06
5.4744973e-06
5.4540203e-06
5.4345419e-06
5.4159759e-06
5.3982455e-06
5.381282e-06
5.3650235e-06
5.3494144e-06
5.3344047e-06
5.3199492e-06
5.3060066e-06
5.2925395e-06
5.2795137e-06
5.2668981e-06
5.2546645e-06
5.2427864e-06
5.2312397e-06
5.2200031e-06
5.2090555e-06
5.1983786e-06
5.1879548e-06
5.1777682e-06
5.1678037e-06
5.1580476e-06
5.148487e-06
5.1391102e-06
5.1299055e-06
5.120863e-06
5.1119726e-06
5.1032256e-06
5.0946133e-06
5.0861277e-06
5.0777621e-06
5.0695079e-06
5.0613606e-06
5.0533134e-06
5.0453603e-06
5.0374963e-06
5.0297164e-06
5.0220157e-06
5.0143898e-06
5.0068348e-06
4.9993465e-06
4.9919215e-06
4.9845566e-06
4.9772482e-06
4.9699934e-06
4.9627895e-06
4.9556339e-06
4.9485237e-06
4.9414571e-06
4.9344319e-06
4.9274463e-06
4.9204988e-06
4.9135886e-06
4.9067157e-06
4.8998795e-06
4.8930921e-06
4.8863249e-06
4.8799544e-06
4.874235e-06
4.8691062e-06
4.8644687e-06
4.8602418e-06
4.8563632e-06
4.8527862e-06
4.8494737e-06
4.8463956e-06
4.8435262e-06
4.8408441e-06
4.8383307e-06
4.8359695e-06
4.8337461e-06
4.831647e-06
4.8296606e-06
4.8277733e-06
4.8259783e-06
4.8242398e-06
4.8226054e-06
4.8208576e-06
4.8194733e-06
4.8172824e-06
0.00014264013
0.00014035376
0.00013963795
0.00013932135
0.00013913507
0.00013900928
0.00013891877
0.00013885136
0.00013880005
0.00013876044
0.00013872959
0.00013870546
0.00013868661
0.00013867198
0.00013866077
0.00013865235
0.00013864622
0.00013864211
0.00013863931
0.00013863939
0.00013863392
0.00013867039
0.00013845959
0.00013952563
1.9289584e-05
3.469835e-06
1.0289403e-05
5.9105765e-06
8.1717953e-06
7.7165899e-06
7.3919409e-06
7.1453306e-06
6.95028e-06
6.7914789e-06
6.6592337e-06
6.5472809e-06
6.4509395e-06
6.3670231e-06
6.293185e-06
6.2276291e-06
6.1689701e-06
6.116118e-06
6.0682025e-06
6.0245894e-06
5.9847848e-06
5.9481271e-06
5.9141668e-06
5.8826188e-06
5.8532236e-06
5.8257495e-06
5.7999948e-06
5.7757835e-06
5.7529628e-06
5.7313982e-06
5.7109738e-06
5.6915876e-06
5.6731478e-06
5.6555722e-06
5.6387878e-06
5.6227291e-06
5.6073371e-06
5.592559e-06
5.5783473e-06
5.5646591e-06
5.5514551e-06
5.5386999e-06
5.526361e-06
5.5144089e-06
5.5028169e-06
5.49156e-06
5.4806151e-06
5.4699623e-06
5.4595818e-06
5.449456e-06
5.4395684e-06
5.4299038e-06
5.4204482e-06
5.4111884e-06
5.4021124e-06
5.393209e-06
5.3844672e-06
5.3758779e-06
5.3674311e-06
5.3591191e-06
5.3509335e-06
5.3428669e-06
5.334913e-06
5.3270635e-06
5.3193146e-06
5.3116598e-06
5.3040934e-06
5.2966108e-06
5.2892075e-06
5.2818788e-06
5.2746208e-06
5.2674297e-06
5.2603019e-06
5.2532339e-06
5.2462232e-06
5.2392662e-06
5.2323603e-06
5.2255033e-06
5.2186925e-06
5.2119256e-06
5.2052006e-06
5.198516e-06
5.1918699e-06
5.185261e-06
5.1786891e-06
5.1721541e-06
5.1656557e-06
5.1592062e-06
5.1527768e-06
5.1467426e-06
5.1413456e-06
5.136518e-06
5.1321612e-06
5.128196e-06
5.124562e-06
5.1212139e-06
5.1181163e-06
5.1152404e-06
5.1125616e-06
5.1100596e-06
5.1077167e-06
5.1055172e-06
5.1034475e-06
5.1014948e-06
5.0996482e-06
5.0978947e-06
5.0962281e-06
5.0946143e-06
5.0930989e-06
5.0914748e-06
5.0901923e-06
5.0881622e-06
0.00014237945
0.00013996046
0.00013919679
0.00013885665
0.00013865583
0.00013851995
0.00013842202
0.00013834896
0.00013829324
0.00013825012
0.00013821643
0.00013818999
0.00013816923
0.00013815301
0.00013814046
0.00013813092
0.00013812384
0.00013811893
0.00013811543
0.00013811505
0.00013810871
0.00013814731
0.0001379226
0.00013907092
1.9156296e-05
3.3634119e-06
1.0151533e-05
6.3794344e-06
8.1699655e-06
7.7434604e-06
7.4381731e-06
7.2064891e-06
7.0231975e-06
6.8739454e-06
6.7496502e-06
6.6444714e-06
6.5539665e-06
6.4751402e-06
6.4057912e-06
6.3442316e-06
6.2891583e-06
6.239546e-06
6.1945758e-06
6.1536684e-06
6.1164068e-06
6.0820767e-06
6.0502302e-06
6.0206426e-06
5.9930737e-06
5.9673068e-06
5.9431529e-06
5.9204465e-06
5.8990443e-06
5.8788201e-06
5.8596675e-06
5.8414936e-06
5.8242089e-06
5.8077353e-06
5.7920036e-06
5.776952e-06
5.7625248e-06
5.7486723e-06
5.7353497e-06
5.7225166e-06
5.7101364e-06
5.6981753e-06
5.6866032e-06
5.6753922e-06
5.6645172e-06
5.6539548e-06
5.6436834e-06
5.6336845e-06
5.6239396e-06
5.6144322e-06
5.6051466e-06
5.5960687e-06
5.5871853e-06
5.5784842e-06
5.5699539e-06
5.5615842e-06
5.5533647e-06
5.5452869e-06
5.5373416e-06
5.5295214e-06
5.5218188e-06
5.5142267e-06
5.5067394e-06
5.499349e-06
5.4920523e-06
5.4848431e-06
5.4777162e-06
5.4706674e-06
5.4636925e-06
5.4567873e-06
5.4499481e-06
5.4431717e-06
5.4364544e-06
5.4297934e-06
5.4231862e-06
5.4166299e-06
5.4101217e-06
5.40366e-06
5.3972422e-06
5.3908663e-06
5.3845304e-06
5.3782334e-06
5.3719734e-06
5.3657496e-06
5.3595619e-06
5.3534105e-06
5.3472953e-06
5.3412283e-06
5.3351812e-06
5.3295232e-06
5.3244818e-06
5.3199836e-06
5.3159316e-06
5.3122492e-06
5.3088783e-06
5.3057759e-06
5.302908e-06
5.3002478e-06
5.2977718e-06
5.2954609e-06
5.2932986e-06
5.2912702e-06
5.2893627e-06
5.2875643e-06
5.2858647e-06
5.2842517e-06
5.2827197e-06
5.2812367e-06
5.2798457e-06
5.2783514e-06
5.2771752e-06
5.2753129e-06
0.00014206322
0.00013948205
0.00013865977
0.00013829074
0.00013807206
0.00013792378
0.00013781673
0.00013773672
0.00013767557
0.00013762813
0.00013759095
0.00013756165
0.00013753854
0.00013752036
0.00013750616
0.00013749524
0.00013748698
0.00013748108
0.00013747672
0.00013747575
0.00013746834
0.00013750955
0.00013726783
0.00013851713
1.8955129e-05
3.225036e-06
9.8986688e-06
6.6924663e-06
8.0600862e-06
7.6640754e-06
7.3797961e-06
7.1641848e-06
6.9935854e-06
6.854659e-06
6.7389705e-06
6.6411237e-06
6.5569402e-06
6.483629e-06
6.4191448e-06
6.3619158e-06
6.3107282e-06
6.2646262e-06
6.2228468e-06
6.1848496e-06
6.1502211e-06
6.1183373e-06
6.0887909e-06
6.0613426e-06
6.0357695e-06
6.0118706e-06
5.9894698e-06
5.9684134e-06
5.948568e-06
5.9298159e-06
5.9120559e-06
5.8952008e-06
5.8791713e-06
5.8638946e-06
5.849306e-06
5.835348e-06
5.8219684e-06
5.8091209e-06
5.796764e-06
5.7848598e-06
5.7733744e-06
5.7622765e-06
5.7515378e-06
5.7411326e-06
5.7310377e-06
5.7212311e-06
5.7116929e-06
5.7024069e-06
5.6933554e-06
5.684523e-06
5.6758949e-06
5.667458e-06
5.6592002e-06
5.65111e-06
5.643177e-06
5.6353917e-06
5.6277443e-06
5.6202273e-06
5.6128319e-06
5.6055516e-06
5.5983792e-06
5.5913084e-06
5.5843341e-06
5.5774486e-06
5.5706494e-06
5.5639307e-06
5.5572877e-06
5.5507168e-06
5.5442141e-06
5.5377756e-06
5.5313982e-06
5.525079e-06
5.5188146e-06
5.5126025e-06
5.5064405e-06
5.500326e-06
5.4942566e-06
5.4882307e-06
5.4822462e-06
5.4763012e-06
5.4703942e-06
5.464524e-06
5.4586892e-06
5.4528891e-06
5.4471239e-06
5.4413939e-06
5.4356992e-06
5.4300516e-06
5.4244235e-06
5.4191738e-06
5.4145139e-06
5.4103665e-06
5.4066372e-06
5.403253e-06
5.4001586e-06
5.3973134e-06
5.3946857e-06
5.3922502e-06
5.3899851e-06
5.3878727e-06
5.3858977e-06
5.3840462e-06
5.3823063e-06
5.3806669e-06
5.3791187e-06
5.3776504e-06
5.3762566e-06
5.3749078e-06
5.3736442e-06
5.3722836e-06
5.3712159e-06
5.369525e-06
0.00014168537
0.0001389086
0.00013801549
0.00013761149
0.00013737116
0.00013720784
0.00013708973
0.00013700128
0.00013693354
0.00013688085
0.00013683943
0.00013680666
0.00013678069
0.00013676012
0.00013674391
0.0001367313
0.00013672161
0.00013671449
0.00013670908
0.00013670739
0.00013669868
0.00013674301
0.00013648079
0.00013785243
1.8682409e-05
3.054413e-06
9.5275528e-06
6.8342164e-06
7.8379905e-06
7.4738943e-06
7.2119755e-06
7.0134113e-06
6.8562946e-06
6.7283494e-06
6.6218196e-06
6.5317706e-06
6.4543114e-06
6.3868677e-06
6.3275585e-06
6.2749355e-06
6.2278794e-06
6.1855091e-06
6.1471205e-06
6.1122123e-06
6.0803873e-06
6.0510992e-06
6.0239848e-06
5.9988008e-06
5.9753409e-06
5.9534195e-06
5.9328748e-06
5.9135649e-06
5.8953672e-06
5.8781731e-06
5.861889e-06
5.8464373e-06
5.8317451e-06
5.8177431e-06
5.8043713e-06
5.791577e-06
5.779312e-06
5.7675337e-06
5.7562038e-06
5.7452879e-06
5.7347545e-06
5.7245749e-06
5.7147232e-06
5.7051758e-06
5.6959114e-06
5.6869099e-06
5.6781527e-06
5.6696248e-06
5.66131e-06
5.6531945e-06
5.6452649e-06
5.6375092e-06
5.6299163e-06
5.6224759e-06
5.6151783e-06
5.6080148e-06
5.6009767e-06
5.5940569e-06
5.5872475e-06
5.5805426e-06
5.5739356e-06
5.5674209e-06
5.5609938e-06
5.5546473e-06
5.5483792e-06
5.5421842e-06
5.5360582e-06
5.5299977e-06
5.5239994e-06
5.5180598e-06
5.5121759e-06
5.5063453e-06
5.5005648e-06
5.4948324e-06
5.4891462e-06
5.4835037e-06
5.4779028e-06
5.4723424e-06
5.4668205e-06
5.4613353e-06
5.4558857e-06
5.4504706e-06
5.4450889e-06
5.43974e-06
5.4344243e-06
5.4291424e-06
5.4238945e-06
5.418692e-06
5.4135083e-06
5.4086866e-06
5.4044219e-06
5.4006355e-06
5.3972371e-06
5.3941575e-06
5.3913449e-06
5.3887614e-06
5.3863772e-06
5.3841694e-06
5.3821175e-06
5.3802054e-06
5.378419e-06
5.3767455e-06
5.375174e-06
5.3736944e-06
5.3722979e-06
5.3709744e-06
5.3697189e-06
5.3685043e-06
5.3673676e-06
5.3661413e-06
5.3651815e-06
5.363662e-06
0.00014123924
0.00013822906
0.00013725125
0.00013680535
0.00013653904
0.00013635768
0.00013622627
0.00013612769
0.00013605202
0.00013599302
0.0001359465
0.00013590957
0.00013588014
0.00013585669
0.00013583807
0.00013582341
0.00013581198
0.00013580341
0.0001357967
0.00013579415
0.00013578385
0.00013583191
0.00013554523
0.00013706357
1.8337239e-05
2.8524876e-06
9.0385829e-06
6.7994782e-06
7.5027143e-06
7.1716634e-06
6.9331579e-06
6.7524164e-06
6.6094095e-06
6.492964e-06
6.3960278e-06
6.3141399e-06
6.2437182e-06
6.1824149e-06
6.12852e-06
6.0807142e-06
6.0379778e-06
5.9995074e-06
5.9646615e-06
5.9329783e-06
5.9040863e-06
5.8775083e-06
5.8529238e-06
5.8300969e-06
5.8088365e-06
5.7889734e-06
5.7703602e-06
5.7528678e-06
5.7363844e-06
5.7208112e-06
5.706063e-06
5.692065e-06
5.678752e-06
5.6660634e-06
5.6539451e-06
5.6423495e-06
5.6312329e-06
5.6205565e-06
5.6102857e-06
5.6003891e-06
5.5908381e-06
5.5816067e-06
5.5726714e-06
5.5640107e-06
5.5556054e-06
5.547437e-06
5.5394888e-06
5.531747e-06
5.5241968e-06
5.5168258e-06
5.5096221e-06
5.5025748e-06
5.4956738e-06
5.4889098e-06
5.4822741e-06
5.475759e-06
5.4693564e-06
5.4630599e-06
5.4568626e-06
5.450759e-06
5.4447434e-06
5.4388105e-06
5.4329563e-06
5.4271743e-06
5.4214629e-06
5.4158172e-06
5.4102334e-06
5.4047087e-06
5.3992401e-06
5.3938243e-06
5.388459e-06
5.3831418e-06
5.3778702e-06
5.3726422e-06
5.3674562e-06
5.3623101e-06
5.3572022e-06
5.3521314e-06
5.347096e-06
5.3420945e-06
5.3371259e-06
5.3321894e-06
5.3272839e-06
5.3224093e-06
5.3175661e-06
5.3127548e-06
5.3079758e-06
5.3032401e-06
5.2985225e-06
5.2941464e-06
5.2902894e-06
5.2868731e-06
5.2838124e-06
5.2810427e-06
5.278516e-06
5.2761972e-06
5.2740592e-06
5.2720809e-06
5.2702437e-06
5.268533e-06
5.266936e-06
5.2654411e-06
5.2640382e-06
5.2627183e-06
5.2614735e-06
5.2602945e-06
5.259177e-06
5.2580961e-06
5.2570858e-06
5.2559936e-06
5.255141e-06
5.2537917e-06
0.00014071767
0.0001374313
0.00013635308
0.00013585739
0.00013556017
0.00013535733
0.0001352101
0.00013509944
0.00013501433
0.0001349478
0.0001348952
0.00013485328
0.00013481973
0.00013479284
0.00013477133
0.00013475422
0.00013474071
0.00013473038
0.00013472213
0.00013471852
0.00013470634
0.00013475879
0.00013444319
0.00013613599
1.7922222e-05
2.6216997e-06
8.4367512e-06
6.5928306e-06
7.0575841e-06
6.7603428e-06
6.5459814e-06
6.3836086e-06
6.2551523e-06
6.1505698e-06
6.0635302e-06
5.9900529e-06
5.9268825e-06
5.8719048e-06
5.8235855e-06
5.7807386e-06
5.7424468e-06
5.7079877e-06
5.676784e-06
5.6484153e-06
5.6225418e-06
5.5987495e-06
5.5767574e-06
5.5563454e-06
5.5373384e-06
5.5195838e-06
5.502949e-06
5.4873178e-06
5.4725897e-06
5.4586761e-06
5.4455003e-06
5.4329939e-06
5.4210979e-06
5.4097586e-06
5.398928e-06
5.3885634e-06
5.3786261e-06
5.3690813e-06
5.3598979e-06
5.3510481e-06
5.3425061e-06
5.3342485e-06
5.3262545e-06
5.3185048e-06
5.3109821e-06
5.30367e-06
5.2965536e-06
5.2896202e-06
5.2828568e-06
5.2762524e-06
5.2697961e-06
5.2634783e-06
5.2572902e-06
5.2512234e-06
5.2452702e-06
5.2394237e-06
5.2336766e-06
5.2280234e-06
5.2224578e-06
5.2169752e-06
5.2115702e-06
5.2062384e-06
5.2009762e-06
5.1957778e-06
5.1906418e-06
5.185564e-06
5.1805411e-06
5.1755706e-06
5.1706498e-06
5.165776e-06
5.1609471e-06
5.1561612e-06
5.1514159e-06
5.1467096e-06
5.1420411e-06
5.1374085e-06
5.1328103e-06
5.1282456e-06
5.123713e-06
5.1192112e-06
5.1147395e-06
5.1102971e-06
5.1058832e-06
5.1014978e-06
5.0971416e-06
5.0928153e-06
5.0885192e-06
5.0842637e-06
5.0800255e-06
5.0761044e-06
5.0726601e-06
5.0696163e-06
5.066894e-06
5.0644339e-06
5.062192e-06
5.0601365e-06
5.0582426e-06
5.0564917e-06
5.0548668e-06
5.053355e-06
5.0519447e-06
5.0506256e-06
5.0493887e-06
5.0482257e-06
5.0471297e-06
5.0460925e-06
5.04511e-06
5.0441601e-06
5.0432733e-06
5.0423126e-06
5.0415646e-06
5.0403815e-06
0.00014011308
0.00013650225
0.00013530583
0.00013475138
0.00013441766
0.00013418943
0.00013402348
0.00013389853
0.00013380224
0.00013372681
0.00013366699
0.00013361917
0.00013358072
0.00013354975
0.0001335248
0.00013350479
0.0001334888
0.00013347637
0.00013346628
0.0001334614
0.00013344696
0.00013350454
0.00013315504
0.00013505384
1.7444067e-05
2.3661741e-06
7.7324262e-06
6.2277945e-06
6.5109983e-06
6.247894e-06
6.0580552e-06
5.914336e-06
5.8006603e-06
5.7081297e-06
5.6311429e-06
5.5661994e-06
5.5103845e-06
5.4618215e-06
5.419154e-06
5.3813315e-06
5.3475411e-06
5.3171426e-06
5.2896243e-06
5.2646091e-06
5.2417921e-06
5.2208183e-06
5.2014428e-06
5.183467e-06
5.166733e-06
5.1511047e-06
5.1364646e-06
5.1227095e-06
5.1097508e-06
5.0975096e-06
5.0859184e-06
5.0749162e-06
5.0644502e-06
5.0544733e-06
5.044943e-06
5.0358218e-06
5.0270756e-06
5.0186737e-06
5.010589e-06
5.0027967e-06
4.9952741e-06
4.9880007e-06
4.9809581e-06
4.9741294e-06
4.9674991e-06
4.961053e-06
4.9547779e-06
4.9486626e-06
4.9426957e-06
4.9368674e-06
4.9311682e-06
4.9255897e-06
4.9201241e-06
4.9147642e-06
4.9095031e-06
4.9043348e-06
4.8992529e-06
4.8942527e-06
4.8893285e-06
4.8844764e-06
4.8796918e-06
4.8749707e-06
4.8703101e-06
4.8657048e-06
4.8611539e-06
4.8566535e-06
4.8522009e-06
4.847794e-06
4.8434304e-06
4.8391079e-06
4.8348247e-06
4.8305791e-06
4.8263691e-06
4.8221935e-06
4.8180512e-06
4.8139406e-06
4.8098605e-06
4.8058102e-06
4.8017885e-06
4.7977944e-06
4.7938271e-06
4.7898863e-06
4.7859712e-06
4.782082e-06
4.7782195e-06
4.7743844e-06
4.7705774e-06
4.7668076e-06
4.7630542e-06
4.7595901e-06
4.756557e-06
4.7538824e-06
4.7514942e-06
4.7493387e-06
4.7473764e-06
4.7455787e-06
4.7439237e-06
4.7423947e-06
4.7409769e-06
4.7396587e-06
4.73843e-06
4.7372817e-06
4.7362056e-06
4.7351947e-06
4.7342428e-06
4.7333426e-06
4.7324906e-06
4.7316672e-06
4.7308993e-06
4.7300661e-06
4.7294187e-06
4.7283955e-06
0.00013941757
0.00013542795
0.00013409325
0.00013346991
0.00013309333
0.00013283527
0.00013264732
0.00013250557
0.00013239614
0.00013231021
0.00013224191
0.00013218712
0.00013214291
0.00013210712
0.00013207811
0.00013205466
0.00013203573
0.00013202082
0.00013200854
0.00013200215
0.00013198505
0.00013204859
0.00013165957
0.00013380007
1.6914013e-05
2.0917976e-06
6.9418476e-06
5.7257858e-06
5.8769401e-06
5.6478039e-06
5.4824794e-06
5.357407e-06
5.2585079e-06
5.1780257e-06
5.1110861e-06
5.0546619e-06
5.0061874e-06
4.9640239e-06
4.9269923e-06
4.8941777e-06
4.864872e-06
4.8385171e-06
4.8146674e-06
4.7929899e-06
4.7732171e-06
4.7550483e-06
4.7382724e-06
4.7227154e-06
4.7082372e-06
4.6947188e-06
4.6820576e-06
4.6701635e-06
4.6589594e-06
4.6483767e-06
4.6383566e-06
4.628846e-06
4.6197988e-06
4.6111739e-06
4.6029342e-06
4.5950476e-06
4.5874842e-06
4.5802176e-06
4.5732242e-06
4.5664825e-06
4.5599729e-06
4.5536777e-06
4.5475808e-06
4.5416677e-06
4.5359251e-06
4.5303404e-06
4.5249023e-06
4.5196012e-06
4.5144272e-06
4.5093718e-06
4.5044268e-06
4.499585e-06
4.4948397e-06
4.4901845e-06
4.4856137e-06
4.4811219e-06
4.4767039e-06
4.4723554e-06
4.4680716e-06
4.4638492e-06
4.4596842e-06
4.4555733e-06
4.4515139e-06
4.4475014e-06
4.4435353e-06
4.4396122e-06
4.4357299e-06
4.4318865e-06
4.4280802e-06
4.4243089e-06
4.4205713e-06
4.4168661e-06
4.4131914e-06
4.4095464e-06
4.4059301e-06
4.4023413e-06
4.3987789e-06
4.3952425e-06
4.3917312e-06
4.3882439e-06
4.3847803e-06
4.38134e-06
4.3779224e-06
4.374528e-06
4.3711575e-06
4.3678118e-06
4.3644914e-06
4.3612049e-06
4.3579334e-06
4.3549211e-06
4.3522912e-06
4.3499768e-06
4.3479133e-06
4.3460531e-06
4.3443612e-06
4.3428125e-06
4.3413875e-06
4.3400722e-06
4.3388532e-06
4.3377208e-06
4.3366662e-06
4.3356814e-06
4.3347593e-06
4.3338936e-06
4.3330791e-06
4.3323096e-06
4.3315819e-06
4.3308789e-06
4.330224e-06
4.3295123e-06
4.3289605e-06
4.328089e-06
0.00013862312
0.00013419371
0.00013269815
0.00013199447
0.00013156787
0.00013127496
0.00013106131
0.00013089992
0.0001307751
0.00013067691
0.00013059867
0.00013053573
0.00013048476
0.00013044332
0.00013040954
0.00013038204
0.00013035966
0.00013034182
0.00013032696
0.00013031878
0.00013029854
0.00013036894
0.0001299342
0.00013235655
1.6347964e-05
1.8061386e-06
6.0871862e-06
5.1149143e-06
5.1750868e-06
4.9792039e-06
4.8379676e-06
4.7312167e-06
4.6468363e-06
4.5781907e-06
4.5211185e-06
4.4730514e-06
4.4317746e-06
4.3958842e-06
4.3643748e-06
4.3364648e-06
4.3115492e-06
4.2891509e-06
4.2688891e-06
4.2504761e-06
4.2336818e-06
4.2182557e-06
4.2040189e-06
4.1908222e-06
4.1785447e-06
4.167084e-06
4.1563522e-06
4.1462723e-06
4.1367785e-06
4.1278122e-06
4.1193232e-06
4.1112661e-06
4.1036017e-06
4.0962947e-06
4.0893137e-06
4.082631e-06
4.0762214e-06
4.0700624e-06
4.0641339e-06
4.0584176e-06
4.052897e-06
4.0475568e-06
4.0423836e-06
4.037365e-06
4.0324895e-06
4.0277468e-06
4.023127e-06
4.0186221e-06
4.0142237e-06
4.0099245e-06
4.0057177e-06
4.0015971e-06
3.9975571e-06
3.9935922e-06
3.9896978e-06
3.9858692e-06
3.982102e-06
3.9783926e-06
3.974737e-06
3.9711324e-06
3.9675755e-06
3.9640635e-06
3.9605943e-06
3.957164e-06
3.9537722e-06
3.9504161e-06
3.9470939e-06
3.9438042e-06
3.9405453e-06
3.9373156e-06
3.9341141e-06
3.9309396e-06
3.9277908e-06
3.9246669e-06
3.9215671e-06
3.9184906e-06
3.9154366e-06
3.9124046e-06
3.9093939e-06
3.9064039e-06
3.9034342e-06
3.9004845e-06
3.8975546e-06
3.8946448e-06
3.8917561e-06
3.8888892e-06
3.8860449e-06
3.8832305e-06
3.88043e-06
3.8778565e-06
3.8756155e-06
3.8736469e-06
3.871894e-06
3.8703156e-06
3.8688811e-06
3.8675689e-06
3.8663623e-06
3.8652494e-06
3.8642187e-06
3.863262e-06
3.8623717e-06
3.861541e-06
3.8607638e-06
3.8600349e-06
3.8593496e-06
3.8587028e-06
3.8580915e-06
3.8575014e-06
3.8569523e-06
3.8563548e-06
3.8558922e-06
3.8551626e-06
0.00013772171
0.00013278433
0.0001311026
0.00013030574
0.00012982105
0.00012948766
0.00012924412
0.00012905989
0.0001289172
0.00012880473
0.00012871491
0.00012864247
0.00012858362
0.00012853558
0.00012849624
0.00012846401
0.00012843759
0.00012841631
0.00012839842
0.00012838812
0.00012836422
0.00012844249
0.00012795513
0.00013070425
1.5766291e-05
1.5181658e-06
5.1960244e-06
4.4285737e-06
4.4303708e-06
4.2664477e-06
4.1484324e-06
4.059341e-06
3.9889532e-06
3.9317131e-06
3.8841455e-06
3.844119e-06
3.8097644e-06
3.7799051e-06
3.7537024e-06
3.7305036e-06
3.7098028e-06
3.6912017e-06
3.6743819e-06
3.6591004e-06
3.645164e-06
3.6323683e-06
3.6205643e-06
3.6096276e-06
3.5994563e-06
3.5899643e-06
3.5810782e-06
3.5727335e-06
3.5648752e-06
3.5574543e-06