/*--------------------------------*- C++ -*----------------------------------*\
| =========                 |                                                 |
| \\      /  F ield         | OpenFOAM: The Open Source CFD Toolbox           |
|  \\    /   O peration     | Version:  2206                                  |
|   \\  /    A nd           | Website:  www.openfoam.com                      |
|    \\/     M anipulation  |                                                 |
\*---------------------------------------------------------------------------*/
FoamFile
{
    version     2.0;
    format      ascii;
    arch        "LSB;label=32;scalar=64";
    class       volScalarField;
    location    "500";
    object      nut;
}
// * * * * * * * * * * * * * * * * * * * * * * * * * * * * * * * * * * * * * //

dimensions      [0 2 -1 0 0 0 0];

internalField   nonuniform List<scalar> 
13056
(
6.7211286e-09
6.5519151e-09
6.5034373e-09
6.4824993e-09
6.470199e-09
6.4619186e-09
6.4559853e-09
6.4515816e-09
6.4482376e-09
6.4456579e-09
6.4436453e-09
6.4420626e-09
6.4408096e-09
6.4398091e-09
6.4389967e-09
6.4383144e-09
6.4376911e-09
6.4370623e-09
6.4362007e-09
6.435155e-09
6.4318877e-09
6.4302696e-09
6.4021192e-09
4.755178e-09
3.2761408e-11
1.4082806e-11
2.2541058e-11
9.7782524e-12
1.8794171e-11
1.7875488e-11
1.7269266e-11
1.6766984e-11
1.6361379e-11
1.6025271e-11
1.5740893e-11
1.549629e-11
1.528312e-11
1.5095323e-11
1.4928322e-11
1.4778599e-11
1.4643416e-11
1.4520597e-11
1.4408386e-11
1.4305359e-11
1.4210341e-11
1.4122334e-11
1.4040512e-11
1.3964174e-11
1.3892724e-11
1.382565e-11
1.3762511e-11
1.3702922e-11
1.3646545e-11
1.3593088e-11
1.3542288e-11
1.3493915e-11
1.3447765e-11
1.3403654e-11
1.3361419e-11
1.3320912e-11
1.3282001e-11
1.3244565e-11
1.3208497e-11
1.3173697e-11
1.3140075e-11
1.310755e-11
1.3076046e-11
1.3045493e-11
1.3015829e-11
1.2986996e-11
1.2958939e-11
1.2931608e-11
1.2904958e-11
1.2878947e-11
1.2853533e-11
1.282868e-11
1.2804354e-11
1.2780522e-11
1.2757156e-11
1.2734226e-11
1.2711707e-11
1.2689573e-11
1.2667802e-11
1.2646372e-11
1.2625263e-11
1.2604454e-11
1.2583929e-11
1.2563668e-11
1.2543658e-11
1.2523883e-11
1.2504327e-11
1.2484978e-11
1.2465821e-11
1.2446845e-11
1.2428038e-11
1.2409389e-11
1.2390886e-11
1.2372521e-11
1.2354284e-11
1.2336165e-11
1.2318156e-11
1.2300248e-11
1.2282433e-11
1.2264704e-11
1.2247054e-11
1.2229476e-11
1.2211964e-11
1.2194511e-11
1.2177114e-11
1.2159769e-11
1.2142472e-11
1.2125245e-11
1.2108035e-11
1.2091567e-11
1.2076476e-11
1.2062746e-11
1.2050189e-11
1.2038641e-11
1.2027964e-11
1.2018053e-11
1.2008822e-11
1.2000196e-11
1.1992115e-11
1.1984525e-11
1.197738e-11
1.1970638e-11
1.1964263e-11
1.195822e-11
1.195248e-11
1.1947006e-11
1.194178e-11
1.193671e-11
1.193191e-11
1.1926834e-11
1.1922747e-11
1.1916283e-11
6.7208297e-09
6.5508984e-09
6.5021797e-09
6.4811248e-09
6.4687524e-09
6.4604221e-09
6.4544523e-09
6.450021e-09
6.4466558e-09
6.4440596e-09
6.4420343e-09
6.4404419e-09
6.4391819e-09
6.4381771e-09
6.4373632e-09
6.4366828e-09
6.4360664e-09
6.4354516e-09
6.4346185e-09
6.4336185e-09
6.4304764e-09
6.4290217e-09
6.4018159e-09
4.7546662e-09
3.0118424e-11
1.0592979e-11
1.9353882e-11
3.9104873e-12
1.4957589e-11
1.3862623e-11
1.3104994e-11
1.2488957e-11
1.1989822e-11
1.1575423e-11
1.1224473e-11
1.0922595e-11
1.0659519e-11
1.0427846e-11
1.0221966e-11
1.0037545e-11
9.8711976e-12
9.7202263e-12
9.5824516e-12
9.4561344e-12
9.3398352e-12
9.2322476e-12
9.1323307e-12
9.0392086e-12
8.952147e-12
8.8705129e-12
8.7937572e-12
8.7214017e-12
8.6530285e-12
8.5882702e-12
8.5268032e-12
8.4683404e-12
8.412627e-12
8.3594355e-12
8.3085621e-12
8.259824e-12
8.2130563e-12
8.1681104e-12
8.1248515e-12
8.083157e-12
8.0429156e-12
8.0040254e-12
7.966393e-12
7.9299333e-12
7.894568e-12
7.860225e-12
7.8268377e-12
7.794345e-12
7.7626898e-12
7.7318195e-12
7.7016852e-12
7.6722415e-12
7.6434461e-12
7.6152595e-12
7.587645e-12
7.5605689e-12
7.5339984e-12
7.5079036e-12
7.482256e-12
7.4570293e-12
7.4321983e-12
7.4077396e-12
7.3836315e-12
7.3598517e-12
7.3363826e-12
7.3132053e-12
7.2903013e-12
7.2676545e-12
7.2452492e-12
7.2230703e-12
7.2011037e-12
7.179336e-12
7.1577545e-12
7.1363476e-12
7.1151039e-12
7.094012e-12
7.0730616e-12
7.0522433e-12
7.0315475e-12
7.0109654e-12
6.9904889e-12
6.9701106e-12
6.9498227e-12
6.9296189e-12
6.9094936e-12
6.8894434e-12
6.8694643e-12
6.8495806e-12
6.8297324e-12
6.8107431e-12
6.7933526e-12
6.7775494e-12
6.7631172e-12
6.7498601e-12
6.7376183e-12
6.7262664e-12
6.7157028e-12
6.7058425e-12
6.6966129e-12
6.6879518e-12
6.679805e-12
6.6721243e-12
6.6648671e-12
6.6579935e-12
6.6514685e-12
6.6452504e-12
6.6393185e-12
6.6335656e-12
6.6281269e-12
6.6223709e-12
6.6177453e-12
6.6104296e-12
6.7198503e-09
6.5477285e-09
6.4982763e-09
6.4768654e-09
6.4642729e-09
6.4557903e-09
6.4497089e-09
6.4451929e-09
6.4417621e-09
6.4391141e-09
6.4370476e-09
6.4354224e-09
6.4341365e-09
6.4331119e-09
6.4322838e-09
6.4315952e-09
6.4309779e-09
6.4303714e-09
6.4295647e-09
6.4286126e-09
6.4256075e-09
6.4243562e-09
6.3981871e-09
4.7530832e-09
2.7908235e-11
8.5356981e-12
1.7246147e-11
3.7543334e-12
1.2976698e-11
1.1951152e-11
1.1232325e-11
1.0662057e-11
1.0204028e-11
9.8266601e-12
9.5092469e-12
9.2379549e-12
9.0028113e-12
8.7967468e-12
8.6144442e-12
8.4518119e-12
8.3056683e-12
8.1734922e-12
8.0532553e-12
7.9433693e-12
7.8425234e-12
7.7494683e-12
7.6632417e-12
7.5830456e-12
7.5082192e-12
7.4381921e-12
7.37247e-12
7.3106227e-12
7.2522753e-12
7.1970987e-12
7.1448039e-12
7.0951348e-12
7.0478648e-12
7.0027918e-12
6.9597354e-12
6.9185339e-12
6.8790416e-12
6.8411275e-12
6.804673e-12
6.7695705e-12
6.7357222e-12
6.703039e-12
6.6714393e-12
6.6408486e-12
6.6111989e-12
6.5824273e-12
6.5544759e-12
6.5272919e-12
6.5008255e-12
6.4750315e-12
6.4498675e-12
6.4252945e-12
6.4012759e-12
6.3777779e-12
6.3547689e-12
6.33222e-12
6.3101031e-12
6.2883928e-12
6.2670644e-12
6.2460959e-12
6.2254658e-12
6.205154e-12
6.1851424e-12
6.1654118e-12
6.1459477e-12
6.1267339e-12
6.107755e-12
6.0889974e-12
6.070448e-12
6.0520942e-12
6.0339243e-12
6.0159271e-12
5.9980921e-12
5.9804095e-12
5.9628703e-12
5.9454648e-12
5.9281847e-12
5.9110223e-12
5.8939699e-12
5.8770201e-12
5.8601665e-12
5.8434033e-12
5.8267243e-12
5.8101242e-12
5.7935992e-12
5.7771466e-12
5.7607635e-12
5.7444713e-12
5.7282178e-12
5.7127069e-12
5.6985478e-12
5.6857135e-12
5.6740164e-12
5.6632899e-12
5.6533988e-12
5.6442384e-12
5.6357238e-12
5.6277845e-12
5.6203604e-12
5.6134001e-12
5.6068589e-12
5.6006972e-12
5.5948799e-12
5.5893745e-12
5.5841521e-12
5.5791788e-12
5.5744379e-12
5.569842e-12
5.5655024e-12
5.5609022e-12
5.5572156e-12
5.5513845e-12
6.7181661e-09
6.5423049e-09
6.4916005e-09
6.4695817e-09
6.456613e-09
6.44787e-09
6.4415977e-09
6.4369368e-09
6.4333932e-09
6.4306561e-09
6.4285182e-09
6.4268355e-09
6.4255033e-09
6.4244417e-09
6.4235849e-09
6.4228758e-09
6.4222467e-09
6.4216391e-09
6.4208498e-09
6.4199381e-09
6.4170556e-09
6.4160176e-09
6.3907814e-09
4.75019e-09
2.603662e-11
7.1533881e-12
1.5688971e-11
4.0961263e-12
1.1730433e-11
1.0804848e-11
1.015009e-11
9.6387129e-12
9.2299843e-12
8.8946094e-12
8.6135209e-12
8.3740957e-12
8.1671262e-12
7.9861787e-12
7.8264405e-12
7.6842142e-12
7.5566325e-12
7.4414285e-12
7.3367836e-12
7.2413021e-12
7.1538356e-12
7.0732132e-12
6.9985655e-12
6.92919e-12
6.8645102e-12
6.8040249e-12
6.747299e-12
6.6939539e-12
6.64366e-12
6.5961275e-12
6.551103e-12
6.5083616e-12
6.4677049e-12
6.428956e-12
6.3919569e-12
6.3565662e-12
6.3226565e-12
6.2901131e-12
6.2588328e-12
6.2287215e-12
6.1996941e-12
6.1716728e-12
6.1445867e-12
6.1183709e-12
6.0929663e-12
6.0683183e-12
6.0443764e-12
6.0210953e-12
5.9984314e-12
5.9763459e-12
5.9548019e-12
5.9337656e-12
5.9132056e-12
5.8930926e-12
5.8733994e-12
5.8541011e-12
5.8351733e-12
5.8165944e-12
5.7983429e-12
5.7804002e-12
5.7627475e-12
5.7453679e-12
5.728246e-12
5.7113648e-12
5.6947125e-12
5.6782751e-12
5.6620393e-12
5.6459938e-12
5.6301276e-12
5.6144297e-12
5.5988902e-12
5.5835e-12
5.5682498e-12
5.5531317e-12
5.538138e-12
5.5232607e-12
5.5084927e-12
5.4938277e-12
5.4792593e-12
5.4647813e-12
5.4503885e-12
5.4360762e-12
5.4218391e-12
5.4076733e-12
5.3935756e-12
5.3795443e-12
5.3655771e-12
5.3516937e-12
5.3378467e-12
5.3246642e-12
5.312668e-12
5.3018193e-12
5.29195e-12
5.2829126e-12
5.2745893e-12
5.2668889e-12
5.2597383e-12
5.2530767e-12
5.2468525e-12
5.2410217e-12
5.235546e-12
5.2303917e-12
5.2255287e-12
5.2209294e-12
5.2165694e-12
5.2124198e-12
5.2084666e-12
5.2046353e-12
5.2010219e-12
5.1971844e-12
5.1941175e-12
5.1892657e-12
6.7157404e-09
6.5344702e-09
6.4819544e-09
6.4590554e-09
6.4455421e-09
6.4364218e-09
6.4298727e-09
6.4250016e-09
6.4212943e-09
6.4184275e-09
6.4161856e-09
6.4144187e-09
6.413018e-09
6.4119008e-09
6.4109999e-09
6.4102567e-09
6.4096044e-09
6.4089857e-09
6.4082042e-09
6.4073255e-09
6.4045514e-09
6.403739e-09
6.3793331e-09
4.7458811e-09
2.4430741e-11
6.1379264e-12
1.4432207e-11
4.5698206e-12
1.0825022e-11
9.9965416e-12
9.4065485e-12
8.9502205e-12
8.5864562e-12
8.2886208e-12
8.039464e-12
7.8276555e-12
7.6448075e-12
7.4851376e-12
7.3443374e-12
7.2190971e-12
7.1068526e-12
7.0055798e-12
6.913657e-12
6.8298694e-12
6.7532244e-12
6.6826092e-12
6.61723e-12
6.5564796e-12
6.4998576e-12
6.4469237e-12
6.3972949e-12
6.3506369e-12
6.3066591e-12
6.2651058e-12
6.2257538e-12
6.1884052e-12
6.1528854e-12
6.1190386e-12
6.0867257e-12
6.0558221e-12
6.0262154e-12
5.9978047e-12
5.9704989e-12
5.9442156e-12
5.9188796e-12
5.8944226e-12
5.8707823e-12
5.8479017e-12
5.825729e-12
5.8042161e-12
5.7833185e-12
5.7629971e-12
5.7432132e-12
5.7239331e-12
5.7051243e-12
5.6867574e-12
5.6688048e-12
5.651241e-12
5.6340423e-12
5.6171868e-12
5.6006531e-12
5.5844226e-12
5.5684764e-12
5.5527984e-12
5.5373723e-12
5.5221833e-12
5.5072182e-12
5.4924619e-12
5.4779045e-12
5.4635339e-12
5.4493385e-12
5.4353086e-12
5.4214346e-12
5.4077072e-12
5.3941178e-12
5.3806588e-12
5.367322e-12
5.3541006e-12
5.3409883e-12
5.3279781e-12
5.315064e-12
5.3022408e-12
5.2895031e-12
5.2768454e-12
5.2642635e-12
5.2517536e-12
5.2393112e-12
5.226933e-12
5.2146169e-12
5.2023616e-12
5.1901654e-12
5.1780465e-12
5.1659613e-12
5.1544837e-12
5.1440715e-12
5.1346766e-12
5.1261446e-12
5.1183426e-12
5.1111653e-12
5.1045318e-12
5.0983772e-12
5.0926483e-12
5.0872997e-12
5.0822927e-12
5.077594e-12
5.073174e-12
5.0690065e-12
5.0650674e-12
5.0613354e-12
5.0577856e-12
5.0544057e-12
5.051131e-12
5.0480458e-12
5.0447631e-12
5.0421467e-12
5.038007e-12
6.7125257e-09
6.5240129e-09
6.4690708e-09
6.4449918e-09
6.4307478e-09
6.4211212e-09
6.4142007e-09
6.4090472e-09
6.4051201e-09
6.4020789e-09
6.3996967e-09
6.397816e-09
6.3963223e-09
6.3951292e-09
6.3941667e-09
6.3933749e-09
6.3926866e-09
6.3920457e-09
6.3912618e-09
6.3904081e-09
6.3877278e-09
6.3871554e-09
6.3634741e-09
4.740011e-09
2.3034924e-11
5.3404523e-12
1.3341476e-11
5.0483733e-12
1.0084908e-11
9.3456056e-12
8.8167105e-12
8.4101063e-12
8.0864547e-12
7.8217719e-12
7.6005788e-12
7.4127823e-12
7.2507818e-12
7.1094051e-12
6.9848122e-12
6.8740497e-12
6.7748309e-12
6.6853517e-12
6.6041674e-12
6.5302289e-12
6.4626942e-12
6.4004801e-12
6.3428492e-12
6.2892943e-12
6.2393827e-12
6.1927274e-12
6.1489903e-12
6.1078759e-12
6.0691271e-12
6.0325176e-12
5.9978504e-12
5.9649518e-12
5.9336676e-12
5.9038596e-12
5.8754046e-12
5.8481921e-12
5.8221226e-12
5.7971064e-12
5.7730632e-12
5.7499197e-12
5.7276098e-12
5.7060727e-12
5.6852534e-12
5.6651017e-12
5.6455717e-12
5.6266211e-12
5.6082103e-12
5.5903052e-12
5.5728715e-12
5.5558796e-12
5.5393008e-12
5.5231093e-12
5.5072807e-12
5.4917926e-12
5.4766241e-12
5.461756e-12
5.4471693e-12
5.432848e-12
5.4187751e-12
5.4049369e-12
5.3913189e-12
5.3779081e-12
5.3646933e-12
5.3516607e-12
5.3388023e-12
5.3261072e-12
5.3135653e-12
5.3011683e-12
5.288908e-12
5.276776e-12
5.2647652e-12
5.2528688e-12
5.2410799e-12
5.2293925e-12
5.2178013e-12
5.2063003e-12
5.1948842e-12
5.1835489e-12
5.1722896e-12
5.1611016e-12
5.1499813e-12
5.1389257e-12
5.127931e-12
5.1169944e-12
5.1061146e-12
5.0952906e-12
5.0845211e-12
5.0738235e-12
5.0631569e-12
5.0530514e-12
5.043913e-12
5.0356856e-12
5.0282268e-12
5.0214155e-12
5.0151564e-12
5.009377e-12
5.0040196e-12
4.9990367e-12
4.9943879e-12
4.9900392e-12
4.985961e-12
4.9821272e-12
4.9785148e-12
4.9751023e-12
4.9718712e-12
4.9687995e-12
4.9658766e-12
4.9630453e-12
4.9603807e-12
4.9575401e-12
4.9552822e-12
4.951709e-12
6.7084664e-09
6.5106686e-09
6.4526148e-09
6.4270207e-09
6.4118381e-09
6.4015609e-09
6.3941628e-09
6.3886463e-09
6.3844363e-09
6.3811705e-09
6.3786076e-09
6.3765798e-09
6.3749657e-09
6.3736737e-09
6.3726302e-09
6.3717732e-09
6.3710347e-09
6.3703593e-09
6.3695618e-09
6.3687244e-09
6.3661222e-09
6.3658065e-09
6.3427362e-09
4.732393e-09
2.1806663e-11
4.680494e-12
1.2338096e-11
5.456373e-12
9.41932e-12
8.7616291e-12
8.2897524e-12
7.9283442e-12
7.6409067e-12
7.4059929e-12
7.2097967e-12
7.0433797e-12
6.8998828e-12
6.7746987e-12
6.6644175e-12
6.5664128e-12
6.4786507e-12
6.3995272e-12
6.3277584e-12
6.2624461e-12
6.2029032e-12
6.1480412e-12
6.0971633e-12
6.0498746e-12
6.0058024e-12
5.9646064e-12
5.9259884e-12
5.889687e-12
5.8554752e-12
5.8231525e-12
5.7925465e-12
5.7635061e-12
5.7358939e-12
5.7095869e-12
5.6844753e-12
5.6604609e-12
5.637455e-12
5.6153783e-12
5.5941592e-12
5.5737332e-12
5.5540414e-12
5.5350301e-12
5.5166506e-12
5.4988583e-12
5.4816129e-12
5.4648767e-12
5.4486149e-12
5.4327976e-12
5.4173944e-12
5.4023794e-12
5.387727e-12
5.3734144e-12
5.3594202e-12
5.3457246e-12
5.3323092e-12
5.3191571e-12
5.3062514e-12
5.2935782e-12
5.2811226e-12
5.2688724e-12
5.256815e-12
5.2449389e-12
5.2332346e-12
5.2216895e-12
5.2102971e-12
5.1990478e-12
5.1879326e-12
5.1769445e-12
5.1660763e-12
5.1553207e-12
5.1446716e-12
5.1341231e-12
5.1236692e-12
5.1133047e-12
5.1030254e-12
5.0928257e-12
5.0827013e-12
5.0726488e-12
5.0626639e-12
5.0527426e-12
5.042882e-12
5.0330796e-12
5.0233321e-12
5.0136374e-12
5.0039945e-12
4.994403e-12
4.9848619e-12
4.9753875e-12
4.9659417e-12
4.9570153e-12
4.9489691e-12
4.9417412e-12
4.9351995e-12
4.9292337e-12
4.9237576e-12
4.9187059e-12
4.9140269e-12
4.9096785e-12
4.9056245e-12
4.901835e-12
4.8982836e-12
4.8949472e-12
4.8918054e-12
4.8888393e-12
4.8860325e-12
4.8833657e-12
4.8808295e-12
4.8783734e-12
4.8760644e-12
4.873598e-12
4.8716429e-12
4.8685484e-12
6.7035019e-09
6.4941226e-09
6.432186e-09
6.4046992e-09
6.3883432e-09
6.3772524e-09
6.3692569e-09
6.3632861e-09
6.3587219e-09
6.3551748e-09
6.3523853e-09
6.3501728e-09
6.3484071e-09
6.3469901e-09
6.3458437e-09
6.3449027e-09
6.3440979e-09
6.343374e-09
6.3425501e-09
6.3417192e-09
6.3391777e-09
6.3391378e-09
6.3165543e-09
4.7227997e-09
2.0713806e-11
4.1111894e-12
1.1373554e-11
5.7426311e-12
8.7765194e-12
8.1944378e-12
7.7758712e-12
7.456048e-12
7.2018087e-12
6.9941059e-12
6.8207031e-12
6.6737355e-12
6.5470444e-12
6.4365463e-12
6.3392291e-12
6.2527678e-12
6.1753618e-12
6.1055912e-12
6.0423194e-12
5.9847848e-12
5.932471e-12
5.8842388e-12
5.8394252e-12
5.7977651e-12
5.7589364e-12
5.7226409e-12
5.6886164e-12
5.6566324e-12
5.6264889e-12
5.5980091e-12
5.5710463e-12
5.5454722e-12
5.5211598e-12
5.4979984e-12
5.4758906e-12
5.454749e-12
5.4344949e-12
5.415058e-12
5.396375e-12
5.3783889e-12
5.3610477e-12
5.3443039e-12
5.3281144e-12
5.3124401e-12
5.2972455e-12
5.2824971e-12
5.2681642e-12
5.2542213e-12
5.2406414e-12
5.2274017e-12
5.2144794e-12
5.2018544e-12
5.1895079e-12
5.1774225e-12
5.1655819e-12
5.1539713e-12
5.1425759e-12
5.1313837e-12
5.1203812e-12
5.1095581e-12
5.0989033e-12
5.0884066e-12
5.07806e-12
5.0678522e-12
5.0577778e-12
5.0478283e-12
5.037996e-12
5.0282747e-12
5.0186585e-12
5.0091407e-12
4.9997161e-12
4.99038e-12
4.9811268e-12
4.9719523e-12
4.9628528e-12
4.9538236e-12
4.944861e-12
4.9359621e-12
4.9271233e-12
4.9183412e-12
4.9096133e-12
4.9009377e-12
4.8923114e-12
4.8837329e-12
4.8752018e-12
4.8667177e-12
4.8582801e-12
4.8499043e-12
4.8415547e-12
4.8336848e-12
4.8266142e-12
4.8202768e-12
4.8145507e-12
4.8093355e-12
4.8045536e-12
4.8001463e-12
4.7960674e-12
4.7922798e-12
4.7887511e-12
4.7854549e-12
4.7823679e-12
4.7794698e-12
4.7767424e-12
4.7741691e-12
4.7717355e-12
4.7694245e-12
4.7672281e-12
4.7651015e-12
4.7631046e-12
4.7609671e-12
4.7592775e-12
4.7566025e-12
6.6975706e-09
6.4740124e-09
6.4073211e-09
6.3775133e-09
6.3597174e-09
6.3476279e-09
6.338899e-09
6.3323701e-09
6.3273707e-09
6.3234777e-09
6.3204093e-09
6.3179694e-09
6.3160166e-09
6.3144449e-09
6.3131704e-09
6.3121242e-09
6.3112344e-09
6.3104462e-09
6.3095813e-09
6.3087459e-09
6.3062459e-09
6.3065033e-09
6.2842682e-09
4.7109607e-09
1.9732671e-11
3.6040418e-12
1.0418692e-11
5.8752452e-12
8.1264778e-12
7.615013e-12
7.2464687e-12
6.9652977e-12
6.7418554e-12
6.5593574e-12
6.4070407e-12
6.2780381e-12
6.1668578e-12
6.0699045e-12
5.9845357e-12
5.9087071e-12
5.8408353e-12
5.7796711e-12
5.7242149e-12
5.6737961e-12
5.6279147e-12
5.5856465e-12
5.5464269e-12
5.5099682e-12
5.4759893e-12
5.4442294e-12
5.4144587e-12
5.3864752e-12
5.3601035e-12
5.3351881e-12
5.3115963e-12
5.2892144e-12
5.2679379e-12
5.2476696e-12
5.2283235e-12
5.2098227e-12
5.1920977e-12
5.1750866e-12
5.1587341e-12
5.1429898e-12
5.1278083e-12
5.1131478e-12
5.0989707e-12
5.0852424e-12
5.0719321e-12
5.0590103e-12
5.0464501e-12
5.0342309e-12
5.0223283e-12
5.0107217e-12
4.9993912e-12
4.988319e-12
4.9774888e-12
4.9668852e-12
4.9564942e-12
4.9463028e-12
4.936298e-12
4.9264694e-12
4.9168052e-12
4.9072967e-12
4.8979339e-12
4.8887083e-12
4.8796128e-12
4.8706375e-12
4.8617779e-12
4.8530267e-12
4.8443772e-12
4.8358242e-12
4.8273623e-12
4.8189862e-12
4.8106912e-12
4.8024733e-12
4.7943277e-12
4.7862509e-12
4.7782399e-12
4.7702906e-12
4.7623997e-12
4.7545651e-12
4.7467836e-12
4.7390523e-12
4.7313692e-12
4.7237327e-12
4.7161404e-12
4.7085912e-12
4.7010848e-12
4.6936215e-12
4.6862006e-12
4.6788366e-12
4.6714966e-12
4.6645971e-12
4.6584191e-12
4.6528939e-12
4.6479099e-12
4.6433765e-12
4.6392241e-12
4.6354004e-12
4.6318645e-12
4.6285835e-12
4.625529e-12
4.6226778e-12
4.6200094e-12
4.6175059e-12
4.6151514e-12
4.6129313e-12
4.610833e-12
4.6088417e-12
4.6069502e-12
4.6051193e-12
4.6034019e-12
4.6015599e-12
4.600108e-12
4.5978085e-12
6.6906146e-09
6.4499303e-09
6.3774957e-09
6.3448805e-09
6.3253418e-09
6.3120429e-09
6.3024255e-09
6.2952205e-09
6.2896935e-09
6.2853812e-09
6.2819743e-09
6.2792581e-09
6.2770777e-09
6.2753173e-09
6.273886e-09
6.27271e-09
6.2717143e-09
6.2708435e-09
6.269921e-09
6.2690683e-09
6.2665879e-09
6.267167e-09
6.245126e-09
4.6965621e-09
1.8846877e-11
3.1415451e-12
9.456801e-12
5.8401175e-12
7.4529223e-12
7.0073884e-12
6.6858748e-12
6.4408479e-12
6.246176e-12
6.0872074e-12
5.9545617e-12
5.8423e-12
5.7455677e-12
5.6612269e-12
5.5869799e-12
5.5210452e-12
5.462042e-12
5.4088812e-12
5.3606911e-12
5.3168816e-12
5.2769898e-12
5.2402601e-12
5.2062214e-12
5.1745842e-12
5.1451019e-12
5.1175473e-12
5.0917206e-12
5.067446e-12
5.0445707e-12
5.0229596e-12
5.002496e-12
4.9830859e-12
4.9646384e-12
4.9470651e-12
4.9302906e-12
4.9142481e-12
4.8988769e-12
4.8841232e-12
4.8699388e-12
4.8562802e-12
4.843108e-12
4.8303856e-12
4.8180805e-12
4.8061628e-12
4.7946056e-12
4.7833835e-12
4.7724729e-12
4.7618551e-12
4.7515093e-12
4.7414184e-12
4.7315649e-12
4.7219339e-12
4.7125109e-12
4.7032828e-12
4.6942375e-12
4.6853638e-12
4.6766502e-12
4.6680882e-12
4.6596671e-12
4.6513798e-12
4.6432176e-12
4.6351731e-12
4.6272404e-12
4.6194106e-12
4.6116804e-12
4.6040433e-12
4.5964934e-12
4.5890266e-12
4.5816384e-12
4.5743238e-12
4.5670793e-12
4.5599014e-12
4.552786e-12
4.5457301e-12
4.5387313e-12
4.5317861e-12
4.5248919e-12
4.5180468e-12
4.5112482e-12
4.5044937e-12
4.4977816e-12
4.4911106e-12
4.4844789e-12
4.4778855e-12
4.4713307e-12
4.4648147e-12
4.4583373e-12
4.4519116e-12
4.4455078e-12
4.4395028e-12
4.4341425e-12
4.4293593e-12
4.425052e-12
4.4211393e-12
4.4175592e-12
4.4142655e-12
4.4112221e-12
4.4084003e-12
4.4057751e-12
4.4033263e-12
4.4010363e-12
4.3988892e-12
4.3968712e-12
4.3949696e-12
4.3931734e-12
4.3914699e-12
4.3898529e-12
4.3882881e-12
4.3868219e-12
4.3852462e-12
4.3840074e-12
4.382046e-12
6.6825858e-09
6.4214275e-09
6.3421282e-09
6.3061527e-09
6.2845264e-09
6.2697786e-09
6.2590963e-09
6.2510807e-09
6.2449211e-09
6.2401054e-09
6.2362922e-09
6.233244e-09
6.2307897e-09
6.2288019e-09
6.227181e-09
6.225847e-09
6.2247212e-09
6.2237468e-09
6.2227478e-09
6.2218633e-09
6.219378e-09
6.2203058e-09
6.1982864e-09
4.6792443e-09
1.8046705e-11
2.7133224e-12
8.4810771e-12
5.6391297e-12
6.748899e-12
6.3649789e-12
6.0876478e-12
5.8764744e-12
5.708738e-12
5.5717909e-12
5.4575492e-12
5.3609348e-12
5.2777043e-12
5.2051479e-12
5.1412901e-12
5.0845951e-12
5.0338725e-12
4.9881827e-12
4.946774e-12
4.9091304e-12
4.8748369e-12
4.8432758e-12
4.8140575e-12
4.7869091e-12
4.7616135e-12
4.7379746e-12
4.7158203e-12
4.6949989e-12
4.6753792e-12
4.6568445e-12
4.6392943e-12
4.6226412e-12
4.6068087e-12
4.5917246e-12
4.5773248e-12
4.5635523e-12
4.550355e-12
4.5376867e-12
4.5255061e-12
4.5137757e-12
4.5024615e-12
4.4915322e-12
4.4809597e-12
4.4707185e-12
4.4607853e-12
4.4511383e-12
4.4417572e-12
4.4326256e-12
4.4237257e-12
4.4150429e-12
4.4065625e-12
4.3982714e-12
4.3901575e-12
4.3822096e-12
4.3744172e-12
4.3667708e-12
4.3592606e-12
4.3518792e-12
4.3446177e-12
4.3374699e-12
4.3304283e-12
4.3234867e-12
4.3166403e-12
4.3098812e-12
4.3032069e-12
4.2966116e-12
4.2900907e-12
4.2836406e-12
4.2772574e-12
4.270937e-12
4.2646766e-12
4.2584731e-12
4.2523232e-12
4.2462243e-12
4.2401746e-12
4.2341711e-12
4.2282116e-12
4.2222948e-12
4.2164183e-12
4.2105802e-12
4.2047792e-12
4.1990143e-12
4.1932839e-12
4.1875875e-12
4.1819255e-12
4.1762984e-12
4.170706e-12
4.1651602e-12
4.1596345e-12
4.1544653e-12
4.1498656e-12
4.1457703e-12
4.1420887e-12
4.1387488e-12
4.135696e-12
4.13289e-12
4.1302992e-12
4.127899e-12
4.1256676e-12
4.1235877e-12
4.121644e-12
4.119823e-12
4.1181126e-12
4.1165019e-12
4.1149817e-12
4.1135408e-12
4.112174e-12
4.1108518e-12
4.1096141e-12
4.1082818e-12
4.1072367e-12
4.1055829e-12
6.6734536e-09
6.3880177e-09
6.300583e-09
6.2606199e-09
6.2365148e-09
6.2200457e-09
6.2080983e-09
6.1991192e-09
6.1922074e-09
6.1867932e-09
6.1824964e-09
6.1790526e-09
6.1762717e-09
6.1740122e-09
6.1721642e-09
6.1706404e-09
6.1693568e-09
6.168255e-09
6.1671576e-09
6.1662248e-09
6.1637066e-09
6.1650134e-09
6.1428233e-09
4.6586007e-09
1.7328879e-11
2.3139328e-12
7.4929768e-12
5.287493e-12
6.0153026e-12
5.688792e-12
5.4528005e-12
5.2732514e-12
5.1306724e-12
5.0142903e-12
4.9172317e-12
4.8352132e-12
4.7645755e-12
4.7030093e-12
4.6488384e-12
4.6007569e-12
4.5577518e-12
4.5190238e-12
4.4839332e-12
4.4520334e-12
4.4229626e-12
4.3962187e-12
4.371481e-12
4.3485053e-12
4.3271019e-12
4.3071033e-12
4.288363e-12
4.2707518e-12
4.2541584e-12
4.2384835e-12
4.2236418e-12
4.209557e-12
4.1961634e-12
4.1834009e-12
4.1712156e-12
4.1595596e-12
4.1483892e-12
4.1376652e-12
4.1273526e-12
4.1174198e-12
4.1078378e-12
4.0985802e-12
4.0896233e-12
4.0809454e-12
4.0725267e-12
4.0643488e-12
4.0563946e-12
4.04865e-12
4.0410999e-12
4.0337319e-12
4.0265338e-12
4.0194944e-12
4.0126036e-12
4.005852e-12
3.9992307e-12
3.9927316e-12
3.9863466e-12
3.9800694e-12
3.9738925e-12
3.9678107e-12
3.9618178e-12
3.9559086e-12
3.950079e-12
3.9443223e-12
3.9386366e-12
3.9330172e-12
3.92746e-12
3.9219622e-12
3.9165205e-12
3.9111317e-12
3.9057933e-12
3.9005029e-12
3.8952577e-12
3.8900556e-12
3.8848952e-12
3.8797741e-12
3.8746905e-12
3.8696432e-12
3.8646306e-12
3.8596509e-12
3.8547032e-12
3.8497866e-12
3.8449001e-12
3.8400431e-12
3.8352166e-12
3.8304208e-12
3.825656e-12
3.8209326e-12
3.8162274e-12
3.8118362e-12
3.8079409e-12
3.8044803e-12
3.8013744e-12
3.7985604e-12
3.795991e-12
3.7936313e-12
3.7914543e-12
3.7894389e-12
3.7875666e-12
3.7858228e-12
3.7841944e-12
3.7826699e-12
3.781239e-12
3.7798925e-12
3.7786226e-12
3.7774198e-12
3.7762796e-12
3.7751771e-12
3.7741462e-12
3.7730345e-12
3.7721645e-12
3.7707885e-12
6.6632145e-09
6.3491833e-09
6.2521762e-09
6.2075155e-09
6.1804884e-09
6.1619898e-09
6.1485503e-09
6.1384349e-09
6.1306355e-09
6.1245147e-09
6.1196467e-09
6.1157355e-09
6.1125682e-09
6.1099868e-09
6.1078691e-09
6.1061189e-09
6.1046459e-09
6.1033894e-09
6.102169e-09
6.1011689e-09
6.0985866e-09
6.1003058e-09
6.0777312e-09
4.6341752e-09
1.6696617e-11
1.9414899e-12
6.5010766e-12
4.8106276e-12
5.2597499e-12
4.9863712e-12
4.7887722e-12
4.6385673e-12
4.5193303e-12
4.4220279e-12
4.3409084e-12
4.2724163e-12
4.2134473e-12
4.1620638e-12
4.1168664e-12
4.0767622e-12
4.0409031e-12
4.00862e-12
3.9793772e-12
3.952794e-12
3.9285628e-12
3.9062795e-12
3.8856822e-12
3.8665609e-12
3.8487528e-12
3.8321166e-12
3.8165294e-12
3.8018831e-12
3.7880845e-12
3.7750507e-12
3.7627102e-12
3.7509988e-12
3.739861e-12
3.7292467e-12
3.7191109e-12
3.7094142e-12
3.7001201e-12
3.691196e-12
3.6826129e-12
3.6743445e-12
3.6663666e-12
3.6586572e-12
3.6511966e-12
3.6439668e-12
3.6369514e-12
3.6301348e-12
3.6235029e-12
3.617044e-12
3.6107456e-12
3.6045972e-12
3.5985886e-12
3.5927108e-12
3.5869553e-12
3.5813143e-12
3.5757804e-12
3.570347e-12
3.5650072e-12
3.559756e-12
3.5545871e-12
3.5494962e-12
3.5444783e-12
3.5395291e-12
3.5346451e-12
3.529821e-12
3.5250551e-12
3.5203436e-12
3.5156833e-12
3.5110719e-12
3.5065066e-12
3.5019849e-12
3.4975048e-12
3.4930644e-12
3.4886614e-12
3.4842942e-12
3.4799616e-12
3.4756619e-12
3.4713934e-12
3.4671555e-12
3.4629467e-12
3.4587656e-12
3.4546116e-12
3.4504841e-12
3.4463822e-12
3.4423057e-12
3.4382556e-12
3.4342322e-12
3.4302359e-12
3.4262759e-12
3.422332e-12
3.41866e-12
3.4154123e-12
3.4125332e-12
3.4099533e-12
3.4076188e-12
3.4054893e-12
3.4035352e-12
3.4017336e-12
3.4000672e-12
3.3985201e-12
3.3970802e-12
3.3957368e-12
3.39448e-12
3.3933013e-12
3.392193e-12
3.3911485e-12
3.39016e-12
3.3892237e-12
3.3883187e-12
3.3874734e-12
3.3865604e-12
3.3858474e-12
3.3847205e-12
6.6519039e-09
6.3043824e-09
6.1961828e-09
6.1460235e-09
6.1155746e-09
6.094699e-09
6.0795116e-09
6.0680646e-09
6.059225e-09
6.0522758e-09
6.0467378e-09
6.0422779e-09
6.0386567e-09
6.0356965e-09
6.0332609e-09
6.0312432e-09
6.0295451e-09
6.028103e-09
6.0267313e-09
6.0256424e-09
6.0229611e-09
6.0251293e-09
6.0019342e-09
4.6054613e-09
1.6160068e-11
1.5966594e-12
5.5199731e-12
4.2409731e-12
4.4955908e-12
4.2708755e-12
4.1085423e-12
3.9852774e-12
3.8874685e-12
3.8076801e-12
3.7411887e-12
3.6850983e-12
3.6368259e-12
3.5947758e-12
3.5578015e-12
3.5250057e-12
3.495692e-12
3.4693105e-12
3.4454214e-12
3.4237064e-12
3.4039099e-12
3.3857121e-12
3.3689009e-12
3.3533024e-12
3.3387795e-12
3.3252153e-12
3.3125088e-12
3.300571e-12
3.2893254e-12
3.2787039e-12
3.2686481e-12
3.259105e-12
3.2500289e-12
3.2413787e-12
3.2331175e-12
3.2252132e-12
3.2176358e-12
3.2103589e-12
3.2033588e-12
3.1966139e-12
3.1901046e-12
3.1838129e-12
3.1777227e-12
3.1718194e-12
3.1660895e-12
3.1605204e-12
3.1551006e-12
3.1498204e-12
3.1446697e-12
3.1396399e-12
3.1347229e-12
3.129911e-12
3.1251976e-12
3.1205763e-12
3.1160411e-12
3.1115866e-12
3.1072073e-12
3.1028989e-12
3.0986566e-12
3.0944768e-12
3.0903555e-12
3.0862892e-12
3.0822753e-12
3.0783092e-12
3.0743898e-12
3.070514e-12
3.0666792e-12
3.0628837e-12
3.0591253e-12
3.055402e-12
3.0517122e-12
3.0480545e-12
3.0444269e-12
3.0408284e-12
3.0372581e-12
3.0337145e-12
3.0301964e-12
3.0267034e-12
3.0232344e-12
3.0197882e-12
3.0163645e-12
3.0129627e-12
3.0095823e-12
3.0062234e-12
3.0028868e-12
2.999573e-12
2.9962826e-12
2.9930232e-12
2.989778e-12
2.9867632e-12
2.9841045e-12
2.9817521e-12
2.9796473e-12
2.977745e-12
2.9760114e-12
2.9744218e-12
2.9729573e-12
2.9716037e-12
2.9703479e-12
2.9691801e-12
2.9680914e-12
2.9670737e-12
2.96612e-12
2.965224e-12
2.9643803e-12
2.9635826e-12
2.9628275e-12
2.9620981e-12
2.9614175e-12
2.9606814e-12
2.9601076e-12
2.9592016e-12
6.6396117e-09
6.2530595e-09
6.1318462e-09
6.0752889e-09
6.0408569e-09
6.0172142e-09
5.9999921e-09
5.9869947e-09
5.9769437e-09
5.9690294e-09
5.9627106e-09
5.9576109e-09
5.9534597e-09
5.950057e-09
5.9472492e-09
5.9449175e-09
5.9429541e-09
5.9412915e-09
5.939737e-09
5.9385348e-09
5.9357155e-09
5.9383726e-09
5.9142972e-09
4.5719e-09
1.5736963e-11
1.2818049e-12
4.5689254e-12
3.6149477e-12
3.7407247e-12
3.5599523e-12
3.4295401e-12
3.3306487e-12
3.2522244e-12
3.1882775e-12
3.1350141e-12
3.0901266e-12
3.0515148e-12
3.0178927e-12
2.988342e-12
2.9621422e-12
2.938734e-12
2.9176757e-12
2.8986144e-12
2.88129e-12
2.8654957e-12
2.8509828e-12
2.837583e-12
2.8251561e-12
2.8135903e-12
2.8027909e-12
2.7926766e-12
2.7831757e-12
2.774227e-12
2.7657757e-12
2.7577752e-12
2.7501829e-12
2.742962e-12
2.7360795e-12
2.7295059e-12
2.7232155e-12
2.7171843e-12
2.7113913e-12
2.7058174e-12
2.7004455e-12
2.69526e-12
2.6902464e-12
2.685392e-12
2.6806851e-12
2.6761149e-12
2.6716715e-12
2.6673456e-12
2.6631295e-12
2.6590152e-12
2.6549959e-12
2.651065e-12
2.6472166e-12
2.6434453e-12
2.639746e-12
2.6361141e-12
2.6325453e-12
2.6290351e-12
2.6255803e-12
2.6221769e-12
2.6188223e-12
2.6155132e-12
2.6122469e-12
2.6090213e-12
2.6058329e-12
2.6026809e-12
2.5995627e-12
2.5964766e-12
2.5934211e-12
2.5903945e-12
2.5873953e-12
2.5844223e-12
2.5814745e-12
2.5785504e-12
2.5756492e-12
2.5727701e-12
2.5699123e-12
2.5670748e-12
2.5642572e-12
2.5614587e-12
2.5586787e-12
2.5559168e-12
2.5531726e-12
2.5504458e-12
2.5477366e-12
2.545046e-12
2.5423744e-12
2.5397224e-12
2.5370965e-12
2.5344829e-12
2.5320597e-12
2.5299284e-12
2.5280461e-12
2.5263642e-12
2.5248459e-12
2.5234633e-12
2.5221965e-12
2.5210302e-12
2.5199529e-12
2.5189542e-12
2.5180263e-12
2.517162e-12
2.5163548e-12
2.5155989e-12
2.5148894e-12
2.5142219e-12
2.5135914e-12
2.5129951e-12
2.5124194e-12
2.5118829e-12
2.511302e-12
2.5108497e-12
2.5101366e-12
6.626501e-09
6.1946579e-09
6.0583921e-09
5.9944311e-09
5.9553894e-09
5.9285445e-09
5.9089676e-09
5.8941761e-09
5.8827229e-09
5.8736913e-09
5.8664681e-09
5.8606269e-09
5.8558612e-09
5.8519447e-09
5.8487043e-09
5.8460065e-09
5.8437327e-09
5.8418105e-09
5.8400378e-09
5.8386951e-09
5.8356947e-09
5.8388835e-09
5.8136437e-09
4.5328788e-09
1.5453823e-11
1.0001555e-12
3.6700713e-12
2.9701009e-12
3.0160198e-12
2.8742151e-12
2.7721607e-12
2.6949098e-12
2.6336931e-12
2.5838056e-12
2.5422783e-12
2.5073195e-12
2.4772667e-12
2.4511102e-12
2.4281332e-12
2.4077723e-12
2.38959e-12
2.3732411e-12
2.3584493e-12
2.3450085e-12
2.3327555e-12
2.3215019e-12
2.3111168e-12
2.3014908e-12
2.2925355e-12
2.2841763e-12
2.2763494e-12
2.2689988e-12
2.2620766e-12
2.2555399e-12