/*--------------------------------*- C++ -*----------------------------------*\
| =========                 |                                                 |
| \\      /  F ield         | OpenFOAM: The Open Source CFD Toolbox           |
|  \\    /   O peration     | Version:  2206                                  |
|   \\  /    A nd           | Website:  www.openfoam.com                      |
|    \\/     M anipulation  |                                                 |
\*---------------------------------------------------------------------------*/
FoamFile
{
    version     2.0;
    format      ascii;
    arch        "LSB;label=32;scalar=64";
    class       volScalarField;
    location    "500";
    object      p;
}
// * * * * * * * * * * * * * * * * * * * * * * * * * * * * * * * * * * * * * //

dimensions      [0 2 -2 0 0 0 0];

internalField   nonuniform List<scalar> 
13056
(
0.0097897656
0.009885182
0.010083867
0.01033602
0.010643871
0.011006994
0.01142309
0.01189178
0.012414789
0.012995475
0.013638822
0.01435188
0.015144291
0.016029723
0.01702636
0.018162981
0.019473857
0.021034738
0.022897668
0.025353861
0.028307853
0.033454359
0.038388713
0.079314803
0.048217137
-0.003125768
-0.0031939258
-0.0013775607
-0.00065593118
1.0463693e-05
0.00045049833
0.00077790003
0.0010298966
0.0012229343
0.0013738914
0.0014957416
0.0015962179
0.0016802745
0.0017515008
0.0018126849
0.0018657903
0.001912241
0.001953161
0.0019894252
0.0020217195
0.0020505891
0.0020764742
0.0020997353
0.0021206669
0.0021395191
0.002156491
0.0021717446
0.0021854441
0.0021977233
0.0022086788
0.0022183987
0.0022269638
0.0022344425
0.002240897
0.002246378
0.0022509373
0.00225462
0.0022574482
0.0022594474
0.0022606435
0.0022610573
0.0022607058
0.0022596061
0.0022577699
0.0022552163
0.0022519492
0.0022479578
0.0022432481
0.0022378232
0.002231681
0.0022248176
0.00221723
0.0022089117
0.0021998635
0.0021900692
0.0021795023
0.0021681543
0.0021560111
0.0021430543
0.002129264
0.0021146188
0.0020990962
0.0020826777
0.0020653265
0.0020469983
0.0020276649
0.002007289
0.0019858286
0.0019632394
0.001939469
0.0019144739
0.0018881955
0.0018605518
0.001831475
0.0018008909
0.001768713
0.0017348483
0.0016991892
0.0016616318
0.0016220422
0.0015802581
0.0015361254
0.0014894566
0.0014400335
0.0013876056
0.0013318577
0.0012724129
0.0012085643
0.0011415746
0.0010750398
0.0010108457
0.00094874285
0.00088823699
0.00082909671
0.00077121385
0.00071452972
0.00065903723
0.00060476557
0.00055178871
0.00050022696
0.0004502294
0.00040201465
0.0003558729
0.00031226392
0.0002716618
0.00023532722
0.00020355153
0.00018194127
0.00016403322
0.00028982788
-0.00026643567
0.0097897656
0.009885182
0.010083867
0.01033602
0.010643871
0.011006994
0.01142309
0.01189178
0.012414789
0.012995475
0.013638822
0.014351881
0.015144292
0.016029724
0.017026361
0.018162983
0.019473859
0.021034741
0.022897672
0.025353868
0.028307863
0.033454378
0.038388765
0.079309386
0.048228134
-0.0031179543
-0.0031922389
-0.0013768799
-0.00065554348
1.0734418e-05
0.00045069985
0.00077805759
0.0010300238
0.0012230395
0.0013739801
0.0014958175
0.0015962836
0.0016803319
0.0017515515
0.00181273
0.0018658306
0.0019122772
0.0019531937
0.0019894549
0.0020217466
0.0020506138
0.002076497
0.0020997563
0.0021206862
0.0021395371
0.0021565077
0.0021717601
0.0021854585
0.0021977368
0.0022086914
0.0022184105
0.0022269749
0.0022344529
0.0022409068
0.0022463873
0.002250946
0.0022546282
0.002257456
0.0022594547
0.0022606505
0.0022610639
0.0022607121
0.002259612
0.0022577755
0.0022552216
0.0022519543
0.0022479626
0.0022432527
0.0022378276
0.0022316852
0.0022248216
0.0022172338
0.0022089153
0.0021998669
0.0021900725
0.0021795055
0.0021681573
0.002156014
0.002143057
0.0021292666
0.0021146213
0.0020990986
0.00208268
0.0020653287
0.0020470004
0.0020276669
0.0020072909
0.0019858304
0.0019632412
0.0019394707
0.0019144755
0.001888197
0.0018605532
0.0018314763
0.0018008922
0.0017687142
0.0017348494
0.0016991903
0.0016616328
0.0016220432
0.001580259
0.0015361263
0.0014894574
0.0014400342
0.0013876064
0.0013318584
0.0012724135
0.0012085649
0.0011415751
0.0010750403
0.0010108462
0.00094874326
0.00088823737
0.00082909705
0.00077121417
0.00071453002
0.00065903751
0.00060476584
0.00055178896
0.0005002272
0.00045022962
0.00040201486
0.0003558731
0.00031226411
0.00027166198
0.0002353274
0.0002035517
0.00018194144
0.00016403339
0.00028982806
-0.00026643555
0.0097897656
0.009885182
0.010083867
0.01033602
0.010643871
0.011006994
0.01142309
0.01189178
0.012414789
0.012995476
0.013638823
0.014351881
0.015144292
0.016029725
0.017026362
0.018162984
0.019473861
0.021034744
0.022897676
0.025353876
0.028307873
0.033454399
0.038388818
0.079304346
0.048242489
-0.0031100784
-0.0031903831
-0.0013760854
-0.00065509111
1.1050303e-05
0.00045093497
0.00077824139
0.0010301723
0.0012231623
0.0013740836
0.0014959061
0.0015963603
0.0016803989
0.0017516106
0.0018127825
0.0018658775
0.0019123194
0.0019532318
0.0019894896
0.0020217782
0.0020506427
0.0020765235
0.0020997807
0.0021207088
0.0021395579
0.0021565271
0.0021717781
0.0021854753
0.0021977525
0.002208706
0.0022184243
0.0022269878
0.002234465
0.0022409182
0.002246398
0.0022509561
0.0022546377
0.002257465
0.0022594633
0.0022606586
0.0022610715
0.0022607194
0.0022596189
0.0022577821
0.0022552279
0.0022519603
0.0022479683
0.0022432581
0.0022378327
0.0022316901
0.0022248263
0.0022172382
0.0022089196
0.002199871
0.0021900764
0.0021795092
0.0021681609
0.0021560174
0.0021430602
0.0021292696
0.0021146242
0.0020991014
0.0020826826
0.0020653312
0.0020470029
0.0020276692
0.0020072931
0.0019858325
0.0019632432
0.0019394726
0.0019144773
0.0018881987
0.0018605548
0.0018314779
0.0018008937
0.0017687157
0.0017348508
0.0016991916
0.001661634
0.0016220444
0.0015802601
0.0015361273
0.0014894584
0.0014400351
0.0013876072
0.0013318591
0.0012724143
0.0012085656
0.0011415758
0.0010750409
0.0010108467
0.00094874373
0.0008882378
0.00082909746
0.00077121455
0.00071453037
0.00065903784
0.00060476615
0.00055178925
0.00050022747
0.00045022988
0.00040201511
0.00035587333
0.00031226433
0.00027166219
0.0002353276
0.00020355189
0.00018194163
0.00016403357
0.00028982826
-0.00026643542
0.0097897656
0.0098851821
0.010083867
0.01033602
0.010643871
0.011006994
0.011423091
0.01189178
0.01241479
0.012995476
0.013638823
0.014351882
0.015144293
0.016029726
0.017026364
0.018162986
0.019473863
0.021034747
0.02289768
0.025353884
0.028307884
0.033454418
0.038388871
0.079299458
0.048258773
-0.0031051007
-0.0031886504
-0.0013753139
-0.00065465157
1.1357198e-05
0.00045116342
0.00077841999
0.0010303166
0.0012232817
0.0013741842
0.0014959921
0.0015964347
0.0016804641
0.001751668
0.0018128335
0.0018659231
0.0019123604
0.0019532689
0.0019895233
0.0020218089
0.0020506708
0.0020765493
0.0020998045
0.0021207307
0.0021395783
0.0021565459
0.0021717956
0.0021854916
0.0021977677
0.0022087203
0.0022184376
0.0022270003
0.0022344768
0.0022409293
0.0022464085
0.002250966
0.0022546471
0.0022574738
0.0022594716
0.0022606665
0.002261079
0.0022607264
0.0022596257
0.0022577885
0.0022552339
0.0022519661
0.0022479738
0.0022432633
0.0022378377
0.0022316948
0.0022248308
0.0022172425
0.0022089237
0.0021998749
0.0021900802
0.0021795128
0.0021681643
0.0021560206
0.0021430634
0.0021292726
0.0021146271
0.0020991041
0.0020826852
0.0020653337
0.0020470052
0.0020276714
0.0020072953
0.0019858346
0.0019632451
0.0019394745
0.0019144791
0.0018882004
0.0018605565
0.0018314794
0.0018008952
0.001768717
0.0017348521
0.0016991928
0.0016616352
0.0016220455
0.0015802611
0.0015361283
0.0014894593
0.001440036
0.001387608
0.0013318599
0.001272415
0.0012085663
0.0011415764
0.0010750414
0.0010108472
0.00094874419
0.00088823823
0.00082909785
0.00077121491
0.00071453071
0.00065903816
0.00060476644
0.00055178953
0.00050022774
0.00045023013
0.00040201535
0.00035587355
0.00031226454
0.00027166239
0.0002353278
0.00020355208
0.00018194182
0.00016403375
0.00028982847
-0.00026643529
0.0097897656
0.0098851821
0.010083867
0.01033602
0.010643871
0.011006994
0.011423091
0.011891781
0.01241479
0.012995476
0.013638823
0.014351882
0.015144294
0.016029727
0.017026365
0.018162988
0.019473866
0.021034751
0.022897685
0.025353892
0.028307895
0.033454439
0.038388913
0.079294159
0.048276732
-0.0031012296
-0.0031868775
-0.0013745184
-0.00065419806
1.1673814e-05
0.00045139911
0.00077860425
0.0010304654
0.0012234048
0.001374288
0.0014960809
0.0015965116
0.0016805313
0.0017517273
0.0018128862
0.0018659702
0.0019124028
0.0019533072
0.001989558
0.0020218406
0.0020506998
0.0020765759
0.002099829
0.0021207533
0.0021395992
0.0021565654
0.0021718137
0.0021855085
0.0021977835
0.002208735
0.0022184514
0.0022270133
0.0022344889
0.0022409408
0.0022464192
0.0022509762
0.0022546567
0.0022574829
0.0022594802
0.0022606746
0.0022610867
0.0022607338
0.0022596326
0.0022577951
0.0022552402
0.002251972
0.0022479795
0.0022432687
0.0022378428
0.0022316997
0.0022248355
0.002217247
0.002208928
0.002199879
0.002190084
0.0021795165
0.0021681678
0.002156024
0.0021430666
0.0021292757
0.00211463
0.0020991069
0.0020826879
0.0020653363
0.0020470077
0.0020276738
0.0020072975
0.0019858367
0.0019632472
0.0019394764
0.0019144809
0.0018882021
0.0018605581
0.001831481
0.0018008967
0.0017687185
0.0017348534
0.0016991941
0.0016616364
0.0016220466
0.0015802622
0.0015361293
0.0014894603
0.0014400369
0.0013876089
0.0013318607
0.0012724157
0.0012085669
0.001141577
0.001075042
0.0010108477
0.00094874467
0.00088823866
0.00082909826
0.00077121529
0.00071453106
0.00065903849
0.00060476675
0.00055178982
0.00050022801
0.00045023039
0.00040201559
0.00035587379
0.00031226477
0.0002716626
0.000235328
0.00020355228
0.00018194201
0.00016403393
0.00028982868
-0.00026643517
0.0097897656
0.0098851821
0.010083867
0.01033602
0.010643871
0.011006994
0.011423091
0.011891781
0.01241479
0.012995477
0.013638824
0.014351883
0.015144294
0.016029728
0.017026366
0.01816299
0.019473868
0.021034755
0.022897691
0.025353903
0.028307909
0.033454463
0.038388936
0.079288261
0.048295483
-0.0030960467
-0.0031849839
-0.0013736701
-0.00065371418
1.2011597e-05
0.00045165057
0.00077880085
0.0010306243
0.0012235362
0.0013743987
0.0014961757
0.0015965936
0.001680603
0.0017517906
0.0018129424
0.0018660205
0.001912448
0.0019533481
0.0019895951
0.0020218744
0.0020507308
0.0020766043
0.0020998552
0.0021207775
0.0021396216
0.0021565861
0.002171833
0.0021855265
0.0021978003
0.0022087507
0.0022184662
0.0022270271
0.0022345019
0.002240953
0.0022464308
0.002250987
0.0022546669
0.0022574926
0.0022594894
0.0022606833
0.002261095
0.0022607416
0.00225964
0.0022578021
0.0022552469
0.0022519784
0.0022479855
0.0022432745
0.0022378483
0.002231705
0.0022248405
0.0022172518
0.0022089325
0.0021998833
0.0021900882
0.0021795204
0.0021681716
0.0021560276
0.00214307
0.002129279
0.0021146332
0.0020991099
0.0020826908
0.002065339
0.0020470103
0.0020276763
0.0020072999
0.0019858389
0.0019632493
0.0019394784
0.0019144829
0.001888204
0.0018605599
0.0018314827
0.0018008983
0.00176872
0.0017348549
0.0016991954
0.0016616377
0.0016220478
0.0015802634
0.0015361304
0.0014894613
0.0014400379
0.0013876098
0.0013318616
0.0012724165
0.0012085677
0.0011415776
0.0010750426
0.0010108483
0.00094874518
0.00088823913
0.00082909869
0.00077121569
0.00071453144
0.00065903884
0.00060476709
0.00055179013
0.00050022831
0.00045023067
0.00040201585
0.00035587404
0.000312265
0.00027166283
0.00023532822
0.00020355248
0.00018194222
0.00016403413
0.0002898289
-0.00026643503
0.0097897656
0.0098851822
0.010083868
0.01033602
0.010643871
0.011006994
0.011423091
0.011891781
0.01241479
0.012995477
0.013638824
0.014351884
0.015144296
0.016029729
0.017026368
0.018162992
0.019473872
0.02103476
0.022897698
0.025353915
0.028307926
0.033454493
0.038388951
0.079281663
0.048315193
-0.00308917
-0.0031829411
-0.0013727552
-0.00065319191
1.2376134e-05
0.00045192197
0.00077901305
0.0010307957
0.001223678
0.0013745183
0.001496278
0.0015966822
0.0016806804
0.0017518589
0.0018130031
0.0018660748
0.0019124968
0.0019533922
0.0019896352
0.002021911
0.0020507642
0.002076635
0.0020998834
0.0021208036
0.0021396458
0.0021566086
0.0021718539
0.002185546
0.0021978184
0.0022087677
0.0022184821
0.0022270421
0.002234516
0.0022409662
0.0022464432
0.0022509988
0.002254678
0.0022575031
0.0022594993
0.0022606927
0.0022611039
0.00226075
0.0022596481
0.0022578097
0.0022552542
0.0022519853
0.0022479921
0.0022432807
0.0022378543
0.0022317106
0.0022248459
0.0022172569
0.0022089374
0.002199888
0.0021900927
0.0021795247
0.0021681757
0.0021560315
0.0021430737
0.0021292826
0.0021146366
0.0020991132
0.0020826939
0.002065342
0.0020470131
0.002027679
0.0020073024
0.0019858414
0.0019632517
0.0019394807
0.001914485
0.001888206
0.0018605618
0.0018314845
0.0018009
0.0017687216
0.0017348564
0.0016991969
0.0016616391
0.0016220492
0.0015802646
0.0015361316
0.0014894624
0.0014400389
0.0013876108
0.0013318625
0.0012724174
0.0012085685
0.0011415784
0.0010750433
0.0010108489
0.00094874573
0.00088823964
0.00082909916
0.00077121613
0.00071453185
0.00065903922
0.00060476745
0.00055179047
0.00050022862
0.00045023097
0.00040201614
0.00035587431
0.00031226526
0.00027166308
0.00023532845
0.00020355271
0.00018194245
0.00016403434
0.00028982914
-0.00026643488
0.0097897656
0.0098851822
0.010083868
0.01033602
0.010643872
0.011006995
0.011423091
0.011891781
0.012414791
0.012995478
0.013638825
0.014351885
0.015144297
0.016029731
0.01702637
0.018162995
0.019473876
0.021034766
0.022897707
0.025353931
0.028307947
0.033454531
0.038388971
0.079274219
0.048336162
-0.0030813336
-0.0031807216
-0.00137176
-0.00065262325
1.2772999e-05
0.00045221747
0.00077924411
0.0010309824
0.0012238325
0.0013746485
0.0014963894
0.0015967787
0.0016807648
0.0017519333
0.0018130692
0.001866134
0.0019125501
0.0019534404
0.0019896789
0.0020219508
0.0020508007
0.0020766685
0.0020999143
0.0021208321
0.0021396722
0.0021566331
0.0021718767
0.0021855672
0.0021978383
0.0022087863
0.0022184995
0.0022270584
0.0022345313
0.0022409806
0.0022464568
0.0022510116
0.0022546901
0.0022575145
0.0022595101
0.0022607029
0.0022611136
0.0022607592
0.0022596568
0.0022578181
0.0022552621
0.0022519928
0.0022479992
0.0022432876
0.0022378608
0.0022317168
0.0022248518
0.0022172625
0.0022089428
0.0021998931
0.0021900976
0.0021795294
0.0021681801
0.0021560358
0.0021430778
0.0021292864
0.0021146403
0.0020991167
0.0020826972
0.0020653452
0.0020470162
0.0020276819
0.0020073052
0.0019858441
0.0019632542
0.0019394831
0.0019144873
0.0018882082
0.0018605639
0.0018314865
0.0018009019
0.0017687234
0.0017348581
0.0016991985
0.0016616406
0.0016220506
0.001580266
0.0015361329
0.0014894636
0.0014400401
0.0013876118
0.0013318635
0.0012724183
0.0012085693
0.0011415792
0.001075044
0.0010108495
0.00094874633
0.0008882402
0.00082909968
0.00077121661
0.0007145323
0.00065903964
0.00060476784
0.00055179084
0.00050022897
0.0004502313
0.00040201645
0.0003558746
0.00031226554
0.00027166335
0.00023532871
0.00020355296
0.0001819427
0.00016403457
0.00028982941
-0.00026643472
0.0097897656
0.0098851823
0.010083868
0.010336021
0.010643872
0.011006995
0.011423092
0.011891782
0.012414791
0.012995478
0.013638826
0.014351886
0.015144298
0.016029733
0.017026373
0.018162999
0.019473882
0.021034774
0.022897718
0.02535395
0.028307973
0.03345458
0.038388997
0.079265745
0.048358628
-0.0030728661
-0.003178291
-0.0013706681
-0.00065199861
1.3208876e-05
0.00045254205
0.00077949796
0.0010311875
0.0012240022
0.0013747917
0.0014965119
0.0015968848
0.0016808576
0.0017520152
0.001813142
0.0018661991
0.0019126086
0.0019534933
0.001989727
0.0020219947
0.0020508408
0.0020767054
0.0020999482
0.0021208635
0.0021397012
0.00215666
0.0021719018
0.0021855906
0.0021978601
0.0022088067
0.0022185186
0.0022270763
0.0022345482
0.0022409965
0.0022464718
0.0022510257
0.0022547035
0.0022575271
0.0022595221
0.0022607142
0.0022611243
0.0022607694
0.0022596665
0.0022578272
0.0022552708
0.0022520011
0.0022480071
0.0022432951
0.0022378679
0.0022317236
0.0022248583
0.0022172687
0.0022089487
0.0021998988
0.0021901029
0.0021795345
0.002168185
0.0021560404
0.0021430823
0.0021292907
0.0021146444
0.0020991206
0.002082701
0.0020653488
0.0020470196
0.0020276851
0.0020073083
0.001985847
0.001963257
0.0019394858
0.0019144899
0.0018882106
0.0018605662
0.0018314887
0.001800904
0.0017687254
0.00173486
0.0016992003
0.0016616423
0.0016220522
0.0015802675
0.0015361343
0.0014894649
0.0014400413
0.001387613
0.0013318646
0.0012724194
0.0012085703
0.00114158
0.0010750448
0.0010108503
0.00094874699
0.00088824081
0.00082910025
0.00077121714
0.00071453279
0.00065904011
0.00060476827
0.00055179125
0.00050022936
0.00045023167
0.0004020168
0.00035587493
0.00031226586
0.00027166365
0.000235329
0.00020355324
0.00018194298
0.00016403482
0.00028982971
-0.00026643453
0.0097897656
0.0098851824
0.010083868
0.010336021
0.010643872
0.011006995
0.011423092
0.011891782
0.012414792
0.012995479
0.013638827
0.014351887
0.0151443
0.016029736
0.017026377
0.018163004
0.019473888
0.021034784
0.022897732
0.025353974
0.028308005
0.033454642
0.03838903
0.079256019
0.048382801
-0.0030636122
-0.0031756098
-0.001369461
-0.00065130707
1.3691355e-05
0.00045290139
0.00077977904
0.0010314147
0.0012241903
0.0013749502
0.0014966477
0.0015970024
0.0016809605
0.001752106
0.0018132227
0.0018662713
0.0019126736
0.0019535521
0.0019897804
0.0020220434
0.0020508854
0.0020767463
0.002099986
0.0021208983
0.0021397335
0.00215669
0.0021719296
0.0021856166
0.0021978844
0.0022088294
0.0022185399
0.0022270963
0.002234567
0.0022410142
0.0022464884
0.0022510414
0.0022547183
0.0022575411
0.0022595353
0.0022607268
0.0022611362
0.0022607807
0.0022596772
0.0022578374
0.0022552805
0.0022520103
0.0022480159
0.0022433034
0.0022378759
0.0022317312
0.0022248655
0.0022172756
0.0022089553
0.0021999051
0.0021901089
0.0021795402
0.0021681905
0.0021560457
0.0021430873
0.0021292955
0.0021146489
0.002099125
0.0020827051
0.0020653527
0.0020470234
0.0020276887
0.0020073118
0.0019858503
0.0019632601
0.0019394888
0.0019144927
0.0018882133
0.0018605688
0.0018314911
0.0018009063
0.0017687276
0.0017348621
0.0016992023
0.0016616442
0.001622054
0.0015802692
0.0015361359
0.0014894664
0.0014400427
0.0013876143
0.0013318658
0.0012724205
0.0012085713
0.001141581
0.0010750457
0.0010108511
0.00094874774
0.0008882415
0.00082910088
0.00077121774
0.00071453335
0.00065904063
0.00060476876
0.00055179171
0.00050022979
0.00045023208
0.00040201719
0.0003558753
0.00031226621
0.00027166398
0.00023532933
0.00020355355
0.00018194328
0.00016403511
0.00028983004
-0.00026643433
0.0097897656
0.0098851825
0.010083868
0.010336021
0.010643872
0.011006995
0.011423092
0.011891783
0.012414793
0.01299548
0.013638829
0.014351889
0.015144303
0.016029739
0.017026381
0.01816301
0.019473897
0.021034797
0.022897749
0.025354004
0.028308045
0.033454719
0.038389072
0.07924478
0.048408884
-0.0030533858
-0.0031726343
-0.0013681181
-0.00065053645
1.4228912e-05
0.00045330182
0.00078009234
0.001031668
0.0012243999
0.0013751271
0.0014967991
0.0015971336
0.0016810753
0.0017522073
0.0018133128
0.0018663519
0.0019127462
0.0019536177
0.00198984
0.0020220978
0.0020509352
0.0020767921
0.0021000281
0.0021209373
0.0021397696
0.0021567235
0.0021719608
0.0021856456
0.0021979115
0.0022088548
0.0022185637
0.0022271187
0.002234588
0.002241034
0.0022465071
0.002251059
0.0022547349
0.0022575568
0.0022595502
0.0022607409
0.0022611496
0.0022607934
0.0022596892
0.0022578488
0.0022552913
0.0022520206
0.0022480257
0.0022433128
0.0022378848
0.0022317397
0.0022248736
0.0022172834
0.0022089627
0.0021999121
0.0021901157
0.0021795466
0.0021681966
0.0021560515
0.0021430929
0.0021293008
0.002114654
0.0020991298
0.0020827097
0.0020653571
0.0020470276
0.0020276928
0.0020073156
0.001985854
0.0019632636
0.0019394921
0.0019144959
0.0018882164
0.0018605717
0.0018314939
0.0018009089
0.0017687301
0.0017348644
0.0016992045
0.0016616463
0.0016220559
0.001580271
0.0015361377
0.0014894681
0.0014400443
0.0013876158
0.0013318672
0.0012724218
0.0012085725
0.0011415821
0.0010750466
0.001010852
0.00094874857
0.00088824227
0.0008291016
0.0007712184
0.00071453397
0.00065904121
0.00060476931
0.00055179223
0.00050023028
0.00045023254
0.00040201763
0.00035587572
0.00031226661
0.00027166436
0.00023532969
0.0002035539
0.00018194364
0.00016403544
0.00028983041
-0.0002664341
0.0097897656
0.0098851827
0.010083868
0.010336021
0.010643873
0.011006996
0.011423093
0.011891784
0.012414794
0.012995481
0.01363883
0.014351891
0.015144306
0.016029743
0.017026387
0.018163018
0.019473907
0.021034812
0.02289777
0.02535404
0.028308094
0.033454815
0.038389124
0.079231713
0.048437067
-0.0030420232
-0.0031693156
-0.0013666162
-0.00064967309
1.4831052e-05
0.00045375044
0.00078044343
0.0010319519
0.001224635
0.0013753255
0.001496969
0.0015972808
0.0016812042
0.0017523211
0.001813414
0.0018664424
0.0019128277
0.0019536914
0.001989907
0.0020221589
0.0020509912
0.0020768435
0.0021000755
0.0021209811
0.0021398102
0.0021567612
0.0021719959
0.0021856784
0.0021979421
0.0022088834
0.0022185905
0.0022271438
0.0022346116
0.0022410562
0.002246528
0.0022510788
0.0022547536
0.0022575745
0.0022595669
0.0022607567
0.0022611646
0.0022608076
0.0022597028
0.0022578617
0.0022553036
0.0022520323
0.0022480368
0.0022433233
0.0022378948
0.0022317493
0.0022248828
0.0022172921
0.002208971
0.00219992
0.0021901232
0.0021795539
0.0021682035
0.0021560581
0.0021430991
0.0021293068
0.0021146597
0.0020991353
0.002082715
0.0020653621
0.0020470323
0.0020276973
0.0020073199
0.0019858581
0.0019632676
0.0019394958
0.0019144995
0.0018882198
0.0018605749
0.0018314969
0.0018009118
0.0017687329
0.0017348671
0.001699207
0.0016616487
0.0016220582
0.0015802732
0.0015361396
0.00148947
0.001440046
0.0013876174
0.0013318687
0.0012724232
0.0012085739
0.0011415833
0.0010750478
0.001010853
0.00094874952
0.00088824315
0.00082910242
0.00077121916
0.00071453468
0.00065904188
0.00060476994
0.00055179282
0.00050023084
0.00045023306
0.00040201812
0.00035587619
0.00031226706
0.00027166479
0.00023533011
0.0002035543
0.00018194403
0.00016403581
0.00028983084
-0.00026643384
0.0097897656
0.0098851828
0.010083868
0.010336022
0.010643873
0.011006996
0.011423094
0.011891784
0.012414795
0.012995483
0.013638832
0.014351894
0.015144309
0.016029748
0.017026393
0.018163027
0.019473919
0.02103483
0.022897795
0.025354083
0.028308153
0.033454932
0.038389189
0.079216445
0.048467516
-0.0030293485
-0.0031655993
-0.0013649294
-0.00064870161
1.550847e-05
0.00045425526
0.00078083861
0.0010322715
0.0012248997
0.0013755489
0.0014971603
0.0015974467
0.0016813494
0.0017524493
0.0018135281
0.0018665446
0.0019129196
0.0019537747
0.0019899827
0.0020222279
0.0020510544
0.0020769016
0.0021001291
0.0021210306
0.002139856
0.0021568038
0.0021720355
0.0021857153
0.0021979766
0.0022089158
0.0022186208
0.0022271723
0.0022346384
0.0022410814
0.0022465518
0.0022511012
0.0022547748
0.0022575945
0.0022595859
0.0022607747
0.0022611816
0.0022608238
0.0022597181
0.0022578763
0.0022553174
0.0022520454
0.0022480493
0.0022433353
0.0022379062
0.0022317601
0.0022248931
0.0022173019
0.0022089804
0.002199929
0.0021901318
0.002179562
0.0021682113
0.0021560655
0.0021431063
0.0021293136
0.0021146662
0.0020991415
0.0020827209
0.0020653678
0.0020470377
0.0020277025
0.0020073249
0.0019858628
0.001963272
0.0019395001
0.0019145035
0.0018882236
0.0018605786
0.0018315004
0.0018009151
0.001768736
0.0017348701
0.0016992098
0.0016616513
0.0016220607
0.0015802755
0.0015361419
0.0014894721
0.0014400481
0.0013876193
0.0013318705
0.0012724249
0.0012085754
0.0011415847
0.001075049
0.0010108542
0.0009487506
0.00088824415
0.00082910334
0.00077122003
0.00071453549
0.00065904264
0.00060477065
0.00055179349
0.00050023147
0.00045023367
0.00040201869
0.00035587673
0.00031226757
0.00027166529
0.00023533058
0.00020355475
0.00018194449
0.00016403623
0.00028983133
-0.00026643353
0.0097897656
0.009885183
0.010083869
0.010336022
0.010643874
0.011006997
0.011423095
0.011891786
0.012414796
0.012995485
0.013638835
0.014351897
0.015144314
0.016029753
0.017026401
0.018163038
0.019473934
0.021034851
0.022897825
0.025354135
0.028308223
0.033455072
0.038389269
0.079198525
0.048500359
-0.0030151593
-0.0031614245
-0.0013630289
-0.00064760463
1.6273233e-05
0.00045482529
0.00078128497
0.0010326327
0.0012251989
0.0013758014
0.0014973768
0.0015976343
0.0016815137
0.0017525945
0.0018136572
0.0018666602
0.0019130238
0.0019538689
0.0019900684
0.0020223062
0.0020511261
0.0020769675
0.0021001898
0.0021210867
0.0021399081
0.0021568521
0.0021720805
0.0021857573
0.0021980159
0.0022089525
0.0022186553
0.0022272046
0.0022346688
0.00224111
0.0022465788
0.0022511267
0.0022547988
0.0022576173
0.0022596074
0.0022607951
0.0022612009
0.0022608421
0.0022597355
0.0022578928
0.0022553331
0.0022520604
0.0022480636
0.0022433488
0.0022379191
0.0022317725
0.0022249049
0.0022173131
0.0022089911
0.0021999392
0.0021901415
0.0021795713
0.0021682202
0.002156074
0.0021431144
0.0021293213
0.0021146736
0.0020991485
0.0020827276
0.0020653742
0.0020470439
0.0020277083
0.0020073304
0.0019858681
0.0019632771
0.0019395049
0.0019145081
0.001888228
0.0018605827
0.0018315044
0.0018009189
0.0017687396
0.0017348735
0.0016992131
0.0016616544
0.0016220636
0.0015802783
0.0015361445
0.0014894745
0.0014400503
0.0013876215
0.0013318725
0.0012724268
0.0012085771
0.0011415863
0.0010750505
0.0010108555
0.00094875183
0.00088824529
0.00082910441
0.00077122102
0.00071453642
0.00065904351
0.00060477147
0.00055179426
0.0005002322
0.00045023436
0.00040201935
0.00035587736
0.00031226817
0.00027166585
0.00023533113
0.00020355528
0.00018194502
0.00016403672
0.0002898319
-0.00026643319
0.0097897656
0.0098851833
0.010083869
0.010336022
0.010643874
0.011006998
0.011423096
0.011891787
0.012414798
0.012995487
0.013638838
0.014351901
0.015144319
0.01602976
0.01702641
0.01816305
0.019473952
0.021034877
0.02289786
0.025354196
0.028308305
0.03345524
0.038389368
0.079177409
0.048535677
-0.002999223
-0.0031567226
-0.0013608817
-0.00064636253
1.7138974e-05
0.00045547075
0.00078179054
0.0010330418
0.0012255379
0.0013760877
0.0014976221
0.0015978472
0.0016817002
0.0017527592
0.0018138038
0.0018667916
0.0019131421
0.001953976
0.0019901658
0.0020223951
0.0020512076
0.0020770424
0.0021002589
0.0021211506
0.0021399673
0.0021569071
0.0021721317
0.0021858051
0.0021980605
0.0022089943
0.0022186944
0.0022272414
0.0022347034
0.0022411426
0.0022466095
0.0022511557
0.0022548262
0.0022576432
0.0022596319
0.0022608183
0.002261223
0.002260863
0.0022597554
0.0022579117
0.0022553511
0.0022520775
0.0022480798
0.0022433643
0.0022379339
0.0022317865
0.0022249183
0.0022173259
0.0022090033
0.0021999508
0.0021901526
0.0021795819
0.0021682303
0.0021560837
0.0021431236
0.0021293301
0.002114682
0.0020991566
0.0020827353
0.0020653815
0.0020470509
0.002027715
0.0020073368
0.0019858742
0.0019632829
0.0019395104
0.0019145134
0.001888233
0.0018605875
0.0018315089
0.0018009232
0.0017687437
0.0017348773
0.0016992167
0.0016616579
0.0016220669
0.0015802814
0.0015361474
0.0014894773
0.0014400529
0.0013876239
0.0013318748
0.0012724289
0.0012085791
0.0011415881
0.0010750522
0.001010857
0.00094875325
0.0008882466
0.00082910562
0.00077122216
0.00071453749
0.00065904451
0.00060477241
0.00055179515
0.00050023304
0.00045023515
0.0004020201
0.00035587807
0.00031226885
0.00027166651
0.00023533176
0.00020355589
0.00018194562
0.00016403729
0.00028983255
-0.00026643278
0.0097897656
0.0098851836
0.01008387
0.010336023
0.010643875
0.011006999
0.011423097
0.011891788
0.0124148
0.01299549
0.013638841
0.014351906
0.015144325
0.016029769
0.017026421
0.018163065
0.019473972
0.021034907
0.022897902
0.025354267
0.028308402
0.033455437
0.03838949
0.079152448
0.048573476
-0.0029812709
-0.0031514162
-0.001358451
-0.00064495308
1.8121117e-05
0.00045620318
0.0007823644
0.0010335063
0.0012259229
0.001376413
0.001497901
0.0015980891
0.0016819122
0.0017529465
0.0018139706
0.001866941
0.0019132767
0.001954098
0.0019902767
0.0020224964
0.0020513004
0.0020771278
0.0021003376
0.0021212234
0.0021400347
0.0021569698
0.0021721901
0.0021858596
0.0021981114
0.002209042
0.0022187392
0.0022272834
0.0022347429
0.0022411798
0.0022466446
0.0022511888
0.0022548575
0.0022576728
0.0022596599
0.0022608449
0.0022612481
0.0022608869
0.002259778
0.0022579332
0.0022553716
0.002252097
0.0022480984
0.002243382
0.0022379507
0.0022318026
0.0022249336
0.0022173405
0.0022090172
0.0021999641
0.0021901653
0.002179594
0.0021682419
0.0021560947
0.0021431341
0.0021293402
0.0021146916
0.0020991658
0.0020827441
0.0020653899
0.0020470588
0.0020277226
0.0020073441
0.0019858811
0.0019632895
0.0019395167
0.0019145194
0.0018882387
0.0018605929
0.0018315141
0.0018009281
0.0017687483
0.0017348818
0.0016992209
0.0016616618
0.0016220706
0.0015802849
0.0015361508
0.0014894804
0.0014400559
0.0013876267
0.0013318774
0.0012724313
0.0012085814
0.0011415902
0.0010750541
0.0010108588
0.00094875487
0.00088824811
0.00082910703
0.00077122347
0.00071453871
0.00065904566
0.0006047735
0.00055179617
0.00050023401
0.00045023607
0.00040202097
0.0003558789
0.00031226964
0.00027166726
0.00023533249
0.00020355659
0.00018194632
0.00016403794
0.0002898333
-0.00026643232
0.0097897657
0.0098851839
0.01008387
0.010336024
0.010643876
0.011007
0.011423098
0.01189179
0.012414802
0.012995493
0.013638845
0.014351911
0.015144332
0.016029778
0.017026434
0.018163083
0.019473997
0.021034943
0.02289795
0.02535435
0.028308515
0.033455667
0.038389641
0.079122859
0.048613664
-0.0029609892
-0.0031454181
-0.0013556952
-0.00064335109
1.9237137e-05
0.00045703567
0.00078301683
0.0010340345
0.0012263609
0.001376783
0.0014982184
0.0015983645
0.0016821536
0.0017531599
0.0018141607
0.0018671113
0.0019134302
0.001954237
0.0019904032
0.0020226119
0.0020514063
0.0020772252
0.0021004274
0.0021213065
0.0021401118
0.0021570414
0.0021722568
0.0021859218
0.0021981696
0.0022090965
0.0022187903
0.0022273314
0.002234788
0.0022412224
0.0022466847
0.0022512266
0.0022548933
0.0022577066
0.002259692
0.0022608752
0.0022612769
0.0022609142
0.002259804
0.0022579579
0.002255395
0.0022521193
0.0022481196
0.0022434022
0.00223797
0.0022318209
0.0022249511
0.0022173572