/*--------------------------------*- C++ -*----------------------------------*\
| =========                 |                                                 |
| \\      /  F ield         | OpenFOAM: The Open Source CFD Toolbox           |
|  \\    /   O peration     | Version:  2206                                  |
|   \\  /    A nd           | Website:  www.openfoam.com                      |
|    \\/     M anipulation  |                                                 |
\*---------------------------------------------------------------------------*/
FoamFile
{
    version     2.0;
    format      ascii;
    arch        "LSB;label=32;scalar=64";
    class       surfaceScalarField;
    location    "500";
    object      phi;
}
// * * * * * * * * * * * * * * * * * * * * * * * * * * * * * * * * * * * * * //

dimensions      [0 3 -1 0 0 0 0];

oriented        oriented;

internalField   nonuniform List<scalar> 
25880
(
2.0046494e-06
4.7445331e-12
2.0046393e-06
1.0133826e-11
2.0046276e-06
1.163378e-11
2.0046146e-06
1.3058323e-11
2.0045993e-06
1.5252254e-11
2.0045815e-06
1.7838615e-11
2.0045606e-06
2.0879811e-11
2.004536e-06
2.4558893e-11
2.004507e-06
2.9049956e-11
2.0044724e-06
3.4557384e-11
2.0044311e-06
4.1358276e-11
2.0043812e-06
4.9874586e-11
2.0043206e-06
6.0655574e-11
2.0042458e-06
7.4750642e-11
2.0041527e-06
9.3146727e-11
2.0040331e-06
1.1951874e-10
2.0038792e-06
1.5398077e-10
2.0036633e-06
2.1586214e-10
2.0033788e-06
2.8452606e-10
2.0028886e-06
4.9018278e-10
2.0022701e-06
6.1847518e-10
2.0007617e-06
1.5084123e-09
2.0004939e-06
2.6780964e-10
1.0041846e-06
9.9630927e-07
4.6836212e-09
9.99501e-07
2.5085288e-09
2.1750923e-09
2.0747751e-09
4.3375366e-10
1.8793599e-09
1.9541514e-10
1.7671299e-09
1.1222994e-10
1.6880434e-09
7.9086495e-11
1.6286238e-09
5.9419669e-11
1.5817206e-09
4.6903194e-11
1.543456e-09
3.8264545e-11
1.5114839e-09
3.197206e-11
1.4842535e-09
2.7230483e-11
1.4607088e-09
2.3544644e-11
1.4401032e-09
2.0605559e-11
1.4218842e-09
1.8219075e-11
1.4056315e-09
1.6252662e-11
1.391021e-09
1.4610514e-11
1.377798e-09
1.3222929e-11
1.3657592e-09
1.2038818e-11
1.3547397e-09
1.1019525e-11
1.3446045e-09
1.0135213e-11
1.3352419e-09
9.3626292e-12
1.3265584e-09
8.6834295e-12
1.3184755e-09
8.0829551e-12
1.3109261e-09
7.5493593e-12
1.3038531e-09
7.0729778e-12
1.2972073e-09
6.6458543e-12
1.2909459e-09
6.2613862e-12
1.2850318e-09
5.9140608e-12
1.2794326e-09
5.5992416e-12
1.2741196e-09
5.3130046e-12
1.2690675e-09
5.0520172e-12
1.2642541e-09
4.8134289e-12
1.2596593e-09
4.5947865e-12
1.2552654e-09
4.3939708e-12
1.2510562e-09
4.209144e-12
1.2470175e-09
4.0386941e-12
1.2431363e-09
3.8811979e-12
1.2394009e-09
3.735422e-12
1.2358006e-09
3.6002926e-12
1.2323258e-09
3.4748474e-12
1.2289675e-09
3.3582141e-12
1.2257179e-09
3.2496797e-12
1.2225693e-09
3.1485329e-12
1.2195152e-09
3.0541442e-12
1.2165492e-09
2.966008e-12
1.2136656e-09
2.8836021e-12
1.2108591e-09
2.8065026e-12
1.2081247e-09
2.7343199e-12
1.2054581e-09
2.6666884e-12
1.2028548e-09
2.6032775e-12
1.200311e-09
2.5437876e-12
1.197823e-09
2.4879494e-12
1.1953875e-09
2.4355246e-12
1.1930012e-09
2.3862741e-12
1.1906613e-09
2.3399625e-12
1.1883649e-09
2.296419e-12
1.1861094e-09
2.2555009e-12
1.1838923e-09
2.2170351e-12
1.1817115e-09
2.1808594e-12
1.1795646e-09
2.1468448e-12
1.1774497e-09
2.1148646e-12
1.175365e-09
2.0847928e-12
1.1733084e-09
2.0565756e-12
1.1712784e-09
2.0300204e-12
1.1692733e-09
2.0050145e-12
1.1672918e-09
1.9815899e-12
1.1653321e-09
1.9596232e-12
1.1633931e-09
1.9390203e-12
1.1614734e-09
1.9197141e-12
1.1595717e-09
1.9016462e-12
1.157687e-09
1.8847618e-12
1.155818e-09
1.8689877e-12
1.1539637e-09
1.854248e-12
1.1521232e-09
1.8405126e-12
1.1502955e-09
1.8277567e-12
1.1484796e-09
1.8159245e-12
1.1466746e-09
1.8049624e-12
1.1448798e-09
1.7948349e-12
1.1430942e-09
1.7855061e-12
1.1413173e-09
1.7769198e-12
1.1395483e-09
1.7690313e-12
1.1377865e-09
1.7618188e-12
1.1360312e-09
1.7552319e-12
1.134282e-09
1.7491955e-12
1.1325385e-09
1.7435904e-12
1.1308001e-09
1.7383248e-12
1.1290678e-09
1.7322958e-12
1.1273402e-09
1.7276654e-12
1.1256305e-09
1.7097126e-12
1.1240333e-09
1.5972045e-12
1.1225826e-09
1.4506586e-12
1.1212584e-09
1.3241867e-12
1.1200434e-09
1.2149916e-12
1.1189227e-09
1.1207479e-12
1.1178841e-09
1.0385658e-12
1.1169181e-09
9.660206e-13
1.1160166e-09
9.0142875e-13
1.1151731e-09
8.4356913e-13
1.1143816e-09
7.91481e-13
1.1136372e-09
7.4439335e-13
1.1129355e-09
7.0170204e-13
1.1122726e-09
6.6292547e-13
1.1116449e-09
6.2771353e-13
1.1110491e-09
5.9574276e-13
1.110482e-09
5.6710868e-13
1.1099408e-09
5.4120195e-13
1.1094199e-09
5.2086952e-13
1.1089205e-09
4.9942607e-13
1.108421e-09
4.9954955e-13
1.107957e-09
4.6400088e-13
1.1074249e-09
5.3209439e-13
3.3035617e-13
2.0345232e-06
9.6352183e-12
2.0345127e-06
2.0587848e-11
2.0345007e-06
2.3643714e-11
2.0344872e-06
2.6540148e-11
2.0344715e-06
3.0997151e-11
2.0344531e-06
3.624999e-11
2.0344315e-06
4.2425193e-11
2.0344062e-06
4.9894212e-11
2.0343762e-06
5.9010171e-11
2.0343406e-06
7.018748e-11
2.034298e-06
8.3987944e-11
2.0342466e-06
1.0126704e-10
2.0341841e-06
1.2313821e-10
2.0341071e-06
1.5172886e-10
2.0340112e-06
1.8903913e-10
2.0338882e-06
2.4251837e-10
2.0337298e-06
3.123947e-10
2.0335078e-06
4.3784643e-10
2.0332153e-06
5.7703125e-10
2.0327117e-06
9.9383662e-10
2.0320762e-06
1.2539876e-09
2.0305264e-06
3.0581247e-09
2.0302498e-06
5.4442935e-10
1.0257731e-06
2.000786e-06
1.4288946e-08
2.0109852e-06
7.6707248e-09
8.7933137e-09
6.3430318e-09
1.7614467e-09
5.7445952e-09
7.9385174e-10
5.4008378e-09
4.5598731e-10
5.1586006e-09
3.2132361e-10
4.9766001e-09
2.4142015e-10
4.8329351e-09
1.9056825e-10
4.715728e-09
1.5547166e-10
4.6177933e-09
1.2990668e-10
4.5343812e-09
1.106426e-10
4.462258e-09
9.566786e-11
4.3991365e-09
8.3727049e-11
4.3433243e-09
7.4031269e-11
4.2935349e-09
6.6042077e-11
4.2487751e-09
5.9370264e-11
4.2082654e-09
5.3732656e-11
4.1713825e-09
4.892169e-11
4.1376217e-09
4.4780322e-11
4.1065696e-09
4.1187336e-11
4.077884e-09
3.8048274e-11
4.0512788e-09
3.5288603e-11
4.026513e-09
3.2848773e-11
4.0033817e-09
3.0680656e-11
3.9817097e-09
2.874499e-11
3.9613461e-09
2.7009452e-11
3.9421602e-09
2.5447217e-11
3.9240384e-09
2.4035888e-11
3.906881e-09
2.275663e-11
3.8906005e-09
2.1593501e-11
3.8751196e-09
2.0532962e-11
3.8603696e-09
1.956343e-11
3.8462894e-09
1.867494e-11
3.8328245e-09
1.7858882e-11
3.8199258e-09
1.7107789e-11
3.8075494e-09
1.6415111e-11
3.7956556e-09
1.5775068e-11
3.7842083e-09
1.5182647e-11
3.7731751e-09
1.4633485e-11
3.7625263e-09
1.4123674e-11
3.7522348e-09
1.3649672e-11
3.742276e-09
1.3208569e-11
3.732627e-09
1.2797492e-11
3.7232673e-09
1.2413884e-11
3.7141776e-09
1.2055672e-11
3.7053404e-09
1.1720749e-11
3.6967396e-09
1.140739e-11
3.6883599e-09
1.1114011e-11
3.6801874e-09
1.0839126e-11
3.6722093e-09
1.0581394e-11
3.6644135e-09
1.0339596e-11
3.6567888e-09
1.0112637e-11
3.6493248e-09
9.8995516e-12
3.6420117e-09
9.6993658e-12
3.6348405e-09
9.5111246e-12
3.6278028e-09
9.3341332e-12
3.6208905e-09
9.1678115e-12
3.6140961e-09
9.0114573e-12
3.6074125e-09
8.8644114e-12
3.6008332e-09
8.726149e-12
3.5943519e-09
8.596156e-12
3.5879628e-09
8.4739205e-12
3.5816602e-09
8.3592227e-12
3.5754389e-09
8.2512822e-12
3.5692943e-09
8.1496401e-12
3.5632214e-09
8.0544254e-12
3.5572159e-09
7.9651381e-12
3.5512735e-09
7.8813957e-12
3.5453903e-09
7.8029255e-12
3.5395625e-09
7.7294902e-12
3.5337864e-09
7.6608678e-12
3.5280586e-09
7.5967601e-12
3.522376e-09
7.53686e-12
3.5167355e-09
7.4810439e-12
3.511134e-09
7.4292118e-12
3.5055688e-09
7.3811371e-12
3.5000372e-09
7.3366024e-12
3.4945365e-09
7.2954635e-12
3.4890645e-09
7.2575748e-12
3.4836187e-09
7.2227079e-12
3.478197e-09
7.1906816e-12
3.4727974e-09
7.1614072e-12
3.467418e-09
7.1346804e-12
3.462057e-09
7.110197e-12
3.4567131e-09
7.0874729e-12
3.4513853e-09
7.0661352e-12
3.4460759e-09
7.0417104e-12
3.4407806e-09
7.0229632e-12
3.43554e-09
6.9502319e-12
3.4306439e-09
6.4933741e-12
3.4261964e-09
5.8980885e-12
3.4221364e-09
5.3842531e-12
3.4184108e-09
4.9405435e-12
3.414974e-09
4.5575391e-12
3.4117891e-09
4.2235213e-12
3.4088264e-09
3.9286512e-12
3.4060618e-09
3.6660936e-12
3.4034745e-09
3.43089e-12
3.4010468e-09
3.2191388e-12
3.3987635e-09
3.0277083e-12
3.396611e-09
2.8541444e-12
3.3945775e-09
2.6964908e-12
3.3926519e-09
2.5533251e-12
3.3908243e-09
2.4233331e-12
3.3890845e-09
2.3069036e-12
3.3874241e-09
2.201559e-12
3.3858261e-09
2.1188715e-12
3.3842939e-09
2.0316635e-12
3.3827613e-09
2.0321296e-12
3.3813383e-09
1.886964e-12
3.3797027e-09
2.1677741e-12
1.3392746e-12
2.0947159e-06
1.4769486e-11
2.094705e-06
3.1573591e-11
2.0946923e-06
3.6276174e-11
2.0946781e-06
4.0722467e-11
2.0946616e-06
4.7557447e-11
2.0946422e-06
5.5610355e-11
2.0946196e-06
6.5074731e-11
2.094593e-06
7.6519446e-11
2.0945615e-06
9.0485001e-11
2.0945241e-06
1.0760546e-10
2.0944793e-06
1.287403e-10
2.0944254e-06
1.5519825e-10
2.0943598e-06
1.8868242e-10
2.0942791e-06
2.3244706e-10
2.0941786e-06
2.8955052e-10
2.0940497e-06
3.7138694e-10
2.0938838e-06
4.7829877e-10
2.0936515e-06
6.7020506e-10
2.0933454e-06
8.830826e-10
2.0928188e-06
1.5204616e-09
2.0921543e-06
1.9185e-09
2.0905341e-06
4.6783267e-09
2.0902439e-06
8.3464983e-10
1.0630455e-06
3.0279844e-06
2.4701145e-08
3.0493295e-06
1.3281556e-08
2.0212903e-08
1.0979245e-08
4.0637579e-09
9.9410018e-09
1.8320944e-09
9.3444359e-09
1.0525533e-09
8.9240648e-09
7.4169471e-10
8.6082188e-09
5.5726613e-10
8.358893e-09
4.3989408e-10
8.1554777e-09
3.5888699e-10
7.9855047e-09
2.9987962e-10
7.840732e-09
2.5541534e-10
7.7155484e-09
2.2085145e-10
7.6059852e-09
1.9329024e-10
7.5091058e-09
1.7091068e-10
7.4226779e-09
1.5246998e-10
7.3449783e-09
1.3706986e-10
7.2746542e-09
1.2405677e-10
7.2106242e-09
1.1295163e-10
7.1520126e-09
1.0339197e-10
7.0981019e-09
9.5098044e-11
7.0482983e-09
8.7851823e-11
7.0021056e-09
8.1481293e-11
6.9591054e-09
7.5849009e-11
6.9189422e-09
7.0843889e-11
6.8813119e-09
6.6375313e-11
6.8459526e-09
6.2368682e-11
6.8126378e-09
5.8762079e-11
6.7811698e-09
5.5503808e-11
6.7513761e-09
5.2550399e-11
6.7231045e-09
4.9865055e-11
6.696221e-09
4.7416523e-11
6.6706063e-09
4.5178072e-11
6.6461546e-09
4.3126699e-11
6.6227709e-09
4.1242528e-11
6.6003704e-09
3.9508327e-11
6.5788765e-09
3.7908977e-11
6.5582204e-09
3.6431133e-11
6.5383399e-09
3.5063228e-11
6.5191782e-09
3.3795191e-11
6.5006838e-09
3.2617997e-11
6.48281e-09
3.1523478e-11
6.4655137e-09
3.0504897e-11
6.4487555e-09
2.9555644e-11
6.4324996e-09
2.8669822e-11
6.4167127e-09
2.7842617e-11
6.4013642e-09
2.7069185e-11
6.3864261e-09
2.634554e-11
6.3718721e-09
2.5668025e-11
6.357678e-09
2.5033213e-11
6.3438214e-09
2.4438003e-11
6.3302814e-09
2.3879585e-11
6.3170386e-09
2.3355433e-11
6.3040748e-09
2.2863313e-11
6.2913732e-09
2.240098e-11
6.2789181e-09
2.196623e-11
6.2666948e-09
2.1557457e-11
6.2546893e-09
2.1173322e-11
6.2428885e-09
2.0812207e-11
6.2312803e-09
2.0472588e-11
6.2198532e-09
2.0153254e-11
6.2085964e-09
1.9853018e-11
6.1974996e-09
1.9570701e-11
6.186553e-09
1.9305791e-11
6.1757478e-09
1.905649e-11
6.1650757e-09
1.882174e-11
6.1545283e-09
1.8601835e-11
6.1440978e-09
1.8395623e-11
6.133777e-09
1.8202221e-11
6.1235589e-09
1.8021001e-11
6.113437e-09
1.7851414e-11
6.1034049e-09
1.7692947e-11
6.0934568e-09
1.7544914e-11
6.083587e-09
1.7406606e-11
6.0737903e-09
1.7277736e-11
6.0640615e-09
1.7158076e-11
6.0543955e-09
1.7047101e-11
6.0447878e-09
1.6944312e-11
6.0352339e-09
1.6849375e-11
6.0257295e-09
1.6761954e-11
6.0162707e-09
1.6681524e-11
6.0068537e-09
1.6607666e-11
5.9974749e-09
1.6540176e-11
5.988131e-09
1.6478584e-11
5.978819e-09
1.6422188e-11
5.9695366e-09
1.6369873e-11
5.960282e-09
1.6320779e-11
5.9510591e-09
1.62646e-11
5.9418606e-09
1.622151e-11
5.9327566e-09
1.6054224e-11
5.9242496e-09
1.5000393e-11
5.916521e-09
1.3626633e-11
5.9094647e-09
1.2440564e-11
5.9029891e-09
1.1416168e-11
5.8970148e-09
1.0531784e-11
5.8914779e-09
9.7604252e-12
5.8863272e-09
9.0794137e-12
5.8815203e-09
8.472987e-12
5.8770214e-09
7.9297071e-12
5.8728e-09
7.4405723e-12
5.8688294e-09
6.9983565e-12
5.8650861e-09
6.5973968e-12
5.8615494e-09
6.2331779e-12
5.8582003e-09
5.9024173e-12
5.8550216e-09
5.6020822e-12
5.8519954e-09
5.3330714e-12
5.8491073e-09
5.0896662e-12
5.8463276e-09
4.8985855e-12
5.8436622e-09
4.6970892e-12
5.8409963e-09
4.6980458e-12
5.8385213e-09
4.3619079e-12
5.8356734e-09
5.0156496e-12
3.0913409e-12
2.1861247e-06
2.0255338e-11
2.186113e-06
4.3326193e-11
2.1860995e-06
4.9805788e-11
2.1860843e-06
5.5914186e-11
2.1860665e-06
6.5292913e-11
2.1860458e-06
7.6338803e-11
2.1860216e-06
8.9316581e-11
2.1859931e-06
1.0500558e-10
2.1859594e-06
1.2414579e-10
2.1859194e-06
1.4760492e-10
2.1858716e-06
1.7655894e-10
2.185814e-06
2.1279849e-10
2.185744e-06
2.5865338e-10
2.1856579e-06
3.185757e-10
2.1855507e-06
3.9674743e-10
2.1854133e-06
5.0875507e-10
2.1852366e-06
6.5505626e-10
2.1849892e-06
9.1760713e-10
2.1846635e-06
1.208788e-09
2.1841035e-06
2.0804455e-09
2.1833969e-06
2.6251261e-09
2.1816743e-06
6.4008779e-09
2.1813643e-06
1.1446303e-09
1.1168722e-06
4.0924765e-06
3.6530966e-08
4.1296707e-06
1.9668341e-08
3.7075527e-08
1.6251273e-08
7.480826e-09
1.470933e-08
3.3740374e-09
1.3822989e-08
1.9388949e-09
1.3198456e-08
1.366227e-09
1.2729195e-08
1.0265271e-09
1.2358746e-08
8.1034322e-10
1.2056497e-08
6.6113656e-10
1.1803926e-08
5.5245053e-10
1.158879e-08
4.70551e-10
1.1402755e-08
4.0688682e-10
1.1239924e-08
3.5612063e-10
1.1095937e-08
3.1489813e-10
1.0967477e-08
2.8093024e-10
1.0851984e-08
2.525626e-10
1.0747449e-08
2.285915e-10
1.0652266e-08
2.0813456e-10
1.0565134e-08
1.9052423e-10
1.0484987e-08
1.7524523e-10
1.0410943e-08
1.6189602e-10
1.0342264e-08
1.501598e-10
1.027833e-08
1.3978339e-10
1.0218611e-08
1.3056222e-10
1.0162657e-08
1.2232937e-10
1.0110079e-08
1.1494745e-10
1.0060538e-08
1.0830241e-10
1.0013743e-08
1.0229904e-10
9.9694361e-09
9.6857256e-11
9.9273919e-09
9.1909295e-11
9.8874108e-09
8.7397584e-11
9.849316e-09
8.3272885e-11
9.8129499e-09
7.9492827e-11
9.7781716e-09
7.60208e-11
9.7448548e-09
7.2825063e-11
9.7128861e-09
6.9877764e-11
9.6821629e-09
6.7154319e-11
9.6525927e-09
6.4633426e-11
9.6240913e-09
6.229653e-11
9.5965823e-09
6.0127007e-11
9.569996e-09
5.810982e-11
9.5442684e-09
5.623252e-11
9.519341e-09
5.448298e-11
9.4951605e-09
5.2850333e-11
9.4716775e-09
5.1325668e-11
9.4488465e-09
4.9900093e-11
9.4266258e-09
4.8566257e-11
9.4049764e-09
4.7317428e-11
9.3838624e-09
4.6147288e-11
9.3632502e-09
4.5050128e-11
9.343109e-09
4.4020771e-11
9.3234099e-09
4.3054561e-11
9.3041258e-09
4.2147384e-11
9.2852317e-09
4.1295106e-11
9.2667043e-09
4.0493663e-11
9.2485216e-09
3.9740097e-11
9.230663e-09
3.9031943e-11
9.213109e-09
3.8366219e-11
9.1958415e-09
3.774012e-11
9.1788433e-09
3.7151414e-11
9.1620984e-09
3.6597915e-11
9.1455917e-09
3.607745e-11
9.1293084e-09
3.5589075e-11
9.1132354e-09
3.5129481e-11
9.0973604e-09
3.469672e-11
9.0816709e-09
3.4291326e-11
9.0661554e-09
3.3911186e-11
9.0508029e-09
3.3554672e-11
9.0356033e-09
3.3220623e-11
9.0205467e-09
3.2908033e-11
9.0056237e-09
3.2615957e-11
8.9908254e-09
3.2343131e-11
8.9761438e-09
3.2088248e-11
8.9615708e-09
3.1850782e-11
8.9470985e-09
3.1630311e-11
8.9327197e-09
3.1425874e-11
8.9184275e-09
3.1236547e-11
8.9042152e-09
3.106172e-11
8.8900763e-09
3.0900775e-11
8.8760051e-09
3.0752744e-11
8.8619959e-09
3.0616858e-11
8.8480434e-09
3.0492741e-11
8.8341424e-09
3.0379532e-11
8.8202887e-09
3.027594e-11
8.8064786e-09
3.0179915e-11
8.7927095e-09
3.0089873e-11
8.7789873e-09
2.9986878e-11
8.7653008e-09
2.9907955e-11
8.7517537e-09
2.9601282e-11
8.7390923e-09
2.7661817e-11
8.7275869e-09
2.5132022e-11
8.7170803e-09
2.2947163e-11
8.7074369e-09
2.1059641e-11
8.6985389e-09
1.942975e-11
8.6902914e-09
1.8007947e-11
8.6826183e-09
1.6752535e-11
8.6754567e-09
1.5634513e-11
8.6687536e-09
1.463283e-11
8.6624633e-09
1.3730914e-11
8.6565462e-09
1.2915463e-11
8.6509675e-09
1.2176046e-11
8.6456963e-09
1.150435e-11
8.6407044e-09
1.0894329e-11
8.6359661e-09
1.0340399e-11
8.631455e-09
9.8442199e-12
8.6271494e-09
9.395262e-12
8.6230052e-09
9.0427575e-12
8.6190311e-09
8.6711459e-12
8.6150566e-09
8.6726262e-12
8.6113667e-09
8.0517705e-12
8.6071185e-09
9.2638375e-12
5.7021446e-12
2.3101117e-06
2.6215754e-11
2.3100989e-06
5.6114398e-11
2.3100842e-06
6.4547453e-11
2.3100676e-06
7.2469641e-11
2.3100483e-06
8.4616016e-11
2.3100257e-06
9.8915454e-11
2.3099993e-06
1.1570947e-10
2.3099683e-06
1.3600545e-10
2.3099317e-06
1.6075927e-10
2.3098882e-06
1.9109112e-10
2.3098363e-06
2.2851887e-10
2.3097737e-06
2.7535378e-10
2.3096978e-06
3.3460232e-10
2.3096043e-06
4.120102e-10
2.3094881e-06
5.1297134e-10
2.3093393e-06
6.5759872e-10
2.3091479e-06
8.4646618e-10
2.3088802e-06
1.1853163e-09
2.3085279e-06
1.5610223e-09
2.3079229e-06
2.6854496e-09
2.3071595e-06
3.3885879e-09
2.3052988e-06
8.2615165e-09
2.3049621e-06
1.4813995e-09
1.1884081e-06
5.2090304e-06
5.0467212e-08
5.2676116e-06
2.7202354e-08
6.0340384e-08
2.2462229e-08
1.222095e-08
2.0321495e-08
5.5147717e-09
1.9090345e-08
3.1700452e-09
1.8222903e-08
2.2336692e-09
1.757109e-08
1.6783393e-09
1.7056492e-08
1.3249413e-09
1.6636604e-08
1.0810245e-09
1.6285707e-08
9.0334816e-10
1.5986797e-08
7.694605e-10
1.5728301e-08
6.6538253e-10
1.5502033e-08
5.8238901e-10
1.5301935e-08
5.1499625e-10
1.5123403e-08
4.594623e-10
1.4962883e-08
4.1308299e-10
1.4817583e-08
3.7389073e-10
1.4685275e-08
3.4044316e-10
1.456415e-08
3.1164906e-10
1.4452729e-08
2.8666615e-10
1.4349787e-08
2.6483808e-10
1.42543e-08
2.4564694e-10
1.4165404e-08
2.2867892e-10
1.4082367e-08
2.1359958e-10
1.400456e-08
2.0013606e-10
1.3931444e-08
1.8806376e-10
1.386255e-08
1.7719626e-10
1.3797471e-08
1.6737788e-10
1.3735851e-08
1.5847773e-10
1.3677375e-08
1.5038502e-10
1.3621767e-08
1.4300562e-10
1.3568781e-08
1.3625904e-10
1.3518198e-08
1.3007601e-10
1.3469822e-08
1.2439667e-10
1.3423478e-08
1.1916913e-10
1.3379008e-08
1.1434785e-10
1.3336269e-08
1.0989263e-10
1.3295134e-08
1.0576866e-10
1.3255485e-08
1.0194559e-10
1.3217216e-08
9.8396249e-11
1.318023e-08
9.5096052e-11
1.3144437e-08
9.20246e-11
1.3109758e-08
8.9162124e-11
1.3076118e-08
8.6490866e-11
1.3043447e-08
8.3996181e-11
1.3011684e-08
8.1663574e-11
1.2980769e-08
7.9481022e-11
1.2950649e-08
7.7437519e-11
1.2921273e-08
7.5522735e-11
1.2892596e-08
7.3727333e-11
1.2864574e-08
7.2042846e-11
1.2837167e-08
7.0461663e-11
1.2810337e-08
6.8977058e-11
1.278405e-08
6.7582271e-11
1.2758273e-08
6.6270654e-11
1.2732976e-08
6.5037365e-11
1.270813e-08
6.3878382e-11
1.2683707e-08
6.278883e-11
1.2659683e-08
6.176412e-11
1.2636034e-08
6.0800601e-11
1.2612737e-08
5.9894702e-11
1.2589772e-08
5.9042874e-11
1.2567117e-08
5.824356e-11
1.2544755e-08
5.7491362e-11
1.2522669e-08
5.6783098e-11
1.250084e-08
5.6119627e-11
1.2479254e-08
5.5497507e-11
1.2457895e-08
5.4914073e-11
1.2436748e-08
5.4367429e-11
1.24158e-08
5.385593e-11
1.2395038e-08
5.3378035e-11
1.2374449e-08
5.2931675e-11
1.2354023e-08
5.2514714e-11
1.2333747e-08
5.2126294e-11
1.2313612e-08
5.1765729e-11
1.2293606e-08
5.1431448e-11
1.2273721e-08
5.1121945e-11
1.2253947e-08
5.083622e-11
1.2234274e-08
5.0573269e-11
1.2214695e-08
5.033151e-11
1.2195202e-08
5.0109689e-11
1.2175788e-08
4.9907196e-11
1.2156445e-08
4.9722626e-11
1.2137167e-08
4.9553874e-11
1.2117949e-08
4.9397599e-11
1.2098788e-08
4.9251214e-11
1.2079691e-08
4.9083858e-11
1.2060643e-08
4.8955771e-11
1.2041787e-08
4.8457499e-11
1.2024159e-08
4.5290253e-11
1.2008135e-08
4.1155709e-11
1.1993499e-08
3.7583423e-11
1.1980062e-08
3.4496245e-11
1.1967662e-08
3.1829734e-11
1.1956167e-08
2.9503192e-11
1.1945471e-08
2.744862e-11
1.1935486e-08
2.5618679e-11
1.192614e-08
2.3978991e-11
1.1917369e-08
2.2502484e-11
1.1909117e-08
2.1167418e-11
1.1901336e-08
1.9956751e-11
1.1893984e-08
1.8856893e-11
1.188702e-08
1.7857966e-11
1.1880409e-08
1.6950845e-11
1.1874115e-08
1.6138253e-11
1.1868108e-08
1.5402988e-11
1.1862325e-08
1.4825575e-11
1.1856779e-08
1.4217111e-11
1.1851233e-08
1.4218984e-11
1.1846083e-08
1.3201085e-11
1.1840152e-08
1.5194746e-11
9.3451155e-12
2.4685246e-06
3.2794043e-11
2.4685105e-06
7.0252625e-11
2.4684941e-06
8.0870876e-11
2.4684758e-06
9.0805028e-11
2.4684544e-06
1.0601096e-10
2.4684294e-06
1.2390349e-10
2.4684002e-06
1.4490814e-10
2.4683659e-06
1.7028327e-10
2.4683255e-06
2.0122187e-10
2.4682774e-06
2.3912109e-10
2.4682201e-06
2.8587371e-10
2.4681511e-06
3.4436172e-10
2.4680673e-06
4.183331e-10
2.4679644e-06
5.1495141e-10
2.4678364e-06
6.4093687e-10
2.4676727e-06
8.2136223e-10
2.4674622e-06
1.0569182e-09
2.4671681e-06
1.4794018e-09
2.4667815e-06
1.9476995e-09
2.4661181e-06
3.3488588e-09
2.4652809e-06
4.2257842e-09
2.4632412e-06
1.0301221e-08
2.4628694e-06
1.8531437e-09
1.2791298e-06
6.3927701e-06
6.7316124e-08
6.4794253e-06
3.6319791e-08
9.1336718e-08
2.9967179e-08
1.8573562e-08
2.7095308e-08
8.3866425e-09
2.5442698e-08
4.8226557e-09
2.4278377e-08
3.3979901e-09
2.3403428e-08
2.5532874e-09
2.2712602e-08
2.0157673e-09
2.2148875e-08
1.6447524e-09
2.1677731e-08
1.3744922e-09
2.1276355e-08
1.1708364e-09
2.0929216e-08
1.0125215e-09
2.0625328e-08
8.8627617e-10
2.0356566e-08
7.8375902e-10
2.0116749e-08
6.992786e-10
1.990111e-08
6.2872228e-10
1.9705903e-08
5.6909758e-10
1.9528136e-08
5.1821076e-10
1.9365383e-08
4.7440217e-10
1.9215658e-08
4.3639084e-10
1.9077318e-08
4.0317825e-10
1.8948988e-08
3.7397695e-10
1.8829509e-08
3.4815746e-10
1.8717898e-08
3.2521107e-10
1.8613311e-08
3.0472279e-10
1.8515024e-08
2.8635098e-10
1.8422408e-08
2.6981208e-10
1.8334916e-08
2.548693e-10
1.8252071e-08
2.4132353e-10
1.8173449e-08
2.2900624e-10
1.8098681e-08
2.1777425e-10
1.8027435e-08
2.0750511e-10
1.7959417e-08
1.9809344e-10
1.7894366e-08
1.8944819e-10
1.7832044e-08
1.8149041e-10
1.7772241e-08
1.7415083e-10
1.7714766e-08
1.6736831e-10
1.7659445e-08
1.6108984e-10
1.7606121e-08
1.5526929e-10
1.7554652e-08
1.498653e-10
1.7504907e-08
1.4484051e-10
1.7456768e-08
1.4016379e-10
1.7410125e-08
1.3580516e-10
1.7364878e-08
1.3173761e-10
1.7320936e-08
1.2793876e-10
1.7278213e-08
1.2438661e-10
1.7236631e-08
1.2106286e-10
1.7196118e-08
1.1795078e-10
1.7156606e-08
1.1503464e-10
1.7118033e-08
1.1230024e-10
1.7080341e-08
1.097347e-10
1.7043476e-08
1.0732643e-10
1.7007388e-08
1.0506519e-10
1.697203e-08
1.0294072e-10
1.6937357e-08
1.0094288e-10
1.6903331e-08
9.9064302e-11
1.686991e-08
9.7298877e-11
1.683706e-08
9.5639193e-11
1.6804746e-08
9.4078262e-11
1.6772936e-08
9.2610529e-11
1.67416e-08
9.1230562e-11
1.671071e-08
8.9932971e-11
1.6680238e-08
8.8715364e-11
1.665016e-08
8.7569548e-11
1.6620452e-08
8.649069e-11
1.6591092e-08
8.5480071e-11
1.6562057e-08
8.4532475e-11
1.6533327e-08
8.3643847e-11
1.6504883e-08
8.2811302e-11
1.6476707e-08
8.2032339e-11
1.644878e-08
8.1304617e-11
1.6421087e-08
8.0624991e-11
1.6393611e-08
7.9990212e-11
1.6366339e-08
7.9398974e-11
1.6339254e-08
7.8850242e-11
1.6312344e-08
7.8341629e-11
1.6285595e-08
7.7870846e-11
1.6258995e-08
7.7436379e-11
1.6232531e-08
7.7036703e-11
1.6206193e-08
7.6669417e-11
1.6179971e-08
7.6332615e-11
1.6153852e-08
7.602538e-11
1.6127829e-08
7.5745582e-11
1.6101893e-08
7.5490029e-11
1.6076037e-08
7.5253658e-11
1.6050256e-08
7.5032534e-11
1.602456e-08
7.4779899e-11
1.5998929e-08
7.4586838e-11
1.5973551e-08
7.3834739e-11
1.5949818e-08
6.9023362e-11
1.5928238e-08
6.2736366e-11
1.590852e-08
5.7301513e-11
1.5890413e-08
5.2602728e-11
1.58737e-08
4.8542846e-11
1.5858204e-08
4.4999715e-11
1.5843782e-08
4.1870205e-11
1.5830318e-08
3.9082441e-11
1.5817713e-08
3.6584193e-11
1.5805881e-08
3.4334318e-11
1.5794749e-08
3.2299769e-11
1.5784251e-08
3.0454633e-11
1.577433e-08
2.8778243e-11
1.5764932e-08
2.7255584e-11
1.575601e-08
2.5872781e-11
1.5747514e-08
2.4633999e-11
1.5739404e-08
2.3513093e-11
1.5731597e-08
2.2632641e-11
1.5724109e-08
2.1705322e-11
1.5716621e-08
2.1707215e-11
1.5709668e-08
2.0153857e-11
1.5701657e-08
2.3205805e-11
1.4264267e-11
2.663724e-06
4.0160403e-11
2.6637082e-06
8.6115872e-11
2.6636898e-06
9.9218604e-11
2.6636692e-06
1.1141875e-10
2.6636451e-06
1.3005726e-10
2.6636171e-06
1.5197641e-10
2.6635843e-06
1.7769488e-10
2.6635458e-06
2.0875106e-10
2.6635004e-06
2.466021e-10
2.6634466e-06
2.9295317e-10
2.6633824e-06
3.5011374e-10
2.6633051e-06
4.2160017e-10
2.6632115e-06
5.1198405e-10
2.6630964e-06
6.3000422e-10
2.6629535e-06
7.8385198e-10
2.6627708e-06
1.0041088e-09
2.6625361e-06
1.2915818e-09
2.6622085e-06
1.8069952e-09
2.6617781e-06
2.3781025e-09
2.6610406e-06
4.0863257e-09
2.6601099e-06
5.1564779e-09
2.6578433e-06
1.256786e-08
2.6574269e-06
2.2695923e-09
1.3908792e-06
7.6593177e-06
8.8046418e-08
7.7822581e-06
4.7546373e-08
1.3183676e-07
3.9192674e-08
2.6927261e-08
3.5411628e-08
1.2167688e-08
3.3234333e-08
6.999951e-09
3.170046e-08
4.9318631e-09
3.0547718e-08
3.706029e-09
2.9637453e-08
2.9260327e-09
2.8894585e-08
2.3876204e-09
2.8273658e-08
1.9954194e-09
2.7744622e-08
1.6998716e-09
2.7287026e-08
1.4701185e-09
2.68864e-08
1.2869013e-09
2.6532044e-08
1.1381153e-09
2.6215821e-08
1.0155016e-09
2.5931451e-08
9.1309293e-10
2.5674001e-08
8.2654747e-10
2.5439529e-08
7.52682e-10
2.5224843e-08
6.8908832e-10
2.5027326e-08
6.3390763e-10
2.4844813e-08
5.8569139e-10
2.4675494e-08
5.4329661e-10
2.4517841e-08
5.0580998e-10
2.4370559e-08
4.7249332e-10
2.4232537e-08
4.427444e-10
2.4102821e-08
4.1606748e-10
2.3980582e-08
3.9205105e-10
2.38651e-08
3.7035149e-10
2.3755743e-08
3.5067982e-10
2.3651958e-08
3.3279144e-10
2.3553254e-08
3.1647858e-10
2.3459195e-08
3.015635e-10
2.3369396e-08
2.8789328e-10
2.3283508e-08
2.7533576e-10
2.3201222e-08
2.6377634e-10
2.3122258e-08
2.5311449e-10
2.3046365e-08
2.4326143e-10
2.2973315e-08
2.3414026e-10
2.29029e-08
2.25684e-10
2.2834933e-08
2.1783263e-10
2.2769241e-08
2.1053191e-10
2.2705669e-08
2.0373661e-10
2.264407e-08
1.9740329e-10
2.2584315e-08
1.9149275e-10
2.2526282e-08
1.8597238e-10
2.2469858e-08
1.8081031e-10
2.2414941e-08
1.7597997e-10
2.2361435e-08
1.7145709e-10
2.230925e-08
1.6721884e-10
2.2258306e-08
1.6324458e-10
2.2208525e-08
1.5951562e-10
2.2159836e-08
1.5601515e-10
2.2112173e-08
1.527283e-10
2.2065474e-08
1.4964016e-10
2.2019681e-08
1.46736e-10
2.197474e-08
1.4400514e-10
2.19306e-08
1.4143871e-10
2.1887213e-08
1.3902596e-10
2.1844535e-08
1.3675673e-10
2.1802522e-08
1.3462297e-10
2.1761136e-08
1.326168e-10
2.1720339e-08
1.3073039e-10
2.1680094e-08
1.2896025e-10
2.1640369e-08
1.272945e-10
2.1601133e-08
1.2572616e-10
2.1562356e-08
1.2425703e-10
2.1524009e-08
1.2287958e-10
2.1486065e-08
1.2158792e-10
2.1448499e-08
1.2037786e-10
2.1411285e-08
1.1924579e-10
2.1374402e-08
1.181883e-10
2.1337826e-08
1.1720083e-10
2.1301537e-08
1.1627866e-10
2.1265516e-08
1.1541992e-10
2.1229744e-08
1.1462309e-10
2.11942e-08
1.1388474e-10
2.115887e-08
1.1320153e-10
2.1123735e-08
1.1257128e-10
2.108878e-08
1.1199179e-10
2.105399e-08
1.1145957e-10
2.101935e-08
1.1097187e-10
2.0984848e-08
1.1052737e-10
2.0950471e-08
1.10123e-10
2.0916207e-08
1.0975414e-10
2.0882047e-08
1.0941347e-10
2.0847984e-08
1.0909529e-10
2.0814032e-08
1.0873206e-10
2.0780164e-08
1.08455e-10
2.0746625e-08
1.0737379e-10
2.0715246e-08
1.0040248e-10
2.06867e-08
9.1282204e-11
2.0660608e-08
8.3393114e-11
2.0636642e-08
7.6569006e-11
2.0614515e-08
7.067038e-11
2.0593993e-08
6.5521026e-11
2.0574892e-08
6.0971803e-11
2.0557055e-08
5.6918636e-11
2.0540354e-08
5.3285841e-11
2.0524674e-08
5.0013775e-11
2.050992e-08
4.7054514e-11
2.0496004e-08
4.4370469e-11
2.048285e-08
4.193166e-11
2.047039e-08
3.971631e-11
2.0458558e-08
3.77043e-11
2.044729e-08
3.5901713e-11
2.0436533e-08
3.4270648e-11
2.0426176e-08
3.2989161e-11
2.0416241e-08
3.1640318e-11
2.0406307e-08
3.1641492e-11
2.0397082e-08
2.9378807e-11
2.0386449e-08
3.3838748e-11
2.0792187e-11
2.8986189e-06
4.8520102e-11
2.8986009e-06
1.0415835e-10
2.89858e-06
1.2012864e-10
2.8985565e-06
1.3491699e-10
2.8985291e-06
1.5745935e-10
2.8984971e-06
1.8395227e-10
2.8984598e-06
2.1501893e-10
2.898416e-06
2.525143e-10
2.8983644e-06
2.9819358e-10
2.8983032e-06
3.5410882e-10
2.8982303e-06
4.230385e-10
2.8981427e-06
5.092129e-10
2.8980366e-06
6.1812983e-10
2.8979063e-06
7.6030032e-10
2.8977446e-06
9.4556727e-10
2.897538e-06
1.2107071e-09
2.8972729e-06
1.5566406e-09
2.8969033e-06
2.1766081e-09
2.8964181e-06
2.8632907e-09
2.895588e-06
4.9164403e-09
2.8945403e-06
6.2041414e-09
2.89199e-06
1.5118207e-08
2.891517e-06
2.7425483e-09
1.5259182e-06
9.0249165e-06
1.1384282e-07
9.1943334e-06
6.1526963e-08
1.8415262e-07
5.0660172e-08
3.7794052e-08
4.5734858e-08
1.7093002e-08
4.2896399e-08
9.8384101e-09
4.0896897e-08
6.9313648e-09
3.9394092e-08
5.2088339e-09
3.8207239e-08
4.1128857e-09
3.7238537e-08
3.3563232e-09
3.6428748e-08
2.8052084e-09
3.5738715e-08
2.3899046e-09
3.5141786e-08
2.0670471e-09
3.4619112e-08
1.8095756e-09
3.4156746e-08
1.600481e-09
3.3744089e-08
1.428159e-09
3.3372955e-08
1.2842263e-09
3.303692e-08
1.1625831e-09
3.2730845e-08
1.058757e-09
3.2450568e-08
9.693645e-10
3.2192682e-08
8.9179406e-10
3.1954363e-08
8.2401048e-10
3.1733252e-08
7.6440781e-10
3.1527359e-08
7.1170285e-10
3.1334994e-08
6.6485837e-10
3.115471e-08
6.2302815e-10
3.0985262e-08
5.8551561e-10
3.082557e-08
5.5174257e-10
3.0674696e-08
5.2122611e-10
3.0531815e-08
4.9356015e-10
3.0396206e-08
4.6840097e-10
3.0267228e-08
4.4545654e-10
3.0144314e-08
4.2447713e-10
3.002696e-08
4.0524779e-10
2.9914713e-08
3.8758278e-10
2.9807168e-08
3.7132105e-10
2.9703961e-08
3.5632131e-10
2.9604764e-08
3.4245875e-10
2.9509279e-08
3.2962528e-10
2.9417236e-08
3.177268e-10
2.932839e-08
3.0667892e-10
2.9242516e-08
2.9640541e-10
2.915941e-08
2.8684262e-10
2.9078884e-08
2.779296e-10
2.9000765e-08
2.6961126e-10
2.8924896e-08
2.618416e-10
2.8851131e-08
2.5457589e-10
2.8779334e-08
2.4777679e-10
2.8709381e-08
2.4141021e-10
2.8641156e-08
2.3544405e-10
2.8574551e-08
2.2984928e-10
2.8509467e-08
2.2459963e-10
2.8445811e-08
2.1967145e-10
2.8383495e-08
2.1504387e-10
2.8322439e-08
2.1069592e-10
2.8262568e-08
2.0660687e-10
2.8203812e-08
2.0276167e-10
2.8146103e-08
1.9914792e-10
2.8089378e-08
1.957505e-10
2.803358e-08
1.9255513e-10
2.7978652e-08
1.8955047e-10
2.7924543e-08
1.8672545e-10
2.7871205e-08
1.8406911e-10
2.7818589e-08
1.8157645e-10
2.7766652e-08
1.7923086e-10
2.7715356e-08
1.7702251e-10
2.7664659e-08
1.749539e-10
2.7614524e-08
1.7301448e-10
2.7564916e-08
1.7119598e-10
2.7515801e-08
1.694925e-10
2.7467148e-08
1.6789897e-10
2.7418926e-08
1.6641062e-10
2.7371106e-08
1.6502104e-10
2.7323661e-08
1.637236e-10
2.7276565e-08
1.6251566e-10
2.7229793e-08
1.6139513e-10