/*--------------------------------*- C++ -*----------------------------------*\
| =========                 |                                                 |
| \\      /  F ield         | OpenFOAM: The Open Source CFD Toolbox           |
|  \\    /   O peration     | Version:  2206                                  |
|   \\  /    A nd           | Website:  www.openfoam.com                      |
|    \\/     M anipulation  |                                                 |
\*---------------------------------------------------------------------------*/
FoamFile
{
    version     2.0;
    format      ascii;
    arch        "LSB;label=32;scalar=64";
    class       volVectorField;
    location    "500";
    object      U;
}
// * * * * * * * * * * * * * * * * * * * * * * * * * * * * * * * * * * * * * //

dimensions      [0 1 -1 0 0 0 0];

internalField   nonuniform List<vector> 
13056
(
(1 5.8871055e-11 3.8026481e-25)
(0.99999555 1.4266623e-10 0)
(0.99998996 1.8581743e-10 0)
(0.99998397 2.3662066e-10 0)
(0.99997699 3.1346109e-10 0)
(0.99996882 4.1563324e-10 0)
(0.99995928 5.512288e-10 0)
(0.99994809 7.3409885e-10 0)
(0.9999349 9.8225466e-10 0)
(0.99991925 1.3201673e-09 0)
(0.99990059 1.782342e-09 0)
(0.99987819 2.4198973e-09 0)
(0.99985107 3.3052016e-09 0)
(0.99981797 4.5602821e-09 0)
(0.99977687 6.3370705e-09 0)
(0.99972547 9.0237276e-09 0)
(0.99965825 1.2824323e-08 0)
(0.99957245 1.9688173e-08 0)
(0.99944425 2.8170667e-08 0)
(0.9992889 5.2148427e-08 0)
(0.99895947 6.984988e-08 0)
(0.99866878 1.7844795e-07 0)
(0.99746681 3.3301992e-08 -4.7769386e-21)
(0.99837622 0.00012447997 8.053424e-18)
(0.0032617769 0.00012479117 0)
(0.0014025357 5.293384e-08 -1.0918651e-20)
(0.0010989091 3.9501722e-08 2.9011866e-18)
(0.0009705364 4.2791725e-09 0)
(0.00090416011 2.4443205e-09 0)
(0.00085866233 1.7063275e-09 0)
(0.00082530578 1.2707884e-09 0)
(0.00079941259 9.9447712e-10 0)
(0.0007785329 8.0394055e-10 0)
(0.0007612523 6.6548675e-10 0)
(0.00074664665 5.6138911e-10 0)
(0.00073409402 4.8063103e-10 0)
(0.00072316383 4.1637458e-10 0)
(0.00071354212 3.6431319e-10 0)
(0.00070499186 3.2150559e-10 0)
(0.00069733121 2.8583102e-10 0)
(0.00069041867 2.5574971e-10 0)
(0.0006841419 2.3013264e-10 0)
(0.00067841032 2.0812578e-10 0)
(0.00067315015 1.8907099e-10 0)
(0.00066830056 1.7245585e-10 0)
(0.00066381095 1.5787637e-10 0)
(0.00065963879 1.4501e-10 0)
(0.0006557481 1.3359627e-10 0)
(0.00065210816 1.2342289e-10 0)
(0.00064869261 1.143153e-10 0)
(0.00064547869 1.0612886e-10 0)
(0.00064244663 9.8742919e-11 0)
(0.00063957915 9.2055922e-11 0)
(0.0006368611 8.5982037e-11 0)
(0.00063427913 8.0448539e-11 0)
(0.0006318214 7.5393223e-11 0)
(0.00062947741 7.0762563e-11 0)
(0.00062723777 6.6510364e-11 0)
(0.00062509408 6.2596598e-11 0)
(0.0006230388 5.8986278e-11 0)
(0.00062106513 5.5648565e-11 0)
(0.00061916694 5.2556673e-11 0)
(0.00061733868 4.9687296e-11 0)
(0.00061557528 4.7019596e-11 0)
(0.00061387214 4.453472e-11 0)
(0.00061222508 4.2217308e-11 6.6018308e-28)
(0.0006106302 4.0051706e-11 -7.5850943e-28)
(0.00060908403 3.8024631e-11 0)
(0.0006075833 3.6125364e-11 0)
(0.00060612503 3.4342411e-11 0)
(0.0006047065 3.266671e-11 0)
(0.00060332514 3.1089894e-11 0)
(0.0006019786 2.9604148e-11 0)
(0.0006006647 2.8202412e-11 0)
(0.00059938141 2.6878325e-11 0)
(0.00059812684 2.5626141e-11 0)
(0.00059689924 2.4440698e-11 0)
(0.00059569696 2.331708e-11 0)
(0.00059451848 2.2250599e-11 0)
(0.00059336239 2.1237453e-11 0)
(0.00059222734 2.0274331e-11 0)
(0.00059111206 1.9357742e-11 0)
(0.00059001537 1.8484456e-11 0)
(0.00058893616 1.7651707e-11 0)
(0.00058787339 1.6856891e-11 0)
(0.00058682608 1.6097559e-11 0)
(0.00058579329 1.5371852e-11 0)
(0.00058477411 1.4677074e-11 0)
(0.00058376781 1.4011265e-11 0)
(0.00058277355 1.3373486e-11 0)
(0.0005817906 1.2761854e-11 0)
(0.00058081825 1.2174754e-11 0)
(0.00057985583 1.1610841e-11 0)
(0.00057890272 1.1068897e-11 0)
(0.00057795831 1.0547794e-11 0)
(0.00057702202 1.004635e-11 0)
(0.00057609333 9.5634525e-12 0)
(0.00057517172 9.0983095e-12 0)
(0.0005742567 8.6501788e-12 0)
(0.0005733478 8.2182103e-12 0)
(0.00057244456 7.8016259e-12 0)
(0.00057154656 7.3997766e-12 0)
(0.00057065339 7.0120563e-12 0)
(0.00056976467 6.6378133e-12 0)
(0.00056888003 6.2764988e-12 0)
(0.00056799914 5.9276927e-12 0)
(0.00056712166 5.5909025e-12 0)
(0.00056624729 5.2656115e-12 0)
(0.00056537579 4.9512501e-12 0)
(0.00056450696 4.647391e-12 0)
(0.00056364066 4.3513107e-12 0)
(0.00056277783 4.0679883e-12 0)
(0.000561916 3.7678511e-12 0)
(0.00056109053 3.4399774e-12 0)
(0.00056033308 3.1332214e-12 0)
(0.00055964324 2.8666357e-12 0)
(0.00055901197 2.6352079e-12 0)
(0.00055843107 2.4346299e-12 0)
(0.00055789382 2.2592e-12 0)
(0.00055739492 2.1039963e-12 0)
(0.00055693004 1.9655584e-12 0)
(0.00055649558 1.8413575e-12 0)
(0.00055608843 1.7293958e-12 0)
(0.00055570594 1.6280644e-12 0)
(0.00055534577 1.5360983e-12 0)
(0.00055500586 1.4524912e-12 0)
(0.00055468438 1.3765146e-12 0)
(0.00055437961 1.3074967e-12 0)
(0.00055409002 1.2456577e-12 0)
(0.00055381381 1.1897447e-12 0)
(0.00055355008 1.1458188e-12 0)
(0.00055329415 1.0998828e-12 0)
(0.00055305182 1.0998449e-12 0)
(0.00055279573 4.0713961e-12 0)
(0.00055258928 1.1561168e-12 1.6240716e-24)
(0.00055226288 2.9137944e-12 0)
(1 1.7894343e-10 0)
(0.99999548 4.3393736e-10 0)
(0.9999898 5.654001e-10 0)
(0.9999837 7.2001917e-10 0)
(0.9999766 9.5377376e-10 0)
(0.99996829 1.2645285e-09 0)
(0.99995859 1.6768639e-09 0)
(0.99994722 2.2328594e-09 0)
(0.9999338 2.9872218e-09 0)
(0.99991791 4.0142662e-09 0)
(0.99989895 5.4187648e-09 0)
(0.99987621 7.3559159e-09 0)
(0.99984868 1.0045402e-08 0)
(0.99981508 1.385761e-08 0)
(0.99977338 1.9253607e-08 0)
(0.99972126 2.7411318e-08 0)
(0.9996531 3.8949585e-08 0)
(0.99956614 5.9782941e-08 0)
(0.99943626 8.5525656e-08 0)
(0.99927891 1.5827617e-07 0)
(0.99894546 2.1200739e-07 0)
(0.9986511 5.4160527e-07 0)
(0.99743438 9.9339168e-08 1.7079792e-20)
(0.99835429 0.00037410154 -6.3583395e-21)
(0.0097963196 0.00037543186 0)
(0.0042262366 1.1560373e-06 0)
(0.0033105076 2.2456308e-07 1.0987977e-21)
(0.0029232762 9.990114e-08 0)
(0.0027229332 5.6875e-08 0)
(0.0025856267 3.9717726e-08 0)
(0.0024849568 2.9564422e-08 0)
(0.0024068107 2.3114905e-08 0)
(0.0023437943 1.8673327e-08 0)
(0.0022916392 1.5446009e-08 0)
(0.0022475567 1.3019841e-08 0)
(0.0022096697 1.1138583e-08 0)
(0.002176679 9.6425321e-09 0)
(0.002147637 8.4310536e-09 0)
(0.0021218285 7.435453e-09 0)
(0.0020987047 6.6062195e-09 0)
(0.0020778387 5.9073877e-09 0)
(0.0020588913 5.3125884e-09 0)
(0.0020415894 4.8018915e-09 0)
(0.0020257101 4.35994e-09 0)
(0.00201107 3.9747795e-09 0)
(0.0019975164 3.6369866e-09 0)
(0.0019849209 3.33904e-09 0)
(0.0019731749 3.0748687e-09 0)
(0.0019621858 2.8395259e-09 0)
(0.0019518739 2.6289449e-09 0)
(0.0019421707 2.4397552e-09 0)
(0.0019330163 2.2691461e-09 0)
(0.0019243588 2.1147566e-09 0)
(0.0019161523 1.9745909e-09 0)
(0.0019083565 1.8469552e-09 0)
(0.0019009358 1.7304022e-09 0)
(0.0018938585 1.6236878e-09 0)
(0.0018870961 1.5257386e-09 0)
(0.0018806234 1.4356241e-09 0)
(0.0018744176 1.352531e-09 0)
(0.0018684581 1.2757445e-09 0)
(0.0018627266 1.2046429e-09 0)
(0.0018572061 1.1386836e-09 0)
(0.0018518814 1.0773829e-09 0)
(0.0018467387 1.0203066e-09 0)
(0.0018417653 9.67088e-10 3.6266849e-26)
(0.0018369494 9.1737758e-10 6.9878368e-26)
(0.0018322806 8.708657e-10 0)
(0.001827749 8.2729201e-10 0)
(0.0018233456 7.8640341e-10 0)
(0.0018190621 7.4798553e-10 0)
(0.0018148909 7.1184288e-10 0)
(0.0018108249 6.7779524e-10 0)
(0.0018068574 6.4567992e-10 0)
(0.0018029823 6.1534961e-10 0)
(0.0017991939 5.8667132e-10 0)
(0.001795487 5.5952572e-10 0)
(0.0017918566 5.33799e-10 0)
(0.001788298 5.0938404e-10 0)
(0.001784807 4.8619306e-10 0)
(0.0017813795 4.6414826e-10 0)
(0.0017780118 4.4316935e-10 0)
(0.0017747002 4.231823e-10 0)
(0.0017714413 4.0412336e-10 0)
(0.0017682322 3.8593243e-10 0)
(0.0017650697 3.6855263e-10 0)
(0.001761951 3.5194253e-10 0)
(0.0017588735 3.3603932e-10 0)
(0.0017558348 3.2079742e-10 0)
(0.0017528325 3.0619639e-10 0)
(0.0017498644 2.9219224e-10 0)
(0.0017469282 2.7874816e-10 0)
(0.0017440221 2.6583333e-10 0)
(0.0017411441 2.5341986e-10 0)
(0.0017382923 2.4148181e-10 0)
(0.001735465 2.2999239e-10 0)
(0.0017326607 2.1892633e-10 0)
(0.0017298778 2.0826528e-10 0)
(0.0017271147 1.9799239e-10 0)
(0.0017243702 1.8808836e-10 0)
(0.0017216427 1.785355e-10 0)
(0.001718931 1.693191e-10 0)
(0.0017162339 1.6042533e-10 0)
(0.0017135502 1.5183959e-10 0)
(0.0017108788 1.4354946e-10 0)
(0.0017082187 1.3554532e-10 0)
(0.0017055689 1.278161e-10 0)
(0.0017029285 1.2035009e-10 0)
(0.0017002967 1.1313417e-10 0)
(0.0016976729 1.061589e-10 0)
(0.0016950567 9.9358492e-11 0)
(0.001692451 9.2858239e-11 0)
(0.0016898483 8.590652e-11 0)
(0.0016873551 7.822738e-11 0)
(0.0016850671 7.105496e-11 0)
(0.0016829832 6.486401e-11 0)
(0.001681076 5.9518054e-11 0)
(0.0016793209 5.4903614e-11 0)
(0.0016776975 5.087943e-11 0)
(0.0016761899 4.7326933e-11 0)
(0.0016747852 4.416376e-11 0)
(0.0016734722 4.1330163e-11 0)
(0.0016722417 3.8779127e-11 0)
(0.0016710857 3.6472922e-11 0)
(0.0016699972 3.4381978e-11 0)
(0.0016689698 3.2482723e-11 0)
(0.0016679981 3.0758025e-11 0)
(0.0016670769 2.9192052e-11 0)
(0.0016662016 2.7789494e-11 0)
(0.0016653666 2.6520511e-11 0)
(0.0016645694 2.552456e-11 0)
(0.0016637957 2.4474202e-11 0)
(0.0016630632 2.4480263e-11 0)
(0.0016622891 2.2832437e-11 0)
(0.0016616649 2.60946e-11 -2.5243256e-24)
(0.0016606781 1.6230439e-11 1.3741413e-25)
(1 3.0384433e-10 0)
(0.99999539 7.3705938e-10 0)
(0.99998959 9.607428e-10 0)
(0.99998335 1.2235407e-09 0)
(0.99997611 1.6206473e-09 0)
(0.99996762 2.1484565e-09 0)
(0.99995771 2.8486637e-09 0)
(0.9999461 3.7926528e-09 0)
(0.99993241 5.0732114e-09 0)
(0.99991619 6.8163603e-09 0)
(0.99989686 9.1997432e-09 0)
(0.99987367 1.2486467e-08 0)
(0.99984562 1.7048903e-08 0)
(0.99981139 2.3514806e-08 0)
(0.99976893 3.2665453e-08 0)
(0.99971587 4.6496805e-08 0)
(0.99964653 6.6056689e-08 0)
(0.99955809 1.013655e-07 0)
(0.99942607 1.4498829e-07 0)
(0.9992662 2.6823835e-07 0)
(0.99892763 3.5930797e-07 0)
(0.9986286 9.1785464e-07 0)
(0.99739321 1.6884957e-07 -9.0490382e-21)
(0.99832633 0.0006274555 5.092553e-55)
(0.016436698 0.000630849 -5.0920473e-55)
(0.0071083791 3.2951235e-06 0)
(0.0055661987 6.5370516e-07 -5.7960972e-22)
(0.0049138457 2.9273059e-07 0)
(0.0045761352 1.666868e-07 0)
(0.004344709 1.1640064e-07 0)
(0.0041750272 8.6645399e-08 0)
(0.004043306 6.7744406e-08 0)
(0.003937084 5.4728061e-08 0)
(0.0038491673 4.5270103e-08 0)
(0.0037748559 3.8159944e-08 0)
(0.0037109866 3.2646719e-08 0)
(0.0036553693 2.8262386e-08 0)
(0.0036064073 2.4711992e-08 0)
(0.0035628951 2.1794221e-08 0)
(0.003523908 1.9363988e-08 0)
(0.0034887264 1.73159e-08 0)
(0.0034567787 1.5572679e-08 0)
(0.0034276046 1.4075921e-08 0)
(0.0034008286 1.2780625e-08 0)
(0.0033761415 1.1651758e-08 0)
(0.0033532858 1.0661705e-08 0)
(0.0033320452 9.788427e-09 0)
(0.0033122367 9.0141317e-09 0)
(0.0032937042 8.3243233e-09 0)
(0.0032763135 7.7070843e-09 0)
(0.0032599488 7.1525374e-09 0)
(0.0032445095 6.6524456e-09 0)
(0.0032299078 6.1998899e-09 0)
(0.0032160666 5.7890222e-09 0)
(0.003202918 5.4148781e-09 0)
(0.0031904017 5.0732161e-09 0)
(0.0031784643 4.7603905e-09 0)
(0.0031670581 4.473255e-09 0)
(0.0031561403 4.2090834e-09 0)
(0.0031456725 3.9654917e-09 0)
(0.0031356202 3.7403848e-09 0)
(0.0031259522 3.5319416e-09 0)
(0.0031166402 3.338571e-09 0)
(0.0031076584 3.1588556e-09 0)
(0.0030989834 2.9915233e-09 0)
(0.0030905939 2.8354976e-09 0)
(0.0030824702 2.6897564e-09 0)
(0.0030745944 2.5533924e-09 0)
(0.0030669501 2.4256399e-09 0)
(0.003059522 2.3057589e-09 0)
(0.0030522962 2.193121e-09 0)
(0.0030452598 2.0871528e-09 0)
(0.0030384007 1.9873263e-09 0)
(0.0030317079 1.8931647e-09 0)
(0.0030251709 1.8042361e-09 0)
(0.0030187802 1.7201507e-09 0)
(0.003012527 1.6405588e-09 0)
(0.0030064027 1.5651268e-09 0)
(0.0030003996 1.4935408e-09 0)
(0.0029945106 1.4255432e-09 0)
(0.0029887287 1.3609061e-09 0)
(0.0029830476 1.2993942e-09 0)
(0.0029774612 1.2407905e-09 0)
(0.0029719638 1.1849081e-09 0)
(0.0029665502 1.1315707e-09 0)
(0.0029612153 1.0806118e-09 0)
(0.0029559544 1.0319096e-09 0)
(0.0029507629 9.8528028e-10 0)
(0.0029456369 9.4059018e-10 0)
(0.0029405724 8.9777913e-10 0)
(0.0029355654 8.5671837e-10 0)
(0.0029306124 8.1729991e-10 0)
(0.00292571 7.7943343e-10 0)
(0.002920855 7.4303709e-10 0)
(0.0029160443 7.0803489e-10 0)
(0.0029112749 6.7434826e-10 0)
(0.0029065442 6.419031e-10 0)
(0.0029018497 6.1064554e-10 0)
(0.0028971886 5.8052622e-10 0)
(0.0028925586 5.5148857e-10 0)
(0.0028879575 5.2348066e-10 0)
(0.002883383 4.9645934e-10 0)
(0.0028788331 4.703841e-10 0)
(0.0028743057 4.4521207e-10 0)
(0.0028697991 4.2090684e-10 0)
(0.0028653115 3.9744016e-10 0)
(0.0028608411 3.7477957e-10 0)
(0.0028563866 3.5289077e-10 0)
(0.0028519465 3.3173527e-10 0)
(0.0028475199 3.1128537e-10 0)
(0.002843106 2.9134851e-10 0)
(0.0028387097 2.7229099e-10 0)
(0.0028343183 2.5191594e-10 0)
(0.0028301113 2.2941665e-10 0)
(0.0028262499 2.0840098e-10 0)
(0.0028227323 1.9025752e-10 0)
(0.0028195126 1.7458785e-10 0)
(0.0028165495 1.6106051e-10 0)
(0.0028138086 1.492623e-10 0)
(0.0028112629 1.3884621e-10 0)
(0.0028088907 1.2957107e-10 0)
(0.0028066734 1.2126188e-10 0)
(0.0028045953 1.1378091e-10 0)
(0.0028026429 1.0701763e-10 0)
(0.0028008042 1.008854e-10 0)
(0.0027990689 9.5315134e-11 0)
(0.0027974275 9.0256644e-11 0)
(0.0027958712 8.5663529e-11 0)
(0.0027943924 8.1549544e-11 0)
(0.0027929819 7.7827217e-11 0)
(0.0027916349 7.4905332e-11 0)
(0.0027903279 7.1824059e-11 0)
(0.0027890901 7.1839882e-11 0)
(0.0027877825 6.6581161e-11 0)
(0.0027867277 7.6666043e-11 0)
(0.0027850601 4.7222261e-11 0)
(1 4.361902e-10 7.8584273e-25)
(0.99999528 1.0586578e-09 0)
(0.99998933 1.3806229e-09 0)
(0.99998293 1.758385e-09 0)
(0.99997549 2.3288759e-09 0)
(0.99996678 3.0869549e-09 0)
(0.99995662 4.0924127e-09 0)
(0.99994471 5.4476263e-09 0)
(0.99993068 7.285638e-09 0)
(0.99991406 9.7871016e-09 0)
(0.99989426 1.3206627e-08 0)
(0.99987053 1.7921258e-08 0)
(0.99984183 2.4464516e-08 0)
(0.99980683 3.3735717e-08 0)
(0.99976342 4.6853823e-08 0)
(0.99970921 6.6677452e-08 0)
(0.9996384 9.4705866e-08 0)
(0.99954813 1.4528763e-07 0)
(0.99941348 2.0776778e-07 0)
(0.99925048 3.8424601e-07 0)
(0.99890562 5.1471146e-07 0)
(0.99860084 1.3147231e-06 0)
(0.99734246 2.4268627e-07 0)
(0.99829175 0.00088828487 -2.6568294e-55)
(0.023277133 0.00089495367 2.6565687e-55)
(0.010088749 6.726983e-06 0)
(0.0078959017 1.3506505e-06 0)
(0.0069678112 6.0407023e-07 0)
(0.0064870156 3.4403673e-07 0)
(0.0061575744 2.4024164e-07 0)
(0.0059160201 1.7883189e-07 0)
(0.0057284954 1.3982325e-07 0)
(0.0055772657 1.1295969e-07 0)
(0.0054520913 9.3439931e-08 0)
(0.0053462828 7.8765566e-08 0)
(0.0052553375 6.7387037e-08 0)
(0.0051761384 5.8338355e-08 0)
(0.0051064128 5.1010741e-08 0)
(0.005044445 4.498871e-08 0)
(0.0049889189 3.9972856e-08 0)
(0.0049388102 3.5745668e-08 0)
(0.0048933055 3.2147664e-08 0)
(0.0048517495 2.9058314e-08 0)
(0.0048136077 2.6384745e-08 0)
(0.0047784401 2.4054659e-08 0)
(0.00474588 2.2011069e-08 0)
(0.0047156198 2.0208486e-08 0)
(0.0046873988 1.8610194e-08 0)
(0.0046609947 1.7186277e-08 0)
(0.0046362165 1.5912139e-08 0)
(0.0046128995 1.4767396e-08 0)
(0.0045909004 1.3735048e-08 0)
(0.0045700942 1.2800815e-08 0)
(0.0045503711 1.1952628e-08 0)
(0.0045316344 1.1180241e-08 0)
(0.0045137983 1.04749e-08 0)
(0.0044967869 9.8290802e-09 0)
(0.004480532 9.2362886e-09 0)
(0.0044649729 8.6908984e-09 0)
(0.0044500548 8.1879889e-09 0)
(0.0044357286 7.7232361e-09 0)
(0.0044219498 7.2928814e-09 0)
(0.0044086782 6.8936408e-09 0)
(0.0043958771 6.5225885e-09 0)
(0.0043835131 6.1771003e-09 0)
(0.004371556 5.8549496e-09 0)
(0.0043599774 5.5540323e-09 0)
(0.0043487522 5.2724758e-09 0)
(0.0043378568 5.0086938e-09 0)
(0.0043272695 4.7611637e-09 0)
(0.0043169705 4.5285866e-09 0)
(0.0043069413 4.3097796e-09 0)
(0.0042971649 4.1036527e-09 0)
(0.0042876254 3.9092215e-09 0)
(0.004278308 3.7255946e-09 0)
(0.0042691992 3.5519673e-09 0)
(0.0042602862 3.3876178e-09 0)
(0.004251557 3.2318573e-09 0)
(0.0042430005 3.0840378e-09 0)
(0.0042346067 2.9436278e-09 0)
(0.0042263656 2.8101565e-09 0)
(0.0042182681 2.6831383e-09 0)
(0.0042103056 2.5621253e-09 0)
(0.00420247 2.4467314e-09 0)
(0.0041947538 2.336593e-09 0)
(0.0041871498 2.2313661e-09 0)
(0.0041796514 2.1307993e-09 0)
(0.0041722518 2.0345131e-09 0)
(0.0041649456 1.9422316e-09 0)
(0.004157727 1.8538302e-09 0)
(0.0041505904 1.7690435e-09 0)
(0.0041435307 1.6876483e-09 0)
(0.0041365432 1.6094581e-09 0)
(0.0041296233 1.534304e-09 0)
(0.0041227664 1.462029e-09 0)
(0.0041159686 1.3924709e-09 0)
(0.0041092257 1.3254766e-09 0)
(0.0041025343 1.2609348e-09 0)
(0.0040958907 1.1987437e-09 0)
(0.0040892913 1.1387864e-09 0)
(0.004082733 1.0809557e-09 0)
(0.0040762126 1.0251623e-09 0)
(0.0040697271 9.7132273e-10 0)
(0.0040632737 9.1934832e-10 0)
(0.0040568498 8.6916389e-10 0)
(0.0040504529 8.2071105e-10 0)
(0.0040440805 7.7392275e-10 0)
(0.0040377304 7.2872817e-10 0)
(0.0040314009 6.8504782e-10 0)
(0.0040250905 6.4282448e-10 0)
(0.004018798 6.0166125e-10 0)
(0.0040125303 5.6231222e-10 0)
(0.0040062695 5.2025555e-10 0)
(0.0040002706 4.7383053e-10 0)
(0.003994763 4.3046466e-10 0)
(0.0039897448 3.93018e-10 0)
(0.003985151 3.6067182e-10 0)
(0.0039809224 3.327438e-10 0)
(0.0039770106 3.0838333e-10 0)
(0.0039733771 2.8687499e-10 0)
(0.0039699908 2.6772144e-10 0)
(0.0039668253 2.5056171e-10 0)
(0.0039638583 2.3511166e-10 0)
(0.0039610705 2.2114322e-10 0)
(0.003958445 2.0847763e-10 0)
(0.0039559669 1.9697234e-10 0)
(0.0039536227 1.8652374e-10 0)
(0.0039514 1.7703611e-10 0)
(0.0039492878 1.6853785e-10 0)
(0.0039472729 1.6084845e-10 0)
(0.0039453488 1.5481166e-10 0)
(0.0039434816 1.4844661e-10 0)
(0.0039417131 1.4847507e-10 0)
(0.0039398453 1.3780494e-10 0)
(0.0039383381 1.5855206e-10 0)
(0.0039359553 9.7627548e-11 0)
(1 5.7879348e-10 0)
(0.99999515 1.4056646e-09 0)
(0.99998901 1.8342374e-09 0)
(0.99998241 2.3362901e-09 0)
(0.99997474 3.093962e-09 0)
(0.99996576 4.1004908e-09 0)
(0.99995529 5.4351141e-09 0)
(0.99994302 7.2335279e-09 0)
(0.99992858 9.6720275e-09 0)
(0.99991148 1.2989935e-08 0)
(0.99989111 1.7524478e-08 0)
(0.99986671 2.3774947e-08 0)
(0.99983722 3.2447702e-08 0)
(0.99980127 4.4733206e-08 0)
(0.99975672 6.2112227e-08 0)
(0.99970112 8.8367669e-08 0)
(0.99962853 1.2548126e-07 0)
(0.99953604 1.9243684e-07 0)
(0.99939821 2.7512367e-07 0)
(0.99923142 5.0859888e-07 0)
(0.99887895 6.8129889e-07 0)
(0.99856721 1.7400598e-06 0)
(0.99728108 3.2159526e-07 0)
(0.99824981 0.0011602749 0)
(0.030412837 0.0011714188 0)
(0.013208342 1.1682975e-05 0)
(0.010330336 2.3444632e-06 0)
(0.0091113505 1.0486156e-06 0)
(0.0084793238 5.9737928e-07 0)
(0.0080463126 4.17138e-07 0)
(0.0077288079 3.1051849e-07 0)
(0.0074823017 2.4279288e-07 0)
(0.0072834937 1.9615233e-07 0)
(0.0071189275 1.6226183e-07 0)
(0.0069798118 1.3678374e-07 0)
(0.0068602298 1.1702778e-07 0)
(0.0067560853 1.0131682e-07 0)
(0.0066643917 8.8593853e-08 0)
(0.0065828947 7.8137524e-08 0)
(0.0065098646 6.9428059e-08 0)
(0.0064439555 6.2087849e-08 0)
(0.0063840986 5.5840014e-08 0)
(0.0063294324 5.0475304e-08 0)
(0.0062792548 4.5832483e-08 0)
(0.0062329873 4.1786037e-08 0)
(0.0061901482 3.8237027e-08 0)
(0.0061503329 3.5106482e-08 0)
(0.006113199 3.2330656e-08 0)
(0.0060784542 2.985761e-08 0)
(0.0060458476 2.7644642e-08 0)
(0.0060151624 2.5656361e-08 0)
(0.0059862105 2.386325e-08 0)
(0.0059588275 2.2240518e-08 0)
(0.005932869 2.0767208e-08 0)
(0.0059082079 1.942553e-08 0)
(0.0058847316 1.8200285e-08 0)
(0.0058623399 1.7078408e-08 0)
(0.0058409435 1.6048623e-08 0)
(0.0058204623 1.5101161e-08 0)
(0.0058008246 1.4227478e-08 0)
(0.0057819656 1.3420065e-08 0)
(0.0057638268 1.2672396e-08 0)
(0.0057463553 1.1978768e-08 0)
(0.0057295029 1.13341e-08 0)
(0.0057132258 1.0733837e-08 0)
(0.0056974839 1.0174107e-08 0)
(0.0056822404 9.651262e-09 9.0669086e-26)
(0.0056674619 9.1620526e-09 0)
(0.0056531173 8.703714e-09 0)
(0.0056391784 8.2736083e-09 0)
(0.0056256189 7.8694789e-09 0)
(0.0056124146 7.4892715e-09 0)
(0.005599543 7.131093e-09 0)
(0.0055869832 6.7932338e-09 0)
(0.0055747159 6.4741456e-09 0)
(0.0055627231 6.172431e-09 0)
(0.0055509881 5.8868359e-09 0)
(0.0055394951 5.6161644e-09 0)
(0.0055282296 5.3592906e-09 0)
(0.0055171781 5.1152912e-09 0)
(0.0055063278 4.8833486e-09 0)
(0.0054956664 4.6626196e-09 0)
(0.0054851829 4.4523258e-09 0)
(0.0054748666 4.2517967e-09 0)
(0.0054647074 4.0604005e-09 0)
(0.005454696 3.8775399e-09 0)
(0.0054448235 3.7027775e-09 0)
(0.0054350811 3.5354545e-09 0)
(0.0054254618 3.3750919e-09 0)
(0.0054159578 3.2214724e-09 0)
(0.0054065618 3.0741351e-09 0)
(0.0053972671 2.9326923e-09 0)
(0.0053880673 2.7968201e-09 0)
(0.0053789565 2.6662247e-09 0)
(0.0053699288 2.5406333e-09 0)
(0.0053609786 2.4197641e-09 0)
(0.0053521009 2.3033511e-09 0)
(0.0053432908 2.1912008e-09 0)
(0.0053345436 2.0831359e-09 0)
(0.0053258546 1.9789536e-09 0)
(0.0053172195 1.8784673e-09 0)
(0.0053086342 1.781522e-09 0)
(0.0053000948 1.6879722e-09 0)
(0.0052915975 1.5976641e-09 0)
(0.0052831389 1.5104668e-09 0)
(0.0052747157 1.4262787e-09 0)
(0.0052663245 1.3449833e-09 0)
(0.0052579626 1.2664574e-09 0)
(0.0052496275 1.190563e-09 0)
(0.0052413173 1.1172005e-09 0)
(0.0052330303 1.0456821e-09 0)
(0.0052247756 9.7731193e-10 0)
(0.00521653 9.0427346e-10 0)
(0.0052086272 8.2369528e-10 0)
(0.0052013693 7.4842048e-10 0)
(0.0051947546 6.8339823e-10 0)
(0.0051886979 6.2721696e-10 0)
(0.0051831218 5.7869872e-10 0)
(0.0051779625 5.3637133e-10 0)
(0.0051731697 4.9899515e-10 0)
(0.0051687023 4.6570775e-10 0)
(0.0051645258 4.3588293e-10 0)
(0.0051606108 4.0902765e-10 0)
(0.0051569318 3.8474612e-10 0)
(0.0051534666 3.6272804e-10 0)
(0.0051501956 3.4272595e-10 0)
(0.0051471011 3.2456004e-10 0)
(0.0051441668 3.0806415e-10 0)
(0.005141378 2.9328773e-10 0)
(0.0051387177 2.7991754e-10 0)
(0.0051361768 2.6941901e-10 0)
(0.0051337111 2.5835319e-10 0)
(0.0051313754 2.5839348e-10 0)
(0.0051289093 2.3989848e-10 0)
(0.0051269181 2.7606136e-10 -3.2518939e-24)
(0.0051237706 1.6985642e-10 1.7702743e-25)
(1 7.3495942e-10 0)
(0.99999499 1.7862809e-09 0)
(0.99998863 2.3325097e-09 0)
(0.99998179 2.9712037e-09 0)
(0.99997384 3.9343144e-09 0)
(0.99996454 5.2133471e-09 0)
(0.99995369 6.9087694e-09 0)
(0.99994099 9.1926693e-09 0)
(0.99992605 1.2288554e-08 0)
(0.99990837 1.6499743e-08 0)
(0.99988733 2.2253535e-08 0)
(0.99986213 3.0182444e-08 0)
(0.99983169 4.1181074e-08 0)
(0.99979461 5.6756882e-08 0)
(0.99974869 7.878425e-08 0)
(0.99969141 1.1205163e-07 0)
(0.99961669 1.5906407e-07 0)
(0.99952156 2.4384553e-07 0)
(0.99937991 3.485185e-07 0)
(0.99920861 6.4395838e-07 0)
(0.99884706 8.6263739e-07 0)
(0.99852701 2.2029333e-06 0)
(0.99720779 4.0798937e-07 0)
(0.9981996 0.0014471553 0)
(0.037941096 0.0014642959 0)
(0.016509886 1.8376843e-05 0)
(0.012901376 3.6942784e-06 0)
(0.011371526 1.6532574e-06 0)
(0.010577537 9.4214834e-07 0)
(0.010033635 6.5785845e-07 0)
(0.0096348069 4.8972794e-07 0)
(0.0093251302 3.8293378e-07 0)
(0.0090753552 3.0938525e-07 0)
(0.008868583 2.5594207e-07 0)
(0.0086937732 2.1576425e-07 0)
(0.0085434958 1.8460947e-07 0)
(0.008412607 1.5983306e-07 0)
(0.0082973564 1.3976819e-07 0)
(0.0081949132 1.2327741e-07 0)
(0.0081031056 1.0954118e-07 0)
(0.0080202433 9.7964093e-08 0)
(0.0079449842 8.810958e-08 0)
(0.0078762464 7.9647696e-08 0)
(0.0078131481 7.2324205e-08 -3.6541907e-35)
(0.0077549628 6.5941199e-08 0)
(0.0077010854 6.0342667e-08 0)
(0.0076510079 5.5404086e-08 0)
(0.0076043001 5.1024937e-08 0)
(0.0075605948 4.7123316e-08 0)
(0.0075195769 4.3631889e-08 0)
(0.0074809742 4.0494847e-08 0)
(0.0074445501 3.7665641e-08 0)
(0.0074100982 3.5105175e-08 0)
(0.0073774371 3.2780403e-08 0)
(0.0073464071 3.0663266e-08 0)
(0.0073168667 2.8729795e-08 0)
(0.0072886901 2.6959385e-08 0)
(0.007261765 2.5334253e-08 0)
(0.0072359908 2.3838991e-08 0)
(0.0072112772 2.2460124e-08 0)
(0.0071875429 2.1185808e-08 0)
(0.0071647144 2.000575e-08 0)
(0.0071427253 1.8910955e-08 0)
(0.0071215149 1.7893411e-08 0)
(0.0071010281 1.6945933e-08 0)
(0.0070812147 1.6062404e-08 0)
(0.0070620281 1.5237083e-08 0)
(0.0070434266 1.4464844e-08 0)
(0.0070253711 1.3741313e-08 0)
(0.007007826 1.3062337e-08 0)
(0.0069907583 1.2424356e-08 0)
(0.0069741375 1.1824128e-08 0)
(0.0069579354 1.1258667e-08 0)
(0.0069421257 1.0725277e-08 0)
(0.0069266842 1.0221514e-08 0)
(0.0069115881 9.7451734e-09 0)
(0.0068968165 9.2942769e-09 0)
(0.0068823495 8.8669379e-09 0)
(0.0068681689 8.4613794e-09 0)
(0.0068542577 8.0761437e-09 0)
(0.0068405996 7.7099419e-09 0)
(0.0068271796 7.3614436e-09 0)
(0.0068139833 7.0294201e-09 0)
(0.0068009975 6.7128133e-09 0)
(0.0067882096 6.4106263e-09 0)
(0.0067756077 6.1219168e-09 0)
(0.0067631807 5.8459929e-09 0)
(0.0067509175 5.5818163e-09 0)
(0.0067388093 5.3286314e-09 0)
(0.0067268461 5.0860931e-09 0)
(0.0067150189 4.8534756e-09 0)
(0.0067033192 4.6301664e-09 0)
(0.0066917391 4.4156539e-09 0)
(0.0066802708 4.2094745e-09 0)
(0.0066689071 4.0111976e-09 0)
(0.006657641 3.8203781e-09 0)
(0.006646466 3.6365957e-09 0)
(0.0066353761 3.4595449e-09 0)
(0.0066243651 3.2889459e-09 0)
(0.0066134273 3.1244781e-09 0)
(0.0066025572 2.965847e-09 0)
(0.0065917498 2.8128076e-09 0)
(0.0065809998 2.6651301e-09 0)
(0.0065703027 2.5225713e-09 0)
(0.0065596541 2.3849244e-09 0)
(0.0065490497 2.252029e-09 0)
(0.0065384854 2.1237008e-09 0)
(0.0065279576 1.9997454e-09 0)
(0.006517463 1.8799448e-09 0)
(0.0065069995 1.7641414e-09 0)
(0.0064965649 1.6512538e-09 0)
(0.0064861702 1.5433272e-09 0)
(0.0064757865 1.4281079e-09 0)
(0.0064658318 1.3010929e-09 0)
(0.0064566856 1.1824244e-09 0)
(0.0064483472 1.0798721e-09 0)
(0.00644071 9.9123085e-10 0)
(0.0064336773 9.1465781e-10 0)
(0.0064271691 8.4784084e-10 0)
(0.0064211221 7.8883033e-10 0)
(0.0064154847 7.3626847e-10 0)
(0.0064102137 6.8916885e-10 0)
(0.006405272 6.467546e-10 0)
(0.0064006276 6.0840191e-10 0)
(0.0063962526 5.7362162e-10 0)
(0.0063921222 5.4202362e-10 0)
(0.0063882143 5.1332448e-10 0)
(0.0063845083 4.872623e-10 0)
(0.0063809858 4.6391538e-10 0)
(0.0063776251 4.4279013e-10 0)
(0.006374415 4.2619878e-10 0)
(0.0063712998 4.0871883e-10 0)
(0.0063683481 4.087655e-10 0)
(0.0063652328 3.79511e-10 0)
(0.0063627159 4.3689153e-10 0)
(0.0063587377 2.686266e-10 -1.0103579e-25)
(1 9.0858295e-10 0)
(0.9999948 2.210225e-09 0)
(0.99998818 2.88843e-09 0)
(0.99998105 3.6797205e-09 0)
(0.99997277 4.8718228e-09 0)
(0.99996309 6.4543746e-09 0)
(0.99995179 8.5513634e-09 0)
(0.99993858 1.1375216e-08 0)
(0.99992305 1.5201735e-08 0)
(0.99990467 2.0405078e-08 0)
(0.99988282 2.7512179e-08 0)
(0.99985667 3.7302845e-08 0)
(0.99982511 5.0879676e-08 0)
(0.99978669 7.0100233e-08 0)
(0.99973915 9.7273233e-08 0)
(0.99967988 1.3829671e-07 0)
(0.99960264 1.962512e-07 0)
(0.99950436 3.0071884e-07 0)
(0.9993582 4.2965646e-07 0)
(0.99918155 7.9341642e-07 0)
(0.99880925 1.0628718e-06 0)
(0.99847937 2.7138642e-06 0)
(0.99712106 5.047437e-07 0)
(0.99814008 0.0017527602 0)
(0.045962302 0.0017777397 0)
(0.020038403 2.7154239e-05 0)
(0.015642429 5.483423e-06 0)
(0.013776586 2.4556303e-06 0)
(0.012807114 1.3999577e-06 0)
(0.012143098 9.7748333e-07 0)
(0.011656176 7.2769607e-07 0)
(0.011278049 5.6904301e-07 0)
(0.010973035 4.5977384e-07 0)
(0.010720509 3.8037381e-07 0)
(0.010506995 3.2068112e-07 0)
(0.010323425 2.7439303e-07 0)
(0.010163523 2.3758056e-07 0)
(0.01002271 2.0776737e-07 0)
(0.0098975328 1.8326368e-07 0)
(0.0097853403 1.6285213e-07 0)
(0.0096840695 1.4564828e-07 0)
(0.0095920826 1.3100359e-07 0)
(0.0095080591 1.1842791e-07 0)
(0.0094309226 1.0754357e-07 3.9417874e-35)
(0.0093597863 9.8056592e-08 0)
(0.0092939117 8.9735195e-08 0)
(0.0092326785 8.2394395e-08 0)
(0.0091755615 7.5884858e-08 0)
(0.0091221126 7.0084906e-08 0)
(0.0090719469 6.4894504e-08 0)
(0.0090247321 6.0230736e-08 0)
(0.0089801793 5.6024444e-08 0)
(0.0089380365 5.2217539e-08 0)
(0.0088980822 4.876092e-08 0)
(0.0088601213 4.5612898e-08 0)
(0.008823981 4.2737858e-08 0)
(0.0087895076 4.0105183e-08 0)
(0.008756564 3.7688448e-08 0)
(0.0087250274 3.5464759e-08 0)
(0.0086947874 3.341409e-08 0)
(0.0086657447 3.151884e-08 0)
(0.0086378097 2.9763715e-08 0)
(0.0086109009 2.8135348e-08 0)
(0.0085849444 2.6621831e-08 0)
(0.0085598728 2.5212489e-08 0)
(0.0085356248 2.3898219e-08 0)
(0.0085121435 2.2670505e-08 -1.2111535e-25)
(0.0084893778 2.1521727e-08 0)
(0.00846728 2.0445369e-08 0)
(0.0084458065 1.9435267e-08 0)
(0.0084249172 1.8486127e-08 0)
(0.0084045747 1.7593136e-08 0)
(0.0083847444 1.6751853e-08 0)
(0.0083653942 1.5958267e-08 0)
(0.0083464946 1.5208748e-08 0)
(0.0083280178 1.4500018e-08 0)
(0.0083099379 1.3829137e-08 0)
(0.0082922309 1.3193298e-08 0)
(0.0082748744 1.258986e-08 0)
(0.0082578477 1.2016655e-08 0)
(0.0082411309 1.1471767e-08 0)
(0.0082247053 1.0953219e-08 0)
(0.0082085537 1.0459183e-08 0)
(0.0081926597 9.9880856e-09 0)
(0.0081770079 9.5384445e-09 0)
(0.0081615839 9.1088593e-09 0)
(0.008146374 8.6982982e-09 0)
(0.0081313646 8.3052194e-09 0)
(0.0081165448 7.9284994e-09 0)
(0.0081019027 7.5676222e-09 0)
(0.0080874269 7.2215098e-09 0)
(0.0080731072 6.8892511e-09 0)
(0.0080589338 6.5700846e-09 0)
(0.0080448973 6.2633207e-09 0)
(0.0080309887 5.9683185e-09 0)
(0.0080171994 5.6844157e-09 0)
(0.0080035216 5.4109867e-09 0)
(0.0079899478 5.1475766e-09 0)
(0.0079764705 4.8937692e-09 0)
(0.0079630826 4.6490871e-09 0)
(0.0079497774 4.4130918e-09 0)
(0.0079365485 4.1854185e-09 0)
(0.0079233898 3.9657251e-09 0)
(0.0079102954 3.7536492e-09 0)
(0.0078972601 3.5488828e-09 0)
(0.0078842784 3.3511868e-09 0)
(0.0078713455 3.1602871e-09 0)
(0.0078584567 2.9758939e-09 0)
(0.0078456082 2.797683e-09 0)
(0.007832797 2.6254194e-09 0)
(0.0078200205 2.4575019e-09 0)
(0.007807292 2.2969485e-09 0)
(0.0077945765 2.1256876e-09 0)
(0.007782382 1.9370757e-09 0)
(0.0077711725 1.760834e-09 0)
(0.007760949 1.6084407e-09 0)
(0.0077515823 1.4766592e-09 0)
(0.0077429545 1.3627773e-09 0)
(0.0077349683 1.2633785e-09 0)
(0.0077275466 1.1755755e-09 0)
(0.0077206264 1.097355e-09 0)
(0.0077141547 1.0272534e-09 0)
(0.0077080863 9.641178e-10 0)
(0.0077023821 9.0702186e-10 0)
(0.0076970081 8.5523921e-10 0)
(0.0076919338 8.0819043e-10 0)
(0.0076871321 7.6545472e-10 0)
(0.0076825779 7.266432e-10 0)