/*--------------------------------*- C++ -*----------------------------------*\
| =========                 |                                                 |
| \\      /  F ield         | OpenFOAM: The Open Source CFD Toolbox           |
|  \\    /   O peration     | Version:  2206                                  |
|   \\  /    A nd           | Website:  www.openfoam.com                      |
|    \\/     M anipulation  |                                                 |
\*---------------------------------------------------------------------------*/
FoamFile
{
    version     2.0;
    format      ascii;
    arch        "LSB;label=32;scalar=64";
    class       volScalarField;
    location    "2000";
    object      k;
}
// * * * * * * * * * * * * * * * * * * * * * * * * * * * * * * * * * * * * * //

dimensions      [0 2 -2 0 0 0 0];

internalField   nonuniform List<scalar> 
13056
(
8.5443929e-05
5.8094668e-05
5.6708035e-05
5.6469523e-05
5.646292e-05
5.6472004e-05
5.6474889e-05
5.6475916e-05
5.6477325e-05
5.6479678e-05
5.6483139e-05
5.6487843e-05
5.6493969e-05
5.6501781e-05
5.6511637e-05
5.6524103e-05
5.6539967e-05
5.6560123e-05
5.6589547e-05
5.6614251e-05
5.6732037e-05
5.6541209e-05
5.781476e-05
1.4904377e-05
3.0827847e-07
4.8160827e-08
2.4450241e-08
1.6509817e-08
1.2626848e-08
1.0260503e-08
8.6610863e-09
7.4928907e-09
6.5998568e-09
5.8950317e-09
5.32348e-09
4.8497904e-09
4.4504798e-09
4.1091651e-09
3.8139252e-09
3.5558989e-09
3.3283886e-09
3.1262462e-09
2.9452474e-09
2.7824245e-09
2.63498e-09
2.5008373e-09
2.3782419e-09
2.2657382e-09
2.1621074e-09
2.0663215e-09
1.9775033e-09
1.8949021e-09
1.8178722e-09
1.7458543e-09
1.6783647e-09
1.6149807e-09
1.5553294e-09
1.499082e-09
1.4459486e-09
1.3956716e-09
1.3480218e-09
1.302796e-09
1.2598133e-09
1.2189101e-09
1.1799381e-09
1.1427644e-09
1.1072701e-09
1.0733483e-09
1.0409023e-09
1.009846e-09
9.8010409e-10
9.5160926e-10
9.2430175e-10
8.9812968e-10
8.7304763e-10
8.490172e-10
8.2600735e-10
8.0399735e-10
7.8298296e-10
7.6296653e-10
7.4395805e-10
7.2597797e-10
7.0905498e-10
6.9323175e-10
6.7857605e-10
6.6518839e-10
6.5319011e-10
6.4275621e-10
6.3432495e-10
6.2741536e-10
6.2441729e-10
6.2332754e-10
6.2620061e-10
6.3322031e-10
6.4526677e-10
6.6314695e-10
6.8753265e-10
7.1843771e-10
7.5611864e-10
8.005072e-10
8.4923341e-10
8.9717264e-10
9.4238601e-10
9.7563179e-10
1.0044447e-09
1.025046e-09
1.0403341e-09
1.0515046e-09
1.0594385e-09
1.0647695e-09
1.0679185e-09
1.0691914e-09
1.0686198e-09
1.0662333e-09
1.0622658e-09
1.0569205e-09
1.050442e-09
1.0431463e-09
1.035234e-09
1.0268669e-09
1.0182582e-09
1.0095497e-09
1.0008007e-09
9.9206874e-10
9.8344124e-10
9.7496363e-10
9.6663532e-10
9.5843707e-10
9.5037496e-10
9.4244559e-10
9.3468333e-10
9.2673e-10
9.1917289e-10
9.098166e-10
9.0225672e-10
8.9131947e-10
8.5442053e-05
5.8089756e-05
5.6702991e-05
5.6464403e-05
5.6457774e-05
5.6466853e-05
5.6469736e-05
5.6470762e-05
5.647217e-05
5.6474523e-05
5.6477984e-05
5.6482687e-05
5.6488812e-05
5.6496625e-05
5.6506479e-05
5.6518946e-05
5.6534809e-05
5.6554964e-05
5.6584387e-05
5.6609089e-05
5.672687e-05
5.6536039e-05
5.7809559e-05
1.4906644e-05
4.7423371e-08
7.395978e-09
3.754781e-09
2.5353835e-09
1.9390831e-09
1.5756882e-09
1.3300688e-09
1.1506712e-09
1.0135296e-09
9.0529092e-10
8.1751876e-10
7.4477508e-10
6.8345366e-10
6.310386e-10
5.8569921e-10
5.4607469e-10
5.1113644e-10
4.800939e-10
4.5229833e-10
4.2729401e-10
4.0465131e-10
3.8405137e-10
3.6522471e-10
3.4794782e-10
3.3203353e-10
3.1732399e-10
3.0368446e-10
2.9099967e-10
2.7917043e-10
2.6811088e-10
2.5774672e-10
2.4801304e-10
2.3885255e-10
2.3021479e-10
2.2205529e-10
2.1433455e-10
2.070173e-10
2.0007232e-10
1.9347183e-10
1.8719071e-10
1.8120619e-10
1.7549785e-10
1.7004745e-10
1.6483855e-10
1.5985631e-10
1.5508752e-10
1.5052053e-10
1.4614494e-10
1.419517e-10
1.3793335e-10
1.3408257e-10
1.3039344e-10
1.2686122e-10
1.2348273e-10
1.2025737e-10
1.1718549e-10
1.1426852e-10
1.1150904e-10
1.089117e-10
1.0648592e-10
1.042403e-10
1.0219044e-10
1.0035521e-10
9.8761771e-11
9.7477572e-11
9.6427539e-11
9.5972096e-11
9.5822988e-11
9.6290905e-11
9.7402073e-11
9.9292977e-11
1.0208872e-10
1.0589281e-10
1.1070647e-10
1.1656626e-10
1.2345438e-10
1.3099591e-10
1.3839786e-10
1.4536849e-10
1.5049089e-10
1.5493281e-10
1.5811248e-10
1.6047706e-10
1.6221006e-10
1.6344568e-10
1.6428017e-10
1.6477752e-10
1.6498429e-10
1.6490501e-10
1.6454394e-10
1.63937e-10
1.6311588e-10
1.6211866e-10
1.6099437e-10
1.5977426e-10
1.5848348e-10
1.5715505e-10
1.5581093e-10
1.5446039e-10
1.5311236e-10
1.5178036e-10
1.504714e-10
1.4918544e-10
1.4791955e-10
1.4667469e-10
1.4545034e-10
1.4425173e-10
1.4302399e-10
1.4185694e-10
1.4041402e-10
1.392469e-10
1.3755826e-10
8.5436048e-05
5.8074384e-05
5.6687234e-05
5.6448414e-05
5.6441708e-05
5.6450771e-05
5.6453649e-05
5.6454673e-05
5.6456079e-05
5.6458429e-05
5.6461889e-05
5.6466591e-05
5.6472715e-05
5.6480526e-05
5.649038e-05
5.6502844e-05
5.6518705e-05
5.6538857e-05
5.6568275e-05
5.659297e-05
5.6710732e-05
5.6519911e-05
5.7793207e-05
1.49097e-05
1.4827406e-08
2.3071176e-09
1.171277e-09
7.9089673e-10
6.0489049e-10
4.9153624e-10
4.1491943e-10
3.5895903e-10
3.161795e-10
2.8241549e-10
2.5503561e-10
2.3234362e-10
2.1321472e-10
1.9686429e-10
1.8272139e-10
1.703614e-10
1.5946325e-10
1.4978029e-10
1.4111019e-10
1.333108e-10
1.2624812e-10
1.1982268e-10
1.1395044e-10
1.0856167e-10
1.03598e-10
9.9010189e-11
9.4756179e-11
9.0800007e-11
8.7110698e-11
8.3661434e-11
8.0429055e-11
7.7393274e-11
7.4536173e-11
7.1842062e-11
6.929746e-11
6.6890402e-11
6.4609487e-11
6.2444844e-11
6.0387823e-11
5.8430607e-11
5.6566082e-11
5.4787903e-11
5.3090419e-11
5.1468463e-11
4.9917415e-11
4.8433097e-11
4.7011631e-11
4.5649264e-11
4.4343956e-11
4.3096444e-11
4.190247e-11
4.0759993e-11
3.9667707e-11
3.8624808e-11
3.7631373e-11
3.6687597e-11
3.5793435e-11
3.494644e-11
3.4149619e-11
3.3422536e-11
3.2757767e-11
3.2161459e-11
3.1641376e-11
3.1208249e-11
3.088471e-11
3.0642792e-11
3.056069e-11
3.065139e-11
3.0989436e-11
3.1575708e-11
3.2463045e-11
3.370026e-11
3.5324952e-11
3.7335343e-11
3.9731786e-11
4.2470683e-11
4.536786e-11
4.8125551e-11
5.0656663e-11
5.2523163e-11
5.4140457e-11
5.5328028e-11
5.6241889e-11
5.6944069e-11
5.7474513e-11
5.7860867e-11
5.8122126e-11
5.8271709e-11
5.8309395e-11
5.8234664e-11
5.8059174e-11
5.7796344e-11
5.7462323e-11
5.7076284e-11
5.6651282e-11
5.6197862e-11
5.5728384e-11
5.5251249e-11
5.4770548e-11
5.4289927e-11
5.3814214e-11
5.3346037e-11
5.2885706e-11
5.2432492e-11
5.1986777e-11
5.1548553e-11
5.1119087e-11
5.0681912e-11
5.0262907e-11
4.975931e-11
4.9342883e-11
4.873954e-11
8.542573e-05
5.8048057e-05
5.6660251e-05
5.6421038e-05
5.64142e-05
5.6423235e-05
5.6426106e-05
5.6427125e-05
5.6428527e-05
5.6430874e-05
5.6434331e-05
5.6439031e-05
5.6445154e-05
5.6452963e-05
5.6462814e-05
5.6475276e-05
5.6491133e-05
5.6511279e-05
5.6540689e-05
5.6565371e-05
5.6683099e-05
5.6492303e-05
5.7765174e-05
1.4913708e-05
6.5892484e-09
1.017297e-09
5.1647219e-10
3.4875188e-10
2.6675136e-10
2.1678223e-10
1.830064e-10
1.5833546e-10
1.3947462e-10
1.2458751e-10
1.1251462e-10
1.0250837e-10
9.4073243e-11
8.6863867e-11
8.0628865e-11
7.5180623e-11
7.0376946e-11
6.6108989e-11
6.22876e-11
5.8850159e-11
5.5737633e-11
5.2906188e-11
5.0318783e-11
4.794469e-11
4.5758178e-11
4.3737573e-11
4.1864236e-11
4.0122279e-11
3.8497951e-11
3.6979341e-11
3.5556296e-11
3.4219749e-11
3.2961667e-11
3.1775286e-11
3.0655803e-11
2.9598979e-11
2.859865e-11
2.7650077e-11
2.67495e-11
2.5893535e-11
2.5079022e-11
2.4303235e-11
2.3563825e-11
2.2858424e-11
2.2185055e-11
2.1541753e-11
2.0926158e-11
2.0335221e-11
1.9770249e-11
1.9240183e-11
1.8737755e-11
1.826163e-11
1.7811849e-11
1.7388741e-11
1.6993287e-11
1.6626118e-11
1.6286308e-11
1.5964639e-11
1.5666588e-11
1.5444709e-11
1.5270723e-11
1.5151891e-11
1.509814e-11
1.5122414e-11
1.5242243e-11
1.5440784e-11
1.5681729e-11
1.6200708e-11
1.6994924e-11
1.8060571e-11
1.9457222e-11
2.1242712e-11
2.3459014e-11
2.611201e-11
2.9194237e-11
3.2607501e-11
3.6085961e-11
3.9309036e-11
4.2123067e-11
4.4311632e-11
4.6139451e-11
4.7572082e-11
4.8737573e-11
4.9697202e-11
5.0480401e-11
5.1108718e-11
5.1598906e-11
5.1959351e-11
5.2186845e-11
5.2275788e-11
5.2233812e-11
5.2079504e-11
5.1835232e-11
5.1523557e-11
5.1162076e-11
5.0765066e-11
5.0345615e-11
4.9913105e-11
4.9473596e-11
4.9031779e-11
4.8592128e-11
4.8157417e-11
4.7728883e-11
4.7306775e-11
4.6891578e-11
4.6483776e-11
4.6082807e-11
4.5682552e-11
4.5288886e-11
4.4857602e-11
4.4473899e-11
4.3915526e-11
8.5410806e-05
5.8009995e-05
5.6621242e-05
5.6381459e-05
5.6374432e-05
5.6383427e-05
5.6386286e-05
5.6387298e-05
5.6388694e-05
5.6391038e-05
5.6394491e-05
5.6399188e-05
5.6405308e-05
5.6413114e-05
5.6422962e-05
5.6435419e-05
5.645127e-05
5.6471409e-05
5.6500806e-05
5.652547e-05
5.6643146e-05
5.6452393e-05
5.7724635e-05
1.4918961e-05
3.6056401e-09
5.4279345e-10
2.7559898e-10
1.8611887e-10
1.4240656e-10
1.1577627e-10
9.7772608e-11
8.4619059e-11
7.4561249e-11
6.6620107e-11
6.0178734e-11
5.4839059e-11
5.0337675e-11
4.6491601e-11
4.3167511e-11
4.0264518e-11
3.7705413e-11
3.5431912e-11
3.3396609e-11
3.1566237e-11
2.9909408e-11
2.8402795e-11
2.7026679e-11
2.5764706e-11
2.4603167e-11
2.353058e-11
2.2536781e-11
2.161322e-11
2.075239e-11
1.9947786e-11
1.9194116e-11
1.8486312e-11
1.7819826e-11
1.7191368e-11
1.6600681e-11
1.6047625e-11
1.552665e-11
1.5034463e-11
1.4569191e-11
1.4129181e-11
1.3712692e-11
1.3318442e-11
1.2945525e-11
1.2592601e-11
1.2258813e-11
1.1942974e-11
1.1642693e-11
1.1353791e-11
1.1081189e-11
1.084623e-11
1.0635166e-11
1.0446754e-11
1.0282572e-11
1.0144605e-11
1.0035766e-11
9.9583654e-12
9.9116309e-12
9.8780887e-12
9.868085e-12
9.9850494e-12
1.0176282e-11
1.0457207e-11
1.0849295e-11
1.1380855e-11
1.2085455e-11
1.2973297e-11
1.3981917e-11
1.5468721e-11
1.7451216e-11
1.9972177e-11
2.3151894e-11
2.7109804e-11
3.1933481e-11
3.7644926e-11
4.4231323e-11
5.1464986e-11
5.8771171e-11
6.5514951e-11
7.1295697e-11
7.5925983e-11
7.971737e-11
8.2771956e-11
8.530295e-11
8.7430718e-11
8.9205198e-11
9.0665978e-11
9.184601e-11
9.2757735e-11
9.3392621e-11
9.3734878e-11
9.3794961e-11
9.3613882e-11
9.3240968e-11
9.2722944e-11
9.2098246e-11
9.1398107e-11
9.0648329e-11
8.9867891e-11
8.9070452e-11
8.826609e-11
8.7462987e-11
8.6666604e-11
8.5880283e-11
8.5105528e-11
8.4343373e-11
8.3595267e-11
8.2858204e-11
8.2131363e-11
8.140495e-11
8.0655957e-11
7.9956365e-11
7.8935522e-11
8.5390887e-05
5.7959138e-05
5.6569118e-05
5.6328571e-05
5.6321293e-05
5.6330233e-05
5.6333077e-05
5.633408e-05
5.6335469e-05
5.6337806e-05
5.6341255e-05
5.6345948e-05
5.6352064e-05
5.6359866e-05
5.6369709e-05
5.6382161e-05
5.6398004e-05
5.6418132e-05
5.6447512e-05
5.6472153e-05
5.6589757e-05
5.6399063e-05
5.7670468e-05
1.4925903e-05
2.3207558e-09
3.2713932e-10
1.6615888e-10
1.1224851e-10
8.5983953e-11
6.9997123e-11
5.9182451e-11
5.127503e-11
4.5224903e-11
4.044377e-11
3.6563043e-11
3.3344411e-11
3.0630931e-11
2.8314602e-11
2.6316482e-11
2.4574481e-11
2.3039694e-11
2.1676607e-11
2.0456965e-11
1.9361009e-11
1.8370038e-11
1.7470109e-11
1.6649427e-11
1.5898215e-11
1.5208255e-11
1.4572792e-11
1.3985262e-11
1.3440365e-11
1.2933355e-11
1.2460117e-11
1.2017694e-11
1.1602686e-11
1.1211948e-11
1.0844024e-11
1.0502499e-11
1.019078e-11
9.9019498e-12
9.6328362e-12
9.3825801e-12
9.150492e-12
8.9354153e-12
8.7369316e-12
8.5551925e-12
8.3895378e-12
8.2399611e-12
8.1057975e-12
7.9842651e-12
7.8694307e-12
7.7704982e-12
7.724789e-12
7.7107417e-12
7.7276353e-12
7.7797226e-12
7.8722147e-12
8.0119643e-12
8.2057348e-12
8.4571426e-12
8.7472966e-12
9.0925584e-12
9.6346947e-12
1.0318786e-11
1.1178463e-11
1.2259443e-11
1.3622545e-11
1.5339259e-11
1.746692e-11
1.9937692e-11
2.3304438e-11
2.7654241e-11
3.3126581e-11
3.9973649e-11
4.8447357e-11
5.8735048e-11
7.0890631e-11
8.4896108e-11
1.0027229e-10
1.158085e-10
1.3017977e-10
1.4246711e-10
1.5240058e-10
1.6048768e-10
1.6704403e-10
1.7249185e-10
1.7708546e-10
1.8092859e-10
1.8410633e-10
1.8669021e-10
1.8870543e-10
1.9013358e-10
1.9093931e-10
1.9114207e-10
1.9082998e-10
1.9010901e-10
1.8907804e-10
1.8781946e-10
1.8640024e-10
1.8487433e-10
1.8328165e-10
1.8165171e-10
1.80006e-10
1.7836131e-10
1.7672903e-10
1.7511665e-10
1.7352785e-10
1.7196484e-10
1.7043092e-10
1.6891877e-10
1.6743275e-10
1.6594085e-10
1.6442958e-10
1.6299763e-10
1.609065e-10
8.5365481e-05
5.7894156e-05
5.6502508e-05
5.6260983e-05
5.6253383e-05
5.6262253e-05
5.6265077e-05
5.6266067e-05
5.6267447e-05
5.6269777e-05
5.627322e-05
5.6277908e-05
5.6284018e-05
5.6291816e-05
5.6301653e-05
5.6314098e-05
5.6329931e-05
5.6350045e-05
5.6379403e-05
5.6404016e-05
5.6521525e-05
5.6330909e-05
5.760126e-05
1.4935155e-05
1.7693847e-09
2.1723671e-10
1.1043968e-10
7.4674365e-11
5.7378105e-11
4.6875478e-11
3.975894e-11
3.4544498e-11
3.0548509e-11
2.7383968e-11
2.48113e-11
2.2675052e-11
2.0873956e-11
1.9339792e-11
1.8022304e-11
1.6878492e-11
1.5872215e-11
1.497926e-11
1.4181423e-11
1.3466091e-11
1.2821227e-11
1.2237779e-11
1.1708071e-11
1.1225749e-11
1.0785437e-11
1.0382947e-11
1.0013136e-11
9.6722301e-12
9.3568937e-12
9.0642669e-12
8.7927577e-12
8.5397241e-12
8.3026006e-12
8.0811448e-12
7.8827277e-12
7.7143708e-12
7.566939e-12
7.4368751e-12
7.3240999e-12
7.2287097e-12
7.1497531e-12
7.0875971e-12
7.0436136e-12
7.0182379e-12
7.0126442e-12
7.0272103e-12
7.0597021e-12
7.103836e-12
7.1723688e-12
7.3149305e-12
7.5072064e-12
7.7511371e-12
8.055556e-12
8.4313158e-12
8.8922822e-12
9.4533018e-12
1.0126471e-11
1.0892986e-11
1.1780842e-11
1.2990186e-11
1.4468714e-11
1.6283234e-11
1.8523394e-11
2.1309031e-11
2.4782046e-11
2.9082858e-11
3.415925e-11
4.0888313e-11
4.949232e-11
6.0288239e-11
7.3769571e-11
9.0430208e-11
1.1064108e-10
1.345145e-10
1.6202841e-10
1.9225971e-10
2.2285272e-10
2.5121797e-10
2.7548111e-10
2.951672e-10
3.111621e-10
3.2414811e-10
3.3493756e-10
3.4403332e-10
3.5164241e-10
3.5793711e-10
3.6306195e-10
3.6706748e-10
3.6991805e-10
3.7154342e-10
3.7198055e-10
3.7140335e-10
3.700209e-10
3.6802763e-10
3.65586e-10
3.628281e-10
3.5985962e-10
3.5675895e-10
3.5358437e-10
3.5037823e-10
3.4717323e-10
3.4399173e-10
3.4084861e-10
3.377514e-10
3.3470445e-10
3.3171432e-10
3.2876621e-10
3.2587173e-10
3.2296224e-10
3.2002912e-10
3.1723908e-10
3.1316385e-10
8.5334008e-05
5.7813446e-05
5.6419761e-05
5.6177016e-05
5.6169015e-05
5.6177796e-05
5.6180596e-05
5.6181571e-05
5.6182939e-05
5.618526e-05
5.6188695e-05
5.6193376e-05
5.6199481e-05
5.6207272e-05
5.6217102e-05
5.6229538e-05
5.6245359e-05
5.6265456e-05
5.6294787e-05
5.6319364e-05
5.6436756e-05
5.6246235e-05
5.7515316e-05
1.4947548e-05
1.635239e-09
1.5994206e-10
8.1479931e-11
5.5202997e-11
4.2706292e-11
3.5160369e-11
3.0027993e-11
2.6249355e-11
2.3344013e-11
2.1033896e-11
1.9150067e-11
1.7582527e-11
1.6261003e-11
1.5139911e-11
1.4185104e-11
1.3363007e-11
1.2642091e-11
1.2003611e-11
1.1435061e-11
1.0927978e-11
1.0474112e-11
1.0067126e-11
9.7016229e-12
9.373151e-12
9.0778827e-12
8.813234e-12
8.5741313e-12
8.3573899e-12
8.1606852e-12
7.9821439e-12
7.8211371e-12
7.6755754e-12
7.5433073e-12
7.4249513e-12
7.3306517e-12
7.2702713e-12
7.2333671e-12
7.2163277e-12
7.2199121e-12
7.2451019e-12
7.2908974e-12
7.358633e-12
7.4514174e-12
7.5713314e-12
7.721335e-12
7.9034821e-12
8.1166784e-12
8.3547268e-12
8.6355781e-12
9.025586e-12
9.4981569e-12
1.0060068e-11
1.072778e-11
1.1521593e-11
1.2467206e-11
1.359317e-11
1.492626e-11
1.6449521e-11
1.8212046e-11
2.0506135e-11
2.3287337e-11
2.6678861e-11
3.0844937e-11
3.6005723e-11
4.2423934e-11
5.0383016e-11
5.9884732e-11
7.2313426e-11
8.8131199e-11
1.0796346e-10
1.3271504e-10
1.6329224e-10
2.0038047e-10
2.4419293e-10
2.9470697e-10
3.5025715e-10
4.0655186e-10
4.5884539e-10
5.0361572e-10
5.4000953e-10
5.6955178e-10
5.9354453e-10
6.1346806e-10
6.3025241e-10
6.4428484e-10
6.5589022e-10
6.6534011e-10
6.7272995e-10
6.7799529e-10
6.8100692e-10
6.8183217e-10
6.8079119e-10
6.7826887e-10
6.7462266e-10
6.7015157e-10
6.6509869e-10
6.5965818e-10
6.539741e-10
6.4815373e-10
6.4227505e-10
6.3639797e-10
6.3056358e-10
6.2479937e-10
6.1911931e-10
6.1353139e-10
6.0804778e-10
6.0264095e-10
5.9733401e-10
5.9199754e-10
5.8662565e-10
5.8150971e-10
5.7403669e-10
8.5295794e-05
5.7715133e-05
5.6318945e-05
5.6074706e-05
5.6066216e-05
5.6074888e-05
5.6077657e-05
5.6078614e-05
5.6079967e-05
5.6082276e-05
5.6085702e-05
5.6090376e-05
5.6096473e-05
5.6104256e-05
5.6114078e-05
5.6126502e-05
5.6142308e-05
5.6162385e-05
5.6191683e-05
5.6216218e-05
5.6333465e-05
5.6143059e-05
5.7410651e-05
1.4964166e-05
1.8193438e-09
1.3456767e-10
6.8804645e-11
4.6779327e-11
3.6620532e-11
3.0551392e-11
2.6394476e-11
2.330691e-11
2.0919796e-11
1.9011134e-11
1.7447871e-11
1.6143851e-11
1.5045261e-11
1.4118512e-11
1.3337704e-11
1.2673631e-11
1.2094584e-11
1.1583652e-11
1.1131627e-11
1.0732586e-11
1.0380472e-11
1.0070428e-11
9.7982732e-12
9.560591e-12
9.3543496e-12
9.1781136e-12
9.0256962e-12
8.8938109e-12
8.7809587e-12
8.6861767e-12
8.6097227e-12
8.5499389e-12
8.5049729e-12
8.4763214e-12
8.4773875e-12
8.5214571e-12
8.5965131e-12
8.6989065e-12
8.8305047e-12
8.993494e-12
9.1865892e-12
9.4125082e-12
9.6770118e-12
9.9847261e-12
1.034141e-11
1.0751807e-11
1.1216807e-11
1.1730801e-11
1.2319986e-11
1.307568e-11
1.3968661e-11
1.5013758e-11
1.6239798e-11
1.7682442e-11
1.9386682e-11
2.1403532e-11
2.3784287e-11
2.6517676e-11
2.968863e-11
3.3728908e-11
3.8613069e-11
4.4556578e-11
5.1845508e-11
6.0864096e-11
7.2073778e-11
8.5996737e-11
1.0275774e-10
1.2450726e-10
1.5211383e-10
1.8671839e-10
2.2989937e-10
2.8323846e-10
3.4793808e-10
4.2437886e-10
5.1254503e-10
6.0957135e-10
7.080131e-10
7.9959341e-10
8.7806351e-10
9.419302e-10
9.9374454e-10
1.0358273e-09
1.0707534e-09
1.1001564e-09
1.1247233e-09
1.1450334e-09
1.1615693e-09
1.1745017e-09
1.1837197e-09
1.1889979e-09
1.1904535e-09
1.1886465e-09
1.1842499e-09
1.1778883e-09
1.1700847e-09
1.1612641e-09
1.1517656e-09
1.1418411e-09
1.1316781e-09
1.121413e-09
1.1111504e-09
1.1009621e-09
1.0908962e-09
1.0809773e-09
1.0712192e-09
1.0616434e-09
1.0522014e-09
1.0429348e-09
1.0336155e-09
1.024239e-09
1.0153057e-09
1.0022561e-09
8.5250085e-05
5.7597073e-05
5.6197847e-05
5.5951801e-05
5.5942722e-05
5.5951261e-05
5.5953993e-05
5.5954928e-05
5.5956263e-05
5.5958558e-05
5.5961973e-05
5.5966637e-05
5.5972725e-05
5.5980499e-05
5.599031e-05
5.6002722e-05
5.601851e-05
5.6038561e-05
5.606782e-05
5.6092305e-05
5.6209378e-05
5.6019106e-05
5.7285e-05
1.4986395e-05
2.3198296e-09
1.3367068e-10
6.867612e-11
4.6906094e-11
3.7280894e-11
3.1619292e-11
2.7702158e-11
2.475608e-11
2.2461668e-11
2.061519e-11
1.9095076e-11
1.7823958e-11
1.6754623e-11
1.5858472e-11
1.5112494e-11
1.4487681e-11
1.3947188e-11
1.347288e-11
1.3057314e-11
1.2696164e-11
1.2384559e-11
1.2118282e-11
1.1893648e-11
1.1707687e-11
1.1557633e-11
1.1443029e-11
1.1355214e-11
1.1290128e-11
1.1247091e-11
1.122617e-11
1.1228655e-11
1.1253304e-11
1.1298537e-11
1.1366981e-11
1.1476552e-11
1.1645269e-11
1.1858852e-11
1.2113598e-11
1.2412988e-11
1.2760985e-11
1.3155731e-11
1.3602032e-11
1.410976e-11
1.4687533e-11
1.5345519e-11
1.6092779e-11
1.6933612e-11
1.7864011e-11
1.8922996e-11
2.0238533e-11
2.1778833e-11
2.3571819e-11
2.5665948e-11
2.8121314e-11
3.1013634e-11
3.4429882e-11
3.8461323e-11
4.3109816e-11
4.8518723e-11
5.5324923e-11
6.3543439e-11
7.3536881e-11
8.578543e-11
1.0093496e-10
1.1976512e-10
1.4318625e-10
1.7156384e-10
2.0818384e-10
2.5458225e-10
3.1273765e-10
3.853033e-10
4.7493875e-10
5.8367405e-10
7.121601e-10
8.6040203e-10
1.0236391e-09
1.1894154e-09
1.3438195e-09
1.4762134e-09
1.584065e-09
1.6715304e-09
1.7425656e-09
1.8014921e-09
1.8510711e-09
1.8924731e-09
1.9266889e-09
1.9545419e-09
1.9763247e-09
1.9918533e-09
2.0007485e-09
2.003208e-09
2.0001745e-09
1.9927811e-09
1.9820796e-09
1.9689502e-09
1.9541085e-09
1.9381256e-09
1.9214252e-09
1.9043232e-09
1.8870491e-09
1.8697791e-09
1.8526339e-09
1.8356947e-09
1.8190026e-09
1.8025813e-09
1.7864667e-09
1.7705773e-09
1.7549836e-09
1.7393003e-09
1.723524e-09
1.7084908e-09
1.6865307e-09
8.5196045e-05
5.7456844e-05
5.6053967e-05
5.5805757e-05
5.5795974e-05
5.5804354e-05
5.5807041e-05
5.5807949e-05
5.5809263e-05
5.5811541e-05
5.5814943e-05
5.5819595e-05
5.5825672e-05
5.5833436e-05
5.5843234e-05
5.585563e-05
5.5871397e-05
5.5891419e-05
5.5920631e-05
5.5945058e-05
5.6061924e-05
5.5871808e-05
5.7135806e-05
1.5015977e-05
3.1982278e-09
1.5656745e-10
8.0808965e-11
5.5430696e-11
4.4676357e-11
3.8454764e-11
3.4103794e-11
3.0788643e-11
2.81883e-11
2.6083774e-11
2.4343451e-11
2.2885735e-11
2.166168e-11
2.0641845e-11
1.9801425e-11
1.9107495e-11
1.8512156e-11
1.7992805e-11
1.7542618e-11
1.7158257e-11
1.6835284e-11
1.6569433e-11
1.6356905e-11
1.6194692e-11
1.6079826e-11
1.6012861e-11
1.5980837e-11
1.5978119e-11
1.6005022e-11
1.6062987e-11
1.6154696e-11
1.6279439e-11
1.6435993e-11
1.6628597e-11
1.6881564e-11
1.7219587e-11
1.7625242e-11
1.8094847e-11
1.8634308e-11
1.925028e-11
1.9939941e-11
2.0711291e-11
2.158056e-11
2.2562624e-11
2.3674556e-11
2.4932292e-11
2.6345912e-11
2.7914944e-11
2.9697891e-11
3.187539e-11
3.4414329e-11
3.7363583e-11
4.0802295e-11
4.4828795e-11
4.9566912e-11
5.5160206e-11
6.1763837e-11
6.9405966e-11
7.8322829e-11
8.9448349e-11
1.0287572e-10
1.1919816e-10
1.3919977e-10
1.6393636e-10
1.9468777e-10
2.3298286e-10
2.796215e-10
3.3955529e-10
4.1539183e-10
5.1044284e-10
6.2904635e-10
7.7555174e-10
9.5328995e-10
1.1633395e-09
1.4057511e-09
1.6728164e-09
1.944249e-09
2.1973059e-09
2.4144181e-09
2.5914067e-09
2.7348993e-09
2.8514306e-09
2.9480589e-09
3.0293187e-09
3.0971459e-09
3.1531826e-09
3.1987913e-09
3.2344585e-09
3.2598861e-09
3.2744546e-09
3.2784876e-09
3.2735286e-09
3.2614323e-09
3.2439207e-09
3.2224346e-09
3.1981454e-09
3.1719879e-09
3.1446557e-09
3.116666e-09
3.0883945e-09
3.0601295e-09
3.0320687e-09
3.0043448e-09
2.9770255e-09
2.9501493e-09
2.923775e-09
2.8977693e-09
2.8722479e-09
2.8465793e-09
2.8207607e-09
2.7961565e-09
2.7602152e-09
8.5132764e-05
5.7291748e-05
5.5884509e-05
5.5633729e-05
5.5623114e-05
5.5631302e-05
5.5633936e-05
5.5634811e-05
5.56361e-05
5.5638359e-05
5.5641744e-05
5.5646382e-05
5.5652447e-05
5.5660197e-05
5.5669981e-05
5.5682358e-05
5.56981e-05
5.5718088e-05
5.5747246e-05
5.5771606e-05
5.5888227e-05
5.5698293e-05
5.696022e-05
1.5055074e-05
4.5748417e-09
2.0753606e-10
1.0746751e-10
7.3942154e-11
6.0180484e-11
5.2323265e-11
4.6781826e-11
4.2517019e-11
3.9154393e-11
3.6423227e-11
3.41583e-11
3.2259908e-11
3.0668591e-11
2.9347879e-11
2.8266017e-11
2.7381406e-11
2.6627287e-11
2.5972537e-11
2.5409911e-11
2.4936619e-11
2.4547976e-11
2.4238964e-11
2.4005036e-11
2.3842653e-11
2.3748141e-11
2.3723272e-11
2.3748192e-11
2.3814595e-11
2.3924195e-11
2.4080452e-11
2.4288068e-11
2.4547148e-11
2.4857077e-11
2.5224467e-11
2.5682631e-11
2.6265631e-11
2.69519e-11
2.7738035e-11
2.8633627e-11
2.9649431e-11
3.0781094e-11
3.2041502e-11
3.345666e-11
3.5051192e-11
3.6852891e-11
3.8888532e-11
4.1177806e-11
4.3727184e-11
4.6624335e-11
5.0124585e-11
5.4196829e-11
5.892304e-11
6.4429754e-11
7.087443e-11
7.8455311e-11
8.740387e-11
9.7975869e-11
1.102479e-10
1.2460132e-10
1.4239684e-10
1.6386882e-10
1.899674e-10
2.2194658e-10
2.6149646e-10
3.1067287e-10
3.7197534e-10
4.4694926e-10
5.4297592e-10
6.6435485e-10
8.164873e-10
1.0063189e-09
1.240815e-09
1.5253245e-09
1.8615931e-09
2.2497583e-09
2.6775799e-09
3.1126829e-09
3.5186558e-09
3.8671368e-09
4.1513769e-09
4.3817703e-09
4.5688637e-09
4.7239495e-09
4.8543153e-09
4.9630894e-09
5.0529315e-09
5.1260442e-09
5.1832173e-09
5.2239772e-09
5.2473327e-09
5.2538028e-09
5.2458611e-09
5.2264805e-09
5.1984206e-09
5.1639907e-09
5.1250681e-09
5.083151e-09
5.0393513e-09
4.9944975e-09
4.9491921e-09
4.9038967e-09
4.8589285e-09
4.8145002e-09
4.7707202e-09
4.7276502e-09
4.6853846e-09
4.6437095e-09
4.6028109e-09
4.5616762e-09
4.5203023e-09
4.4808735e-09
4.4232765e-09
8.5059267e-05
5.7098799e-05
5.568638e-05
5.5432564e-05
5.5420971e-05
5.5428931e-05
5.5431501e-05
5.5432337e-05
5.5433597e-05
5.5435831e-05
5.5439197e-05
5.5443819e-05
5.5449869e-05
5.5457604e-05
5.5467371e-05
5.5479727e-05
5.549544e-05
5.5515388e-05
5.5544483e-05
5.5568766e-05
5.5685101e-05
5.5495379e-05
5.6755094e-05
1.5106323e-05
6.638812e-09
2.9585046e-10
1.5349805e-10
1.0580257e-10
8.6600978e-11
7.5729311e-11
6.8021036e-11
6.2051507e-11
5.7330698e-11
5.3490193e-11
5.0301148e-11
4.7628424e-11
4.5391133e-11
4.3537946e-11
4.202347e-11
4.0791322e-11
3.974499e-11
3.8839278e-11
3.8065375e-11
3.742068e-11
3.6899521e-11
3.6495278e-11
3.6201879e-11
3.6014656e-11
3.5928597e-11
3.5947114e-11
3.6039636e-11
3.6193624e-11
3.6412907e-11
3.6704036e-11
3.7074727e-11
3.752644e-11
3.8059646e-11
3.8684487e-11
3.9446831e-11
4.0393787e-11
4.149859e-11
4.2758683e-11
4.4189253e-11
4.5807288e-11
4.7606073e-11
4.9605939e-11
5.1847816e-11
5.4371408e-11
5.7221016e-11
6.0440333e-11
6.4064715e-11
6.8113305e-11
7.2717057e-11
7.8236445e-11
8.4649158e-11
9.208885e-11
1.0075463e-10
1.1089456e-10
1.2282095e-10
1.3690054e-10
1.5354563e-10
1.7291727e-10
1.9562094e-10
2.2362829e-10
2.5741702e-10
2.9848454e-10
3.4880486e-10
4.1104045e-10
4.8843937e-10
5.8500704e-10
7.0352622e-10
8.5491209e-10
1.046102e-09
1.2857354e-09
1.5847566e-09
1.9541428e-09
2.4023432e-09
2.9321337e-09
3.5438063e-09
4.2182102e-09
4.9044734e-09
5.5452248e-09
6.0954681e-09
6.5444871e-09
6.9083753e-09
7.2038587e-09
7.4487209e-09
7.654481e-09
7.826107e-09
7.9678301e-09
8.0831488e-09
8.1733221e-09
8.2376087e-09
8.2744479e-09
8.2846582e-09
8.2721408e-09
8.2415841e-09
8.1973398e-09
8.1430498e-09
8.0816748e-09
8.0155771e-09
7.9465102e-09
7.8757811e-09
7.8043393e-09
7.7329135e-09
7.6620033e-09
7.5919443e-09
7.5229076e-09
7.4549906e-09
7.3883419e-09
7.3226245e-09
7.2581316e-09
7.193266e-09
7.1280246e-09
7.0658494e-09
6.9750246e-09
8.4974524e-05
5.6874723e-05
5.5456175e-05
5.5198793e-05
5.5186054e-05
5.5193745e-05
5.5196238e-05
5.5197029e-05
5.5198253e-05
5.520046e-05
5.5203803e-05
5.5208407e-05
5.5214439e-05
5.5222156e-05
5.5231902e-05
5.5244234e-05
5.5259913e-05
5.5279816e-05
5.5308837e-05
5.5333035e-05
5.5449038e-05
5.5259568e-05
5.6516977e-05
1.5172904e-05
9.6692777e-09
4.3700698e-10
2.2697371e-10
1.5659698e-10
1.2856173e-10
1.1276279e-10
1.0152831e-10
9.2798423e-11
8.588463e-11
8.025775e-11
7.5583705e-11
7.1668225e-11
6.8394033e-11
6.5684007e-11
6.3469679e-11
6.1671511e-11
6.01476e-11
5.8830713e-11
5.7709034e-11
5.6779803e-11
5.6035431e-11
5.5466554e-11
5.5064527e-11
5.4822758e-11
5.4734017e-11
5.4804064e-11
5.4985938e-11
5.5260572e-11
5.5635088e-11
5.6120823e-11
5.6730045e-11
5.7466473e-11
5.8332511e-11
5.9343556e-11
6.0562874e-11
6.2055675e-11
6.3788946e-11
6.5762035e-11
6.7998612e-11
7.0525111e-11
7.3331212e-11
7.6448546e-11
7.9940707e-11
8.3870561e-11
8.8307656e-11
9.3321862e-11
9.8973653e-11
1.0530417e-10
1.1250829e-10
1.2109405e-10
1.3106028e-10
1.4262061e-10
1.560845e-10
1.7183797e-10
1.9036694e-10
2.1224473e-10
2.3812504e-10
2.6831087e-10
3.0375084e-10
3.4729011e-10
3.998122e-10
4.6364789e-10
5.4186685e-10
6.3861193e-10
7.5894973e-10
9.0920149e-10
1.0941557e-09
1.3298605e-09
1.6273268e-09
2.0001691e-09
2.4654209e-09
3.0401696e-09
3.7375935e-09
4.5620464e-09
5.5140833e-09
6.5640807e-09
7.6330506e-09
8.6317046e-09
9.4896047e-09
1.0189961e-08
1.0757445e-08
1.121823e-08
1.1599981e-08
1.1920675e-08
1.2188095e-08
1.2408879e-08
1.258851e-08
1.2728966e-08
1.2829101e-08
1.2886487e-08
1.2902398e-08
1.2882911e-08
1.2835328e-08
1.2766427e-08
1.2681879e-08
1.2586297e-08
1.2483359e-08
1.2375796e-08
1.2265644e-08
1.2154382e-08
1.2043144e-08
1.1932709e-08
1.18236e-08
1.1716083e-08
1.161031e-08
1.1506511e-08
1.1404164e-08
1.1303723e-08
1.1202702e-08
1.1101096e-08
1.1004265e-08
1.0862815e-08
8.4877458e-05
5.6615952e-05
5.5190178e-05
5.4928621e-05
5.4914548e-05
5.4921921e-05
5.4924323e-05
5.4925061e-05
5.4926242e-05
5.4928416e-05
5.4931733e-05
5.4936314e-05
5.4942326e-05
5.4950023e-05
5.4959745e-05
5.4972048e-05
5.4987689e-05
5.500754e-05
5.5036478e-05
5.506058e-05
5.51762e-05
5.498704e-05
5.6242103e-05
1.5258598e-05
1.406809e-08
6.5510095e-10
3.4043362e-10
2.3499153e-10
1.9321565e-10
1.697315e-10
1.5300741e-10
1.3998932e-10
1.2967322e-10
1.2127886e-10
1.1430679e-10
1.0846971e-10
1.0359242e-10
9.9556019e-11
9.6255126e-11
9.35752e-11
9.1306163e-11
8.9347096e-11
8.7681208e-11
8.6305188e-11
8.5208257e-11
8.4376694e-11
8.3797788e-11
8.3461887e-11
8.3358298e-11
8.349622e-11
8.380386e-11
8.4252229e-11
8.4853596e-11
8.5626723e-11
8.6590753e-11
8.7753148e-11
8.9119641e-11
9.0713443e-11
9.2621856e-11
9.4935152e-11
9.7613171e-11
1.00659e-10
1.0410912e-10
1.0800423e-10
1.1232856e-10
1.1713082e-10
1.2250885e-10
1.2856091e-10
1.3539491e-10
1.4312096e-10
1.5183924e-10
1.616278e-10
1.7277562e-10
1.8599771e-10
2.0133524e-10
2.1912463e-10
2.3984238e-10
2.6408337e-10
2.9259645e-10
3.2626866e-10
3.6612325e-10
4.1269564e-10
4.6745653e-10
5.3450016e-10
6.1537082e-10
7.1366163e-10
8.3410096e-10
9.8307356e-10
1.1684046e-09
1.3999527e-09
1.6857014e-09
2.0491526e-09
2.5075608e-09
3.0821337e-09
3.7991285e-09
4.6848897e-09
5.7597697e-09
7.0305238e-09
8.4981426e-09
1.0117205e-08
1.17662e-08
1.3307492e-08
1.463196e-08
1.5713572e-08
1.6589862e-08
1.730136e-08
1.7890698e-08
1.8385651e-08
1.8798284e-08
1.9138903e-08
1.9416007e-08
1.9632672e-08
1.9787138e-08
1.9875665e-08
1.9900219e-08
1.9870173e-08
1.9796791e-08
1.9690526e-08
1.9560127e-08
1.9412707e-08
1.9253941e-08
1.9088041e-08
1.8918147e-08
1.8746541e-08
1.8574972e-08
1.8404641e-08
1.8236354e-08
1.8070523e-08
1.7907381e-08
1.7747285e-08
1.7589427e-08
1.743451e-08
1.7278697e-08
1.7121984e-08
1.6972635e-08
1.6754466e-08
8.4766969e-05
5.6318623e-05
5.4884346e-05
5.4617928e-05
5.4602303e-05
5.4609301e-05
5.4611596e-05
5.461227e-05
5.4613402e-05
5.4615537e-05
5.4618823e-05
5.4623378e-05
5.4629366e-05
5.4637039e-05
5.4646735e-05
5.4659005e-05
5.4674602e-05
5.4694394e-05
5.4723236e-05
5.4747232e-05
5.4862413e-05
5.4673626e-05
5.5926417e-05
1.5367827e-05
2.0406647e-08
9.8663618e-10
5.1286489e-10
3.5410351e-10
2.9137638e-10
2.5615995e-10
2.3106267e-10
2.115103e-10
1.9601348e-10
1.8340883e-10
1.7294318e-10
1.641865e-10
1.5687407e-10
1.5082138e-10
1.4586553e-10
1.4183989e-10
1.3843281e-10
1.3549248e-10
1.3299432e-10
1.3093397e-10
1.2929564e-10
1.2805891e-10
1.2720482e-10
1.2671902e-10
1.2658551e-10
1.2681861e-10
1.2730911e-10
1.2801304e-10
1.2895071e-10
1.3015236e-10