/*--------------------------------*- C++ -*----------------------------------*\
| =========                 |                                                 |
| \\      /  F ield         | OpenFOAM: The Open Source CFD Toolbox           |
|  \\    /   O peration     | Version:  2206                                  |
|   \\  /    A nd           | Website:  www.openfoam.com                      |
|    \\/     M anipulation  |                                                 |
\*---------------------------------------------------------------------------*/
FoamFile
{
    version     2.0;
    format      ascii;
    arch        "LSB;label=32;scalar=64";
    class       volScalarField;
    location    "2000";
    object      nut;
}
// * * * * * * * * * * * * * * * * * * * * * * * * * * * * * * * * * * * * * //

dimensions      [0 2 -1 0 0 0 0];

internalField   nonuniform List<scalar> 
13056
(
1.9228254e-07
1.8730923e-07
1.8785128e-07
1.8826416e-07
1.8850929e-07
1.8863468e-07
1.887018e-07
1.8874374e-07
1.8877394e-07
1.8879792e-07
1.888184e-07
1.8883698e-07
1.8885486e-07
1.8887301e-07
1.8889246e-07
1.8891403e-07
1.8894008e-07
1.8896763e-07
1.8902146e-07
1.8900937e-07
1.8932296e-07
1.888561e-07
1.8472096e-07
7.6242506e-10
2.5809576e-16
4.0321029e-17
2.0470141e-17
1.3822288e-17
1.0571403e-17
8.5902607e-18
7.2512026e-18
6.2731702e-18
5.5255077e-18
4.9354166e-18
4.4569042e-18
4.0603236e-18
3.7260143e-18
3.44026e-18
3.1930803e-18
2.9770566e-18
2.7865812e-18
2.6173443e-18
2.4658092e-18
2.3294912e-18
2.2060482e-18
2.0937418e-18
1.9911029e-18
1.8969129e-18
1.8101515e-18
1.7299581e-18
1.655598e-18
1.586443e-18
1.5219522e-18
1.4616577e-18
1.4051542e-18
1.3520881e-18
1.3021471e-18
1.2550559e-18
1.2105717e-18
1.1684791e-18
1.1285858e-18
1.090722e-18
1.0547362e-18
1.0204914e-18
9.8786345e-19
9.5674102e-19
9.270246e-19
8.9862469e-19
8.7146034e-19
8.4545957e-19
8.2055912e-19
7.9670279e-19
7.7384049e-19
7.5192881e-19
7.3092971e-19
7.1081104e-19
6.9154682e-19
6.7311969e-19
6.555261e-19
6.3876801e-19
6.2285381e-19
6.0780059e-19
5.9363239e-19
5.8038492e-19
5.6811494e-19
5.5690657e-19
5.4686141e-19
5.3812598e-19
5.3106719e-19
5.2528237e-19
5.2277234e-19
5.2185998e-19
5.2426536e-19
5.3014237e-19
5.4022786e-19
5.5519744e-19
5.7561354e-19
6.0148776e-19
6.3303485e-19
6.7019768e-19
7.1099205e-19
7.5112756e-19
7.8898093e-19
8.1681484e-19
8.4093745e-19
8.5818521e-19
8.7098464e-19
8.8033677e-19
8.8697915e-19
8.9144239e-19
8.9407875e-19
8.9514449e-19
8.9466591e-19
8.9266793e-19
8.8934621e-19
8.8487108e-19
8.7944713e-19
8.7333905e-19
8.667148e-19
8.5970973e-19
8.5250239e-19
8.4521149e-19
8.3788669e-19
8.3057612e-19
8.2335304e-19
8.1625544e-19
8.0928285e-19
8.0241914e-19
7.9566941e-19
7.8903081e-19
7.8253212e-19
7.7587346e-19
7.6954653e-19
7.6171329e-19
7.5538403e-19
7.4622719e-19
1.9228229e-07
1.8730784e-07
1.8785011e-07
1.8826305e-07
1.8850822e-07
1.8863364e-07
1.8870077e-07
1.8874272e-07
1.8877292e-07
1.8879691e-07
1.8881739e-07
1.8883598e-07
1.8885386e-07
1.8887201e-07
1.8889146e-07
1.8891304e-07
1.8893909e-07
1.8896664e-07
1.8902047e-07
1.8900838e-07
1.8932197e-07
1.8885518e-07
1.8472093e-07
7.7403172e-10
2.4211719e-16
3.768274e-17
1.9130728e-17
1.2917859e-17
9.8796891e-18
8.0281802e-18
6.7767413e-18
5.8627048e-18
5.1639642e-18
4.6124845e-18
4.1652825e-18
3.7946511e-18
3.4822165e-18
3.2151601e-18
2.9841544e-18
2.7822662e-18
2.6042547e-18
2.4460919e-18
2.3044726e-18
2.1770748e-18
2.0617095e-18
1.9567521e-18
1.8608297e-18
1.7728033e-18
1.6917195e-18
1.6167739e-18
1.5472799e-18
1.4826505e-18
1.4223801e-18
1.3660313e-18
1.3132254e-18
1.2636319e-18
1.2169588e-18
1.172949e-18
1.131376e-18
1.0920385e-18
1.0547568e-18
1.0193717e-18
9.8574192e-19
9.537393e-19
9.2324782e-19
8.9416348e-19
8.6639331e-19
8.3985359e-19
8.1446866e-19
7.9017119e-19
7.669018e-19
7.4460747e-19
7.2324212e-19
7.0276806e-19
6.8314777e-19
6.6435099e-19
6.4635353e-19
6.2913923e-19
6.1270493e-19
5.9705236e-19
5.8218864e-19
5.6812617e-19
5.5488897e-19
5.4252752e-19
5.3108351e-19
5.2063625e-19
5.1128174e-19
5.0315797e-19
4.966077e-19
4.9124548e-19
4.8889645e-19
4.8812021e-19
4.9048896e-19
4.961304e-19
5.057384e-19
5.1994831e-19
5.3928469e-19
5.6374951e-19
5.9352129e-19
6.2849848e-19
6.6676516e-19
7.0429164e-19
7.3962891e-19
7.6556778e-19
7.8808036e-19
8.0418985e-19
8.1617212e-19
8.2495635e-19
8.3122114e-19
8.3545192e-19
8.3797131e-19
8.3901494e-19
8.386052e-19
8.3676381e-19
8.3367344e-19
8.2949503e-19
8.2442196e-19
8.1870342e-19
8.1249803e-19
8.0593365e-19
7.9917805e-19
7.9234288e-19
7.8547516e-19
7.7862031e-19
7.7184701e-19
7.6519098e-19
7.5865194e-19
7.5221498e-19
7.458849e-19
7.3965913e-19
7.3356429e-19
7.2732106e-19
7.213868e-19
7.1404835e-19
7.0811347e-19
6.9952669e-19
1.9228145e-07
1.8730348e-07
1.8784642e-07
1.8825956e-07
1.8850485e-07
1.8863035e-07
1.8869753e-07
1.887395e-07
1.8876972e-07
1.8879373e-07
1.8881422e-07
1.8883281e-07
1.888507e-07
1.8886887e-07
1.8888832e-07
1.889099e-07
1.8893596e-07
1.8896351e-07
1.8901734e-07
1.8900525e-07
1.8931881e-07
1.8885232e-07
1.8471867e-07
7.8799194e-10
2.3121871e-16
3.5924459e-17
1.8238124e-17
1.2315167e-17
9.4188353e-18
7.6537782e-18
6.4607658e-18
5.5893974e-18
4.9232702e-18
4.3975244e-18
3.9711867e-18
3.6178447e-18
3.3199842e-18
3.0653884e-18
2.8451672e-18
2.6527085e-18
2.4830123e-18
2.332238e-18
2.1972349e-18
2.0757897e-18
1.9658159e-18
1.8657647e-18
1.7743274e-18
1.6904182e-18
1.6131281e-18
1.5416906e-18
1.4754508e-18
1.4138485e-18
1.3564014e-18
1.3026916e-18
1.2523586e-18
1.2050862e-18
1.1605953e-18
1.1186418e-18
1.0790171e-18
1.0415362e-18
1.00602e-18
9.7231425e-19
9.4028423e-19
9.0980818e-19
8.8077536e-19
8.5308694e-19
8.2665491e-19
8.0139831e-19
7.77245e-19
7.5412939e-19
7.3198958e-19
7.1076441e-19
6.9042574e-19
6.709992e-19
6.5240783e-19
6.3461803e-19
6.1760913e-19
6.0136794e-19
5.8589515e-19
5.7119138e-19
5.5724935e-19
5.4400713e-19
5.3152039e-19
5.2019601e-19
5.0984112e-19
5.0054879e-19
4.9243738e-19
4.8566766e-19
4.8057161e-19
4.7661927e-19
4.7464079e-19
4.7584621e-19
4.8104809e-19
4.9008035e-19
5.0374621e-19
5.2277208e-19
5.4767428e-19
5.7830233e-19
6.14404e-19
6.5488539e-19
6.9655286e-19
7.349871e-19
7.6996098e-19
7.9496223e-19
8.1719812e-19
8.3348714e-19
8.4621281e-19
8.5618449e-19
8.6386861e-19
8.6954978e-19
8.7342604e-19
8.7565433e-19
8.7621194e-19
8.7508421e-19
8.7244417e-19
8.6849267e-19
8.6347208e-19
8.5767031e-19
8.5128339e-19
8.4446969e-19
8.3741487e-19
8.3024513e-19
8.2302189e-19
8.1579991e-19
8.0865173e-19
8.0161684e-19
7.9469987e-19
7.8788984e-19
7.8119251e-19
7.7460771e-19
7.6815456e-19
7.6158537e-19
7.5528946e-19
7.4772149e-19
7.4146414e-19
7.3239819e-19
1.9228001e-07
1.8729602e-07
1.8784011e-07
1.8825359e-07
1.8849908e-07
1.886247e-07
1.8869196e-07
1.8873398e-07
1.8876423e-07
1.8878827e-07
1.8880878e-07
1.8882739e-07
1.8884529e-07
1.8886347e-07
1.8888294e-07
1.8890452e-07
1.8893059e-07
1.8895815e-07
1.8901199e-07
1.8899988e-07
1.893134e-07
1.8884742e-07
1.8471416e-07
8.0334855e-10
2.2476767e-16
3.466954e-17
1.7601403e-17
1.188548e-17
9.0908846e-18
7.3879218e-18
6.2368309e-18
5.3960371e-18
4.7532502e-18
4.2458804e-18
3.8344182e-18
3.4933858e-18
3.2058988e-18
2.9601926e-18
2.7477038e-18
2.5620333e-18
2.3983296e-18
2.2528824e-18
2.1226536e-18
2.0055093e-18
1.8994374e-18
1.8029443e-18
1.7147675e-18
1.63386e-18
1.5593447e-18
1.490483e-18
1.4266397e-18
1.3672733e-18
1.3119131e-18
1.2601511e-18
1.2116417e-18
1.1660737e-18
1.1231712e-18
1.0827056e-18
1.0445293e-18
1.0085117e-18
9.7442537e-19
9.4210228e-19
9.1141424e-19
8.8224588e-19
8.5448942e-19
8.2805186e-19
8.028529e-19
7.7880646e-19
7.55843e-19
7.3388963e-19
7.1284941e-19
6.9258832e-19
6.7319082e-19
6.5511775e-19
6.380045e-19
6.2178569e-19
6.0645918e-19
5.9202912e-19
5.7852356e-19
5.6593755e-19
5.5416604e-19
5.4262739e-19
5.3160524e-19
5.2403496e-19
5.1809378e-19
5.1400105e-19
5.1206846e-19
5.1266553e-19
5.1614763e-19
5.2078739e-19
5.2064528e-19
5.3574541e-19
5.6197082e-19
5.9714859e-19
6.432294e-19
7.0210571e-19
7.7503319e-19
8.6210268e-19
9.6271799e-19
1.0730708e-18
1.183874e-18
1.2847147e-18
1.371978e-18
1.438889e-18
1.4953e-18
1.5395625e-18
1.5758911e-18
1.6061222e-18
1.6310394e-18
1.6511691e-18
1.6669372e-18
1.6785548e-18
1.685892e-18
1.6887587e-18
1.6873985e-18
1.6824109e-18
1.6745179e-18
1.6644482e-18
1.65277e-18
1.6399443e-18
1.626394e-18
1.612422e-18
1.598224e-18
1.5839515e-18
1.5697491e-18
1.5557063e-18
1.5418631e-18
1.5282275e-18
1.5148151e-18
1.5016417e-18
1.488689e-18
1.4757591e-18
1.4630423e-18
1.4491091e-18
1.436714e-18
1.4186765e-18
1.9227792e-07
1.8728522e-07
1.8783096e-07
1.8824494e-07
1.8849072e-07
1.8861653e-07
1.8868389e-07
1.8872599e-07
1.8875629e-07
1.8878036e-07
1.888009e-07
1.8881954e-07
1.8883746e-07
1.8885566e-07
1.8887514e-07
1.8889674e-07
1.8892282e-07
1.8895038e-07
1.8900423e-07
1.8899211e-07
1.8930555e-07
1.8884033e-07
1.8470737e-07
8.2006935e-10
2.2453105e-16
3.3802221e-17
1.7162783e-17
1.1590428e-17
8.8681928e-18
7.2097374e-18
6.0885192e-18
5.2693504e-18
4.6429534e-18
4.1483263e-18
3.7470854e-18
3.4144445e-18
3.1340169e-18
2.8944418e-18
2.6874388e-18
2.5066932e-18
2.3473622e-18
2.2058127e-18
2.0790926e-18
1.9651308e-18
1.8619728e-18
1.7681662e-18
1.6824832e-18
1.6039052e-18
1.5315787e-18
1.4647884e-18
1.4029014e-18
1.3453851e-18
1.2917593e-18
1.2416058e-18
1.1945979e-18
1.1504065e-18
1.1087343e-18
1.069389e-18
1.032454e-18
9.9800674e-19
9.6559379e-19
9.3497019e-19
9.0601871e-19
8.7863601e-19
8.5271327e-19
8.2816996e-19
8.0494815e-19
7.8293041e-19
7.6204935e-19
7.421928e-19
7.2310638e-19
7.0433647e-19
6.864417e-19
6.7174323e-19
6.5864553e-19
6.4694423e-19
6.3671417e-19
6.2803079e-19
6.2103758e-19
6.1571225e-19
6.1147501e-19
6.0535672e-19
5.9861555e-19
6.0557424e-19
6.1713757e-19
6.3411646e-19
6.5778491e-19
6.8977992e-19
7.3185475e-19
7.8322119e-19
8.339988e-19
9.1989057e-19
1.0377305e-18
1.1875475e-18
1.3764542e-18
1.6115023e-18
1.8976309e-18
2.2358821e-18
2.6246873e-18
3.0491498e-18
3.4738017e-18
3.8611713e-18
4.1908964e-18
4.4527535e-18
4.6680984e-18
4.841773e-18
4.9864706e-18
5.1089163e-18
5.2116452e-18
5.2965693e-18
5.365337e-18
5.4185308e-18
5.4555886e-18
5.4755655e-18
5.4790651e-18
5.4684804e-18
5.4466919e-18
5.4164285e-18
5.3799348e-18
5.3390351e-18
5.2952363e-18
5.249647e-18
5.2030649e-18
5.1560786e-18
5.109166e-18
5.0626461e-18
5.0167141e-18
4.9714576e-18
4.9269373e-18
4.8832375e-18
4.8401829e-18
4.7977248e-18
4.7552926e-18
4.7115381e-18
4.6706719e-18
4.6110403e-18
1.9227514e-07
1.8727078e-07
1.8781873e-07
1.8823337e-07
1.8847955e-07
1.886056e-07
1.8867311e-07
1.887153e-07
1.8874567e-07
1.8876979e-07
1.8879037e-07
1.8880904e-07
1.8882699e-07
1.8884521e-07
1.8886471e-07
1.8888633e-07
1.8891242e-07
1.8894e-07
1.8899386e-07
1.8898171e-07
1.8929505e-07
1.8883085e-07
1.846983e-07
8.3835713e-10
2.3640314e-16
3.3418873e-17
1.697381e-17
1.1466531e-17
8.7831949e-18
7.1497925e-18
6.0448183e-18
5.236878e-18
4.6186042e-18
4.1297626e-18
3.7328503e-18
3.403538e-18
3.1258693e-18
2.8889652e-18
2.6848605e-18
2.5070713e-18
2.3504464e-18
2.2113414e-18
2.0868718e-18
1.9750203e-18
1.8738782e-18
1.7820221e-18
1.6982476e-18
1.6215561e-18
1.5511081e-18
1.4862123e-18
1.4261986e-18
1.3705253e-18
1.3186485e-18
1.2700886e-18
1.2245547e-18
1.1816373e-18
1.1409501e-18
1.1024007e-18
1.0668106e-18
1.0349262e-18
1.0055472e-18
9.7816629e-19
9.5269287e-19
9.2905447e-19
9.0713102e-19
8.8687571e-19
8.6829704e-19
8.5116185e-19
8.3539676e-19
8.2073916e-19
8.0637107e-19
7.9070738e-19
7.7591129e-19
7.7070668e-19
7.6928113e-19
7.7093535e-19
7.7607074e-19
7.8515738e-19
7.9883349e-19
8.1758539e-19
8.4115437e-19
8.6539553e-19
8.9227643e-19
9.4530797e-19
1.0123823e-18
1.0966462e-18
1.2025375e-18
1.3358853e-18
1.5032019e-18
1.7075394e-18
1.9304513e-18
2.250997e-18
2.6710365e-18
3.1993973e-18
3.8603376e-18
4.6780548e-18
5.6699843e-18
6.8406265e-18
8.1861673e-18
9.6567749e-18
1.1132049e-17
1.2484592e-17
1.3634615e-17
1.4558466e-17
1.5312745e-17
1.5924729e-17
1.6435299e-17
1.6867908e-17
1.7231453e-17
1.7532995e-17
1.7778623e-17
1.797036e-17
1.8106284e-17
1.818297e-17
1.8202252e-17
1.8172514e-17
1.8103844e-17
1.8005658e-17
1.7885801e-17
1.7750648e-17
1.7605336e-17
1.7453668e-17
1.7298452e-17
1.7141735e-17
1.6985115e-17
1.6829678e-17
1.6676136e-17
1.6524839e-17
1.6375999e-17
1.6229928e-17
1.6085931e-17
1.5944421e-17
1.5802352e-17
1.565843e-17
1.5522069e-17
1.5322937e-17
1.9227159e-07
1.8725229e-07
1.8780308e-07
1.8821856e-07
1.8846525e-07
1.8859162e-07
1.8865932e-07
1.8870163e-07
1.8873208e-07
1.8875627e-07
1.887769e-07
1.8879561e-07
1.888136e-07
1.8883185e-07
1.8885138e-07
1.8887302e-07
1.8889913e-07
1.8892671e-07
1.8898059e-07
1.8896842e-07
1.8928162e-07
1.8881871e-07
1.8468696e-07
8.5852583e-10
2.7343013e-16
3.3930279e-17
1.7249133e-17
1.1662716e-17
8.9602681e-18
7.3189437e-18
6.2067031e-18
5.3916913e-18
4.7667355e-18
4.2708804e-18
3.8672685e-18
3.5316787e-18
3.2485789e-18
3.0078919e-18
2.8021418e-18
2.6240895e-18
2.4675071e-18
2.3285516e-18
2.2043849e-18
2.0930428e-18
1.9926503e-18
1.901797e-18
1.8192858e-18
1.7441249e-18
1.6754733e-18
1.6126729e-18
1.554921e-18
1.5016255e-18
1.4520332e-18
1.4054565e-18
1.3616858e-18
1.3200527e-18
1.2798887e-18
1.2413754e-18
1.2074806e-18
1.1809158e-18
1.1582975e-18
1.1383381e-18
1.1210169e-18
1.1063456e-18
1.0941756e-18
1.0845578e-18
1.0776943e-18
1.0734776e-18
1.0720002e-18
1.0730929e-18
1.0757944e-18
1.0779695e-18
1.0828121e-18
1.1035835e-18
1.1325626e-18
1.1693239e-18
1.2151697e-18
1.2716665e-18
1.3408313e-18
1.4246131e-18
1.5238597e-18
1.6320665e-18
1.7533819e-18
1.9330889e-18
2.1530321e-18
2.4228995e-18
2.755935e-18
3.1696859e-18
3.6842196e-18
4.3149727e-18
5.0284484e-18
6.0071438e-18
7.2709598e-18
8.8565552e-18
1.0836192e-17
1.3282105e-17
1.6247225e-17
1.9746342e-17
2.3771227e-17
2.8177696e-17
3.2611227e-17
3.6692626e-17
4.0168143e-17
4.2973868e-17
4.5258467e-17
4.711443e-17
4.86614e-17
4.9970582e-17
5.106968e-17
5.1981197e-17
5.2724377e-17
5.3305644e-17
5.3719415e-17
5.3955347e-17
5.4018761e-17
5.3934897e-17
5.3734109e-17
5.3444629e-17
5.3090047e-17
5.268954e-17
5.2258458e-17
5.1808183e-17
5.1347175e-17
5.0881588e-17
5.0416166e-17
4.9954157e-17
4.9497723e-17
4.9047956e-17
4.8605487e-17
4.817127e-17
4.7743154e-17
4.7322824e-17
4.6900318e-17
4.6474361e-17
4.6069199e-17
4.5477405e-17
1.922672e-07
1.8722927e-07
1.877836e-07
1.8820014e-07
1.8844747e-07
1.8857423e-07
1.8864216e-07
1.8868462e-07
1.8871518e-07
1.8873944e-07
1.8876014e-07
1.8877891e-07
1.8879694e-07
1.8881522e-07
1.8883479e-07
1.8885645e-07
1.8888259e-07
1.8891018e-07
1.8896409e-07
1.8895188e-07
1.8926492e-07
1.8880361e-07
1.8467344e-07
8.809757e-10
3.6453014e-16
3.6319999e-17
1.8501264e-17
1.2533648e-17
9.6932334e-18
7.9770121e-18
6.8093871e-18
5.9495309e-18
5.2870449e-18
4.7570286e-18
4.3230611e-18
3.9603796e-18
3.6540253e-18
3.3956646e-18
3.1788688e-18
2.9942263e-18
2.8325487e-18
2.68936e-18
2.5618409e-18
2.4480904e-18
2.3462563e-18
2.2549155e-18
2.1728545e-18
2.0990711e-18
2.0327022e-18
1.9731602e-18
1.9193047e-18
1.8704148e-18
1.825721e-18
1.7845366e-18
1.7467435e-18
1.7115756e-18
1.6782259e-18
1.6470347e-18
1.6222784e-18
1.6080338e-18
1.5998141e-18
1.5959868e-18
1.596709e-18
1.6021938e-18
1.6122152e-18
1.6270608e-18
1.6474059e-18
1.6734811e-18
1.7058077e-18
1.7445046e-18
1.7884176e-18
1.8343905e-18
1.8879569e-18
1.9721023e-18
2.0753151e-18
2.1980298e-18
2.343792e-18
2.5169154e-18
2.7228731e-18
2.9673722e-18
3.2544549e-18
3.5735112e-18
3.9344665e-18
4.4295316e-18
5.0301454e-18
5.7624401e-18
6.6616885e-18
7.7748473e-18
9.1564526e-18
1.0856149e-17
1.2819049e-17
1.5454115e-17
1.8833995e-17
2.3071267e-17
2.8358773e-17
3.4889471e-17
4.2806394e-17
5.2151298e-17
6.2908287e-17
7.4702403e-17
8.6597661e-17
9.7582415e-17
1.0695195e-16
1.1453699e-16
1.2070482e-16
1.2571651e-16
1.2988912e-16
1.3341548e-16
1.3637233e-16
1.3882283e-16
1.4082056e-16
1.4238369e-16
1.4349768e-16
1.4413486e-16
1.4430938e-16
1.4408896e-16
1.4355505e-16
1.4278329e-16
1.4183696e-16
1.4076751e-16
1.3961602e-16
1.38413e-16
1.3718113e-16
1.3593692e-16
1.3469305e-16
1.3345822e-16
1.3223825e-16
1.3103608e-16
1.2985342e-16
1.2869283e-16
1.275485e-16
1.2642529e-16
1.2529585e-16
1.2415887e-16
1.2307609e-16
1.2149445e-16
1.9226187e-07
1.8720116e-07
1.8775983e-07
1.8817765e-07
1.8842577e-07
1.88553e-07
1.8862122e-07
1.8866386e-07
1.8869455e-07
1.8871892e-07
1.8873969e-07
1.8875852e-07
1.8877661e-07
1.8879494e-07
1.8881454e-07
1.8883624e-07
1.8886241e-07
1.8889002e-07
1.8894395e-07
1.8893171e-07
1.8924453e-07
1.8878517e-07
1.8465792e-07
9.061949e-10
5.6796854e-16
4.2678598e-17
2.1820345e-17
1.4834311e-17
1.1609695e-17
9.6820136e-18
8.361292e-18
7.3800629e-18
6.6199518e-18
6.0086521e-18
5.5059937e-18
5.0848698e-18
4.7292954e-18
4.4308531e-18
4.1828586e-18
3.9741355e-18
3.7923978e-18
3.6320372e-18
3.4901457e-18
3.3648614e-18
3.2542803e-18
3.1568746e-18
3.0713284e-18
2.9965635e-18
2.9316214e-18
2.87604e-18
2.8278736e-18
2.7860807e-18
2.7498699e-18
2.7185821e-18
2.6923005e-18
2.6700835e-18
2.6508707e-18
2.6353422e-18
2.6303969e-18
2.6428432e-18
2.6660403e-18
2.6977114e-18
2.7384201e-18
2.7888375e-18
2.8485567e-18
2.9184073e-18
3.000155e-18
3.0948706e-18
3.2041079e-18
3.3287634e-18
3.4675534e-18
3.6156185e-18
3.7834622e-18
4.0136068e-18
4.2876311e-18
4.6083115e-18
4.9844031e-18
5.426624e-18
5.9485078e-18
6.5646934e-18
7.2874367e-18
8.0998321e-18
9.0257923e-18
1.0253039e-17
1.173744e-17
1.3543553e-17
1.5757929e-17
1.8496148e-17
2.1893972e-17
2.6086465e-17
3.099792e-17
3.7506672e-17
4.5821787e-17
5.6243855e-17
6.9247262e-17
8.5306962e-17
1.0477803e-16
1.2776721e-16
1.5424676e-16
1.8331395e-16
2.1268681e-16
2.398771e-16
2.6310222e-16
2.8193966e-16
2.9724436e-16
3.0967967e-16
3.2002285e-16
3.2875366e-16
3.3606648e-16
3.421227e-16
3.4705846e-16
3.509205e-16
3.5367381e-16
3.5525034e-16
3.5568495e-16
3.5514485e-16
3.5383107e-16
3.5193029e-16
3.4959866e-16
3.4696319e-16
3.4412522e-16
3.4115997e-16
3.3812348e-16
3.3505648e-16
3.3199025e-16
3.2894621e-16
3.2593875e-16
3.2297519e-16
3.200597e-16
3.1719865e-16
3.1437761e-16
3.1160895e-16
3.0882454e-16
3.0602299e-16
3.0335388e-16
2.9945496e-16
1.9225552e-07
1.8716728e-07
1.877312e-07
1.8815058e-07
1.8839964e-07
1.8852745e-07
1.8859602e-07
1.8863889e-07
1.8866973e-07
1.8869421e-07
1.8871509e-07
1.8873399e-07
1.8875215e-07
1.8877053e-07
1.8879018e-07
1.8881192e-07
1.8883812e-07
1.8886575e-07
1.8891971e-07
1.8890743e-07
1.8922e-07
1.8876295e-07
1.8464068e-07
9.3477326e-10
9.9257094e-16
5.7979153e-17
2.978683e-17
2.0343336e-17
1.6165113e-17
1.3705852e-17
1.2003776e-17
1.0723275e-17
9.724083e-18
8.9153913e-18
8.2469699e-18
7.6855158e-18
7.2119411e-18
6.8167983e-18
6.4922184e-18
6.2231849e-18
5.9907954e-18
5.7868561e-18
5.6081428e-18
5.4527902e-18
5.3186988e-18
5.2040505e-18
5.1072543e-18
5.027024e-18
4.9621582e-18
4.912442e-18
4.8741443e-18
4.8455034e-18
4.8257392e-18
4.8143237e-18
4.8117817e-18
4.8168943e-18
4.8281811e-18
4.8470278e-18
4.8853581e-18
4.95521e-18
5.0459611e-18
5.1542184e-18
5.2814362e-18
5.4292885e-18
5.59697e-18
5.7865012e-18
6.0020446e-18
6.2466339e-18
6.5241715e-18
6.83747e-18
7.1855315e-18
7.5609275e-18
7.9842982e-18
8.5358668e-18
9.1853656e-18
9.9413684e-18
1.0824139e-17
1.185859e-17
1.3076125e-17
1.4511476e-17
1.6196442e-17
1.8105907e-17
2.0295663e-17
2.3140696e-17
2.6577657e-17
3.0756402e-17
3.5876973e-17
4.2207127e-17
5.0064114e-17
5.9782197e-17
7.1290159e-17
8.640416e-17
1.0565906e-16
1.2979133e-16
1.5989999e-16
1.9708584e-16
2.4217734e-16
2.9542891e-16
3.5679718e-16
4.2422776e-16
4.924729e-16
5.5576867e-16
6.0989741e-16
6.5386244e-16
6.8956054e-16
7.185628e-16
7.4266608e-16
7.6299183e-16
7.8000101e-16
7.9407877e-16
8.0554839e-16
8.1452212e-16
8.209203e-16
8.2458541e-16
8.2559846e-16
8.2434783e-16
8.2130046e-16
8.168898e-16
8.1147858e-16
8.053617e-16
7.987745e-16
7.9189165e-16
7.848433e-16
7.7772405e-16
7.7060647e-16
7.6354035e-16
7.5655911e-16
7.4967975e-16
7.4291198e-16
7.3627058e-16
7.2972202e-16
7.2329529e-16
7.1683169e-16
7.1032957e-16
7.0413386e-16
6.9508333e-16
1.9224801e-07
1.8712689e-07
1.8769708e-07
1.8811832e-07
1.8836852e-07
1.8849702e-07
1.8856601e-07
1.8860914e-07
1.8864017e-07
1.886648e-07
1.8868578e-07
1.8870479e-07
1.8872302e-07
1.8874147e-07
1.8876118e-07
1.8878297e-07
1.8880921e-07
1.8883686e-07
1.8889086e-07
1.8887852e-07
1.891908e-07
1.8873648e-07
1.8462218e-07
9.6742547e-10
1.8457077e-15
9.1440062e-17
4.7194004e-17
3.2371006e-17
2.6085371e-17
2.244656e-17
1.9900916e-17
1.7960718e-17
1.6435966e-17
1.5195135e-17
1.416494e-17
1.3298076e-17
1.2568022e-17
1.1962081e-17
1.1469084e-17
1.1066211e-17
1.0721076e-17
1.0419977e-17
1.0158921e-17
9.9359635e-18
9.7485219e-18
9.5941144e-18
9.4705268e-18
9.3759994e-18
9.3087912e-18
9.2691891e-18
9.24967e-18
9.2469374e-18
9.2603595e-18
9.2898301e-18
9.3368195e-18
9.3997261e-18
9.4764285e-18
9.5697446e-18
9.7009502e-18
9.8918119e-18
1.0124614e-17
1.0394134e-17
1.0703716e-17
1.1057163e-17
1.1452826e-17
1.1895254e-17
1.2393702e-17
1.2955577e-17
1.3589907e-17
1.4303935e-17
1.5098269e-17
1.5962079e-17
1.6936134e-17
1.8171499e-17
1.9618631e-17
2.1299546e-17
2.3259036e-17
2.5552353e-17
2.8249083e-17
3.142741e-17
3.5163201e-17
3.9423691e-17
4.4334277e-17
5.0627991e-17
5.8226803e-17
6.7463074e-17
7.8779074e-17
9.2767857e-17
1.10137e-16
1.3166341e-16
1.573727e-16
1.9090833e-16
2.3354177e-16
2.8697392e-16
3.5363959e-16
4.359784e-16
5.3583621e-16
6.5378938e-16
7.8977955e-16
9.393229e-16
1.0908644e-15
1.2316355e-15
1.3521356e-15
1.450119e-15
1.5296408e-15
1.5942398e-15
1.6478908e-15
1.6930966e-15
1.7308978e-15
1.7621679e-15
1.7876376e-15
1.8075627e-15
1.8217694e-15
1.8299091e-15
1.8321618e-15
1.8293897e-15
1.8226293e-15
1.8128427e-15
1.8008351e-15
1.7872612e-15
1.7726432e-15
1.7573688e-15
1.741727e-15
1.7259278e-15
1.7101321e-15
1.6944507e-15
1.6789575e-15
1.6636904e-15
1.6486709e-15
1.6339319e-15
1.6193989e-15
1.6051365e-15
1.590792e-15
1.5763632e-15
1.5626134e-15
1.542528e-15
1.9223925e-07
1.870791e-07
1.8765676e-07
1.880802e-07
1.8833176e-07
1.8846108e-07
1.8853056e-07
1.88574e-07
1.8860526e-07
1.8863006e-07
1.8865118e-07
1.8867029e-07
1.8868861e-07
1.8870715e-07
1.8872692e-07
1.8874877e-07
1.8877506e-07
1.8880274e-07
1.8885679e-07
1.8884439e-07
1.8915633e-07
1.8870517e-07
1.8460307e-07
1.005023e-09
3.518349e-15
1.6129826e-16
8.3525104e-17
5.746646e-17
4.6763085e-17
4.0647938e-17
3.6333614e-17
3.3012243e-17
3.0388743e-17
2.8246825e-17
2.6463753e-17
2.4962569e-17
2.370042e-17
2.2656382e-17
2.1811356e-17
2.1127188e-17
2.0544751e-17
2.0039027e-17
1.9604359e-17
1.9238572e-17
1.8938035e-17
1.8698853e-17
1.8517495e-17
1.8391197e-17
1.8317087e-17
1.8296474e-17
1.8314004e-17
1.8363212e-17
1.8444003e-17
1.8557406e-17
1.8706871e-17
1.8890368e-17
1.9104894e-17
1.9356119e-17
1.9682388e-17
2.0123223e-17
2.0648601e-17
2.1250456e-17
2.1936052e-17
2.2713588e-17
2.3579679e-17
2.4544116e-17
2.5626696e-17
2.6844231e-17
2.8216598e-17
2.9760829e-17
3.1482576e-17
3.336751e-17
3.5495635e-17
3.8148746e-17
4.1247563e-17
4.4843861e-17
4.9033349e-17
5.3934388e-17
5.9696007e-17
6.648764e-17
7.4480763e-17
8.3643593e-17
9.4248853e-17
1.0770239e-16
1.2394075e-16
1.436763e-16
1.678547e-16
1.9774586e-16
2.3487356e-16
2.809645e-16
3.3639493e-16
4.0830703e-16
4.9957382e-16
6.1395875e-16
7.566771e-16
9.3295596e-16
1.1467677e-15
1.3993693e-15
1.690703e-15
2.0112856e-15
2.336494e-15
2.6389805e-15
2.8981182e-15
3.1090252e-15
3.2801297e-15
3.4191116e-15
3.5344749e-15
3.6316127e-15
3.7127886e-15
3.7799102e-15
3.834568e-15
3.8773228e-15
3.9078072e-15
3.9252749e-15
3.9301128e-15
3.9241705e-15
3.9096719e-15
3.888681e-15
3.8629253e-15
3.8338091e-15
3.8024529e-15
3.7696885e-15
3.7361358e-15
3.7022451e-15
3.6683621e-15
3.6347238e-15
3.6014894e-15
3.56874e-15
3.5365217e-15
3.504905e-15
3.4737303e-15
3.4431361e-15
3.4123655e-15
3.3814154e-15
3.3519208e-15
3.3088356e-15
1.922291e-07
1.8702294e-07
1.8760942e-07
1.8803546e-07
1.8828861e-07
1.884189e-07
1.8848896e-07
1.8853279e-07
1.8856431e-07
1.8858931e-07
1.8861059e-07
1.8862983e-07
1.8864827e-07
1.8866689e-07
1.8868675e-07
1.8870866e-07
1.8873501e-07
1.8876272e-07
1.8881682e-07
1.8880435e-07
1.8911592e-07
1.8866839e-07
1.8458428e-07
1.0486362e-09
6.7415817e-15
3.0326484e-16
1.5735166e-16
1.0845538e-16
8.8759112e-17
7.7600382e-17
6.9685958e-17
6.3555103e-17
5.8698641e-17
5.4728967e-17
5.1420977e-17
4.8637012e-17
4.6299864e-17
4.4369631e-17
4.2809427e-17
4.1551567e-17
4.0484761e-17
3.9561262e-17
3.877198e-17
3.8114229e-17
3.75822e-17
3.7169112e-17
3.6868736e-17
3.6676265e-17
3.658652e-17
3.6602878e-17
3.6694135e-17
3.6847416e-17
3.7064131e-17
3.7348063e-17
3.770673e-17
3.8137866e-17
3.8637442e-17
3.9216729e-17
3.9944813e-17
4.0893195e-17
4.2010946e-17
4.328584e-17
4.4733108e-17
4.6369873e-17
4.8189245e-17
5.0211663e-17
5.2478334e-17
5.5025775e-17
5.7896291e-17
6.1127856e-17
6.4739288e-17
6.8715205e-17
7.3211112e-17
7.8747058e-17
8.5200758e-17
9.2687709e-17
1.0140724e-16
1.1160637e-16
1.2359611e-16
1.3773339e-16
1.5439128e-16
1.7356872e-16
1.9584304e-16
2.2386945e-16
2.5769089e-16
2.9879509e-16
3.4915305e-16
4.1141486e-16
4.8877559e-16
5.8494753e-16
7.012758e-16
8.5152059e-16
1.041938e-15
1.2805924e-15
1.5783705e-15
1.9461868e-15
2.3923662e-15
2.9195722e-15
3.5278023e-15
4.1974751e-15
4.8774145e-15
5.5105357e-15
6.0532953e-15
6.4953711e-15
6.8539074e-15
7.1451076e-15
7.3867074e-15
7.5900224e-15
7.7598387e-15
7.9002025e-15
8.0144785e-15
8.1038605e-15
8.1675895e-15
8.2041094e-15
8.214229e-15
8.2018154e-15
8.1715167e-15
8.1276474e-15
8.0738183e-15
8.0129647e-15
7.9474288e-15
7.8789492e-15
7.8088216e-15
7.7379875e-15
7.6671692e-15
7.5968622e-15
7.5273993e-15
7.45895e-15
7.3916108e-15
7.3255291e-15
7.2603708e-15
7.1964265e-15
7.1321128e-15
7.0674253e-15
7.005779e-15
6.9157268e-15
1.9221743e-07
1.869573e-07
1.8755413e-07
1.8798323e-07
1.8823827e-07
1.8836969e-07
1.8844044e-07
1.884847e-07
1.8851654e-07
1.8854177e-07
1.8856324e-07
1.8858264e-07
1.886012e-07
1.8861994e-07
1.8863989e-07
1.8866189e-07
1.8868831e-07
1.8871605e-07
1.8877021e-07
1.8875765e-07
1.890688e-07
1.8862543e-07
1.8456706e-07
1.0995905e-09
1.2873174e-14
5.8675721e-16
3.0477852e-16
2.1027267e-16
1.7260581e-16
1.513669e-16
1.3625953e-16
1.2451723e-16
1.1520371e-16
1.0759133e-16
1.0124769e-16
9.5913394e-17
9.1440844e-17
8.7748543e-17
8.4761348e-17
8.2355363e-17
8.0318664e-17
7.8558538e-17
7.7058999e-17
7.5816303e-17
7.4820257e-17
7.4058294e-17
7.3518794e-17
7.3192854e-17
7.3070702e-17
7.3159843e-17
7.3397464e-17
7.375792e-17
7.4246333e-17
7.4872785e-17
7.5653015e-17
7.6585368e-17
7.7665064e-17
7.8914269e-17
8.0456903e-17
8.2421554e-17
8.4722412e-17
8.734167e-17
9.0310515e-17
9.3663924e-17
9.7388028e-17
1.0152458e-16
1.0615764e-16
1.1136419e-16
1.1723208e-16
1.23843e-16
1.3124708e-16
1.394371e-16
1.4871255e-16
1.6002402e-16
1.7319271e-16
1.884672e-16
2.0625454e-16
2.270601e-16
2.5152006e-16
2.8037032e-16
3.1439998e-16
3.5371828e-16
3.9952126e-16
4.5676552e-16
5.2583738e-16
6.0978224e-16
7.126283e-16
8.3979707e-16
9.9785143e-16
1.1945737e-15
1.4336852e-15
1.7413595e-15
2.1308457e-15
2.6190059e-15
3.2281191e-15
3.9805254e-15
4.8933191e-15
5.9720191e-15
7.2168281e-15
8.5880492e-15
9.9813474e-15
1.1279909e-14
1.2393781e-14
1.3301607e-14
1.4037689e-14
1.4635483e-14
1.5131256e-14
1.5548265e-14
1.589641e-14
1.6184085e-14
1.6418252e-14
1.6601393e-14
1.6731971e-14
1.6806803e-14
1.6827548e-14
1.6802128e-14
1.6740066e-14
1.6650202e-14
1.6539932e-14
1.6415271e-14
1.6281017e-14
1.6140732e-14
1.599707e-14
1.5851961e-14
1.5706883e-14
1.5562853e-14
1.5420552e-14
1.5280327e-14
1.5142376e-14
1.5007001e-14
1.4873518e-14
1.4742522e-14
1.4610769e-14
1.4478251e-14
1.4351963e-14
1.4167482e-14
1.9220411e-07
1.8688093e-07
1.8748988e-07
1.8792254e-07
1.8817979e-07
1.8831255e-07
1.8838411e-07
1.8842888e-07
1.8846108e-07
1.884866e-07
1.8850829e-07
1.8852787e-07
1.8854658e-07
1.8856545e-07
1.8858551e-07
1.886076e-07
1.8863409e-07
1.8866188e-07
1.8871611e-07
1.8870346e-07
1.8901414e-07
1.8857547e-07
1.8455303e-07
1.1595393e-09
2.4419656e-14
1.1459706e-15
5.9561309e-16
4.1113037e-16
3.3800427e-16
2.9687529e-16
2.6757746e-16
2.4476678e-16
2.2666626e-16
2.1188139e-16
1.9956627e-16
1.8922071e-16
1.8055536e-16
1.7340051e-16
1.6760099e-16
1.6292673e-16
1.5897312e-16
1.5555941e-16
1.5265599e-16
1.5025701e-16
1.483436e-16
1.4689175e-16
1.458792e-16
1.4528898e-16
1.4510225e-16
1.4533471e-16
1.4586119e-16
1.4663087e-16
1.4765745e-16
1.4896477e-16
1.50585e-16
1.5251953e-16
1.5476431e-16
1.5736253e-16
1.6053528e-16
1.6451244e-16
1.6915098e-16
1.7442667e-16
1.804023e-16
1.8714815e-16
1.9463663e-16
2.0295167e-16
2.1226214e-16
2.227268e-16
2.3452481e-16
2.4782732e-16
2.6275491e-16
2.793339e-16
2.9813657e-16
3.2088713e-16
3.4734505e-16
3.7803162e-16
4.1376553e-16
4.5556472e-16
5.0471065e-16
5.6269536e-16
6.3115247e-16
7.1049233e-16
8.0315061e-16
9.1830049e-16
1.057229e-15
1.226074e-15
1.432943e-15
1.6887573e-15
2.0067831e-15
2.4030196e-15
2.886633e-15
3.506948e-15
4.2914298e-15
5.2746721e-15
6.5015676e-15
8.0171412e-15
9.855939e-15
1.20292e-14
1.4537695e-14
1.7302086e-14
2.0112817e-14
2.2734516e-14
2.4984459e-14
2.6819208e-14
2.8306529e-14
2.9514346e-14
3.0515692e-14
3.1357603e-14
3.2060216e-14
3.2640633e-14
3.3113021e-14
3.3482452e-14
3.374585e-14
3.3896807e-14
3.3938671e-14
3.3887421e-14
3.3762266e-14
3.3581034e-14
3.3358644e-14
3.3107227e-14
3.2836461e-14
3.2553528e-14
3.2263785e-14
3.1971121e-14
3.1678521e-14
3.1388033e-14
3.1101032e-14
3.0818218e-14
3.053999e-14
3.0266958e-14
2.9997741e-14
2.973354e-14
2.9467812e-14
2.9200545e-14
2.8945839e-14
2.8573767e-14
1.9218902e-07
1.867924e-07
1.874155e-07
1.8785234e-07
1.8811216e-07
1.8824647e-07
1.8831897e-07
1.8836435e-07
1.8839698e-07
1.8842282e-07
1.8844477e-07
1.8846456e-07
1.8848345e-07
1.8850246e-07
1.8852265e-07
1.8854485e-07
1.8857144e-07
1.8859928e-07
1.8865359e-07
1.8864082e-07
1.8895101e-07
1.8851752e-07
1.8454438e-07
1.2305625e-09
4.5982695e-14
2.2392203e-15
1.1642557e-15
8.0385443e-16
6.6139658e-16
5.813797e-16
5.2434064e-16
4.7989451e-16
4.4462501e-16
4.1584073e-16
3.9187982e-16
3.7177044e-16
3.5494127e-16
3.410399e-16
3.2974706e-16
3.2063299e-16
3.1292619e-16
3.0627482e-16
3.006227e-16
2.9595979e-16
2.9225024e-16
2.8944768e-16
2.8750903e-16
2.8640155e-16
2.8608872e-16
2.8660234e-16
2.8769522e-16
2.8926742e-16
2.9135145e-16
2.9400043e-16
2.97279e-16