/*--------------------------------*- C++ -*----------------------------------*\
| =========                 |                                                 |
| \\      /  F ield         | OpenFOAM: The Open Source CFD Toolbox           |
|  \\    /   O peration     | Version:  2206                                  |
|   \\  /    A nd           | Website:  www.openfoam.com                      |
|    \\/     M anipulation  |                                                 |
\*---------------------------------------------------------------------------*/
FoamFile
{
    version     2.0;
    format      ascii;
    arch        "LSB;label=32;scalar=64";
    class       volScalarField;
    location    "2000";
    object      omega;
}
// * * * * * * * * * * * * * * * * * * * * * * * * * * * * * * * * * * * * * //

dimensions      [0 0 -1 0 0 0 0];

internalField   nonuniform List<scalar> 
13056
(
444.36654
310.15379
301.87728
299.94835
299.52328
299.37233
299.28113
299.22007
299.17968
299.15413
299.14002
299.13549
299.13961
299.15222
299.1736
299.20543
299.24814
299.31117
299.38161
299.53145
299.65745
299.38779
312.98429
19548.645
1.1944345e+09
1.1944345e+09
1.1944345e+09
1.1944345e+09
1.1944345e+09
1.1944345e+09
1.1944345e+09
1.1944345e+09
1.1944345e+09
1.1944345e+09
1.1944345e+09
1.1944345e+09
1.1944345e+09
1.1944345e+09
1.1944345e+09
1.1944345e+09
1.1944345e+09
1.1944345e+09
1.1944345e+09
1.1944345e+09
1.1944345e+09
1.1944345e+09
1.1944345e+09
1.1944345e+09
1.1944345e+09
1.1944345e+09
1.1944345e+09
1.1944345e+09
1.1944345e+09
1.1944345e+09
1.1944345e+09
1.1944345e+09
1.1944345e+09
1.1944345e+09
1.1944345e+09
1.1944345e+09
1.1944345e+09
1.1944345e+09
1.1944345e+09
1.1944345e+09
1.1944345e+09
1.1944345e+09
1.1944345e+09
1.1944345e+09
1.1944345e+09
1.1944345e+09
1.1944345e+09
1.1944345e+09
1.1944345e+09
1.1944345e+09
1.1944345e+09
1.1944345e+09
1.1944345e+09
1.1944345e+09
1.1944345e+09
1.1944345e+09
1.1944345e+09
1.1944345e+09
1.1944345e+09
1.1944345e+09
1.1944345e+09
1.1944345e+09
1.1944345e+09
1.1944345e+09
1.1944345e+09
1.1944345e+09
1.1944345e+09
1.1944345e+09
1.1944345e+09
1.1944345e+09
1.1944345e+09
1.1944345e+09
1.1944345e+09
1.1944345e+09
1.1944345e+09
1.1944345e+09
1.1944345e+09
1.1944345e+09
1.1944345e+09
1.1944345e+09
1.1944345e+09
1.1944345e+09
1.1944345e+09
1.1944345e+09
1.1944345e+09
1.1944345e+09
1.1944345e+09
1.1944345e+09
1.1944345e+09
1.1944345e+09
1.1944345e+09
1.1944345e+09
1.1944345e+09
1.1944345e+09
1.1944345e+09
1.1944345e+09
1.1944345e+09
1.1944345e+09
1.1944345e+09
1.1944345e+09
1.1944345e+09
1.1944345e+09
1.1944345e+09
1.1944345e+09
1.1944345e+09
1.1944345e+09
1.1944345e+09
1.1944345e+09
1.1944345e+09
1.1944345e+09
1.1944345e+09
1.1944345e+09
444.35738
310.12987
301.85232
299.92292
299.49768
299.34668
299.25546
299.19438
299.15398
299.12843
299.11431
299.10978
299.11389
299.1265
299.14787
299.1797
299.22241
299.28544
299.35587
299.50571
299.63174
299.36186
312.95619
19258.441
1.9586949e+08
1.9626965e+08
1.9626964e+08
1.9626964e+08
1.9626965e+08
1.9626966e+08
1.9626967e+08
1.9626968e+08
1.9626969e+08
1.9626969e+08
1.962697e+08
1.9626971e+08
1.9626972e+08
1.9626973e+08
1.9626974e+08
1.9626975e+08
1.9626976e+08
1.9626977e+08
1.9626978e+08
1.9626979e+08
1.962698e+08
1.9626981e+08
1.9626983e+08
1.9626984e+08
1.9626985e+08
1.9626987e+08
1.9626989e+08
1.962699e+08
1.9626992e+08
1.9626995e+08
1.9626997e+08
1.9627e+08
1.9627003e+08
1.9627007e+08
1.9627011e+08
1.9627014e+08
1.9627018e+08
1.9627022e+08
1.9627026e+08
1.9627031e+08
1.9627037e+08
1.9627043e+08
1.962705e+08
1.9627058e+08
1.9627067e+08
1.9627078e+08
1.9627092e+08
1.9627112e+08
1.9627134e+08
1.9627151e+08
1.962717e+08
1.9627192e+08
1.9627218e+08
1.962725e+08
1.9627289e+08
1.9627338e+08
1.9627405e+08
1.9627513e+08
1.9627656e+08
1.9627746e+08
1.9627855e+08
1.9627991e+08
1.9628161e+08
1.9628383e+08
1.9628687e+08
1.9629196e+08
1.9630352e+08
1.9631022e+08
1.9631615e+08
1.9632353e+08
1.9633269e+08
1.9634397e+08
1.9635791e+08
1.9637528e+08
1.9639777e+08
1.9642749e+08
1.9646484e+08
1.9650646e+08
1.9654246e+08
1.9657422e+08
1.965952e+08
1.9661089e+08
1.9662159e+08
1.9662865e+08
1.9663321e+08
1.966363e+08
1.9663861e+08
1.9664047e+08
1.9664201e+08
1.9664323e+08
1.9664414e+08
1.9664479e+08
1.9664524e+08
1.9664554e+08
1.9664572e+08
1.9664582e+08
1.9664586e+08
1.9664584e+08
1.966458e+08
1.9664573e+08
1.9664565e+08
1.9664555e+08
1.9664543e+08
1.9664532e+08
1.966452e+08
1.9664509e+08
1.9664497e+08
1.9664491e+08
1.9664477e+08
1.9664498e+08
1.966449e+08
1.9664476e+08
444.32809
310.05502
301.77436
299.84354
299.4178
299.26665
299.17536
299.11424
299.0738
299.04823
299.0341
299.02955
299.03365
299.04625
299.06761
299.09943
299.14213
299.20515
299.27558
299.42539
299.55149
299.281
312.87149
18921.133
64127188
64221361
64221353
64221355
64221368
64221385
64221402
64221418
64221439
64221471
64221511
64221557
64221607
64221648
64221671
64221682
64221693
64221703
64221714
64221726
64221739
64221753
64221769
64221786
64221805
64221827
64221851
64221878
64221917
64221980
64222065
64222188
64222362
64222582
64222766
64222831
64222865
64222903
64222946
64222995
64223052
64223117
64223194
64223324
64223527
64223856
64224454
64225590
64226973
64227266
64227418
64227600
64227850
64228246
64228852
64229956
64232350
64238937
64248935
64249888
64250931
64252396
64254618
64258447
64266614
64291971
64386987
64414489
64420661
64429656
64443255
64464538
64499929
64560249
64667200
64852085
65131969
65478090
65791208
66070011
66251324
66381382
66463055
66509111
66531544
66541179
66544989
66546475
66547135
66547497
66547725
66547877
66547981
66548047
66548087
66548110
66548119
66548116
66548106
66548092
66548072
66548049
66548024
66547998
66547972
66547947
66547918
66547906
66547872
66547920
66547902
66547871
444.27776
309.92681
301.64086
299.70764
299.28104
299.12962
299.03822
298.97703
298.93654
298.91092
298.89676
298.89219
298.89627
298.90885
298.9302
298.96201
299.00469
299.0677
299.13811
299.28787
299.41409
299.14257
312.72737
18564.43
29315819
29342675
29342672
29342684
29342729
29342789
29342851
29342915
29343001
29343150
29343336
29343559
29343797
29343991
29344089
29344124
29344152
29344181
29344213
29344247
29344285
29344328
29344376
29344430
29344491
29344563
29344645
29344739
29344894
29345164
29345553
29346128
29346966
29348038
29348916
29349167
29349247
29349337
29349443
29349568
29349716
29349895
29350115
29350583
29351406
29352851
29355650
29361196
29367971
29369046
29369315
29369653
29370236
29371429
29373544
29378008
29388860
29420997
29470341
29472669
29474825
29478328
29484611
29497621
29530782
29648920
30119794
30239566
30241649
30244685
30249273
30255717
30268399
30288747
30324807
30387090
30481251
30597484
30702435
30795726
30856316
30899740
30926992
30942354
30949835
30953048
30954319
30954814
30955034
30955155
30955231
30955282
30955316
30955338
30955352
30955360
30955362
30955361
30955358
30955353
30955347
30955339
30955331
30955322
30955313
30955305
30955296
30955291
30955280
30955296
30955290
30955280
444.20496
309.74144
301.44786
299.51115
299.08333
298.93153
298.83995
298.77866
298.73809
298.71242
298.69821
298.6936
298.69765
298.71021
298.73154
298.76333
298.806
298.86898
298.93937
299.08905
299.21545
298.94246
312.51939
18192.316
16058537
16057923
16057943
16057980
16058126
16058319
16058520
16058727
16059013
16059515
16060145
16060902
16061712
16062372
16062696
16062803
16062886
16062974
16063069
16063174
16063289
16063419
16063566
16063733
16063926
16064150
16064409
16064709
16065215
16066118
16067428
16069375
16072225
16075879
16078859
16079676
16079898
16080152
16080453
16080813
16081246
16081774
16082433
16083934
16086639
16091471
16100940
16119840
16142943
16146393
16147025
16147843
16149432
16153037
16159675
16173733
16209380
16317798
16484846
16488564
16489488
16490989
16493681
16499255
16513461
16564026
16764912
16815827
16816713
16818003
16819952
16822691
16828079
16836722
16852035
16878471
16918401
16967637
17012040
17051468
17077054
17095381
17106879
17113359
17116514
17117869
17118405
17118614
17118707
17118757
17118789
17118811
17118825
17118835
17118840
17118844
17118845
17118844
17118843
17118841
17118838
17118835
17118831
17118828
17118824
17118821
17118817
17118815
17118810
17118817
17118814
17118810
444.10779
309.49377
301.18997
299.2486
298.81912
298.66681
298.57501
298.51358
298.47291
298.44715
298.43289
298.42823
298.43225
298.44477
298.46607
298.49783
298.54048
298.60344
298.67379
298.82338
298.95
298.67505
312.24147
17803.753
9816941.2
9789058.8
9789132.9
9789229.5
9789598.6
9790091.5
9790608.6
9791144.6
9791898.3
9793243.4
9794939.7
9796985.1
9799172.1
9800949.4
9801806.2
9802067
9802263.2
9802469.4
9802693.9
9802941.7
9803218.6
9803531.1
9803886.7
9804295.2
9804768.2
9805323.6
9805970.5
9806725.8
9808038.1
9810431.6
9813929.5
9819160
9826852.7
9836734.8
9844764.9
9846866
9847325
9847851.4
9848483.6
9849252.5
9850192.6
9851359.6
9852840.8
9856571.7
9863530.1
9876216.4
9901477.7
9952393.1
10014673
10022995
10023308
10023714
10024502
10026289
10029580
10036548
10054210
10107860
10190293
10192123
10192578
10193318
10194645
10197391
10204391
10229292
10327995
10352941
10353374
10354007
10354962
10356304
10358944
10363178
10370678
10383621
10403161
10427234
10448928
10468176
10480660
10489599
10495206
10498365
10499903
10500564
10500825
10500927
10500972
10500997
10501012
10501023
10501030
10501034
10501037
10501039
10501039
10501039
10501038
10501037
10501036
10501035
10501033
10501031
10501029
10501028
10501026
10501025
10501022
10501026
10501024
10501022
443.98386
309.1773
300.86039
298.91304
298.48146
298.32849
298.2364
298.17478
298.13398
298.10813
298.09378
298.08907
298.09303
298.10552
298.12678
298.15851
298.20112
298.26405
298.33436
298.48382
298.61074
298.3333
311.88591
17396.279
6471067
6402444.1
6402621.9
6402828
6403614.8
6404678.1
6405806.6
6406987.3
6408685.7
6411785.2
6415716.9
6420474.2
6425565.1
6429683.2
6431617.4
6432132.9
6432489.9
6432866.1
6433279
6433739.1
6434258.5
6434850.5
6435531.3
6436321.8
6437247.5
6438346.8
6439642.6
6441173.4
6443994.4
6449340.2
6457259.1
6469229.7
6486970.9
6509831.8
6528243.9
6532532.2
6532811.5
6533098.4
6533443
6533862.1
6534374.5
6535010.6
6535818
6537852.1
6541644.4
6548557
6562315.1
6590016
6623835.4
6628343.6
6628513.7
6628733.9
6629161.6
6630131.3
6631917
6635697.5
6645277.7
6674351.5
6718924.9
6719911.1
6720157.2
6720556.8
6721273.8
6722757.8
6726538.8
6739986.5
6793198.9
6806614.7
6806848.2
6807188.3
6807702.3
6808424.6
6809844.5
6812122.5
6816156.8
6823116.9
6833619.5
6846551.8
6858198.8
6868527.5
6875224.1
6880017.7
6883023.6
6884717.2
6885541.7
6885895.7
6886035.8
6886090.4
6886114.6
6886127.9
6886136.3
6886141.9
6886145.7
6886148.1
6886149.6
6886150.4
6886150.8
6886150.7
6886150.3
6886149.8
6886149.1
6886148.2
6886147.3
6886146.3
6886145.4
6886144.4
6886143.4
6886142.9
6886141.7
6886143.4
6886142.8
6886141.6
443.8303
308.78423
300.45094
298.49614
298.06192
297.90813
297.81569
297.75385
297.71288
297.6869
297.67246
297.66766
297.67157
297.684
297.70523
297.73692
297.77948
297.84236
297.91263
298.06194
298.18921
297.90869
311.44335
16967.037
4485881.5
4403691.2
4404019.7
4404383.8
4405783.9
4407711.6
4409793.8
4412004.1
4415323.3
4421645.8
4429746.9
4439606.6
4450161.5
4458600.3
4462311.8
4462924.9
4463150.7
4463370.8
4463611
4463878.6
4464180.6
4464524.8
4464920.7
4465380.4
4465918.6
4466557.8
4467311.2
4468201.2
4469842.6
4472950.5
4477553.3
4484508.6
4494810.4
4508072.2
4518738.4
4521218.1
4521379.8
4521546
4521745.7
4521988.5
4522285.4
4522653.9
4523121.7
4524300.6
4526497.9
4530502.2
4538469.3
4554497.4
4574033.6
4576631.8
4576730
4576857.1
4577104.1
4577664.1
4578695.2
4580878.1
4586408.7
4603181.4
4628847.7
4629413.8
4629555.4
4629785.4
4630198
4631052.2
4633228.2
4640965.8
4671542.5
4679234.3
4679368.2
4679563.4
4679858.3
4680272.8
4681087.3
4682394.1
4684708.3
4688699.8
4694721
4702132
4708803.4
4714717.1
4718550.3
4721293.6
4723013.6
4723982.6
4724454.3
4724656.9
4724737
4724768.2
4724782.1
4724789.7
4724794.5
4724797.7
4724799.9
4724801.2
4724802.1
4724802.6
4724802.8
4724802.7
4724802.5
4724802.2
4724801.8
4724801.3
4724800.8
4724800.2
4724799.7
4724799.1
4724798.5
4724798.3
4724797.6
4724798.6
4724798.2
4724797.5
443.64383
308.30543
299.95205
297.98812
297.55068
297.39589
297.30301
297.24088
297.19971
297.17358
297.15902
297.15413
297.15796
297.17034
297.1915
297.22315
297.26566
297.32849
297.39869
297.54782
297.67553
297.39126
310.90273
16513.187
3203247.4
3153048.1
3153233.7
3153454.6
3154306.2
3155479.1
3156746.1
3158091
3160113
3163959.9
3168886.9
3174880
3181290.3
3186409.5
3188657.6
3189028.3
3189165.3
3189298.9
3189444.7
3189607.1
3189790.4
3189999.2
3190239.5
3190518.4
3190845.1
3191233
3191690.1
3192230.2
3193227
3195112.9
3197905.6
3202124.2
3208369.6
3216402.6
3222854.9
3224352.1
3224449.8
3224550.4
3224671.2
3224818.2
3224997.8
3225220.9
3225503.9
3226217.6
3227547.4
3229970.5
3234790.1
3244479.8
3256273.1
3257837.8
3257897.1
3257973.8
3258122.9
3258460.9
3259083.3
3260400.8
3263738.4
3273855
3289310.1
3289649.9
3289735.1
3289873.6
3290122
3290636.2
3291946.2
3296603.7
3314988.1
3319603
3319683.5
3319800.7
3319977.8
3320226.8
3320715.8
3321500.6
3322890
3325286.3
3328900
3333346.2
3337347.4
3340892.9
3343190.6
3344834.7
3345865.4
3346446
3346728.7
3346850
3346898
3346916.8
3346925.1
3346929.6
3346932.5
3346934.4
3346935.7
3346936.6
3346937.1
3346937.4
3346937.5
3346937.4
3346937.3
3346937.1
3346936.9
3346936.6
3346936.3
3346935.9
3346935.6
3346935.3
3346934.9
3346934.8
3346934.3
3346934.9
3346934.7
3346934.3
443.42075
307.73046
299.35273
297.37778
296.93645
296.78044
296.68703
296.62457
296.58315
296.55683
296.54213
296.53713
296.54087
296.55316
296.57427
296.60585
296.64831
296.71108
296.7812
296.93012
297.05833
296.7696
310.25123
16032.117
2337192.7
2305495.5
2305586.7
2305722.8
2306256.4
2306992
2307786.9
2308630.6
2309900.9
2312314.6
2315405.1
2319162.3
2323178
2326381.3
2327785.8
2328017.1
2328102.8
2328186.5
2328277.7
2328379.4
2328494.1
2328624.9
2328775.3
2328949.9
2329154.4
2329397.3
2329683.5
2330021.6
2330646.2
2331827.1
2333575.3
2336215.7
2340122.9
2345144.7
2349173.2
2350106.1
2350167.1
2350229.9
2350305.4
2350397.2
2350509.4
2350648.7
2350825.6
2351271.6
2352102.3
2353616
2356626.2
2362674.6
2370026.2
2370999.2
2371036.1
2371083.9
2371176.9
2371387.6
2371775.6
2372596.9
2374677.3
2380980.7
2390595.6
2390806.3
2390859.4
2390945.5
2391100
2391419.9
2392234.9
2395131.9
2406557.1
2409419.2
2409469.1
2409541.9
2409651.8
2409806.5
2410110.1
2410597.2
2411459.7
2412947
2415189.4
2417947.6
2420429.1
2422627.3
2424051.6
2425070.7
2425709.5
2426069.3
2426244.5
2426319.7
2426349.4
2426361
2426366.2
2426369
2426370.8
2426372
2426372.8
2426373.3
2426373.6
2426373.8
2426373.9
2426373.8
2426373.8
2426373.6
2426373.5
2426373.3
2426373.1
2426372.9
2426372.7
2426372.5
2426372.3
2426372.2
2426371.9
2426372.3
2426372.2
2426371.9
443.15695
307.04751
298.64059
296.65243
296.20647
296.04899
295.95494
295.89207
295.85036
295.82382
295.80895
295.80381
295.80744
295.81965
295.84068
295.87219
295.91458
295.97727
296.04731
296.19598
296.32478
296.03079
309.47422
15521.586
1732792.2
1712241.3
1712271.8
1712356.3
1712697.8
1713169.6
1713679.6
1714221.1
1715037.6
1716587.2
1718570.7
1720981
1723555.2
1725606.5
1726504.5
1726652
1726707
1726760.5
1726819
1726884.1
1726957.6
1727041.4
1727137.8
1727249.7
1727380.7
1727536.3
1727719.7
1727936.4
1728337
1729093.8
1730214
1731905.7
1734407.9
1737621.8
1740196.9
1740792
1740831
1740871.2
1740919.4
1740978.2
1741049.9
1741139
1741252.1
1741537.6
1742069
1743037.2
1744962.4
1748828.9
1753522.4
1754142.1
1754165.7
1754196.2
1754255.6
1754390.1
1754637.9
1755162.3
1756490.7
1760514.2
1766642.7
1766776.6
1766810.4
1766865.3
1766963.8
1767167.7
1767687.2
1769533.9
1776810.7
1778630
1778661.8
1778708.1
1778778.1
1778876.5
1779069.7
1779379.7
1779928.5
1780874.7
1782301.2
1784055.3
1785633.1
1787030.4
1787935.7
1788583.3
1788989.2
1789217.9
1789329.2
1789377
1789395.9
1789403.2
1789406.5
1789408.3
1789409.4
1789410.2
1789410.7
1789411
1789411.2
1789411.3
1789411.4
1789411.4
1789411.3
1789411.2
1789411.1
1789411
1789410.9
1789410.8
1789410.6
1789410.5
1789410.4
1789410.3
1789410.1
1789410.4
1789410.3
1789410.1
442.84798
306.24344
297.80174
295.7979
295.34644
295.18722
295.09241
295.02906
294.987
294.96019
294.94512
294.93982
294.94332
294.95542
294.97636
295.00779
295.0501
295.11271
295.18265
295.33103
295.46051
295.1604
308.5551
14979.831
1300280.8
1286660.3
1286649.2
1286701
1286922.9
1287230.5
1287563.3
1287916.7
1288450.6
1289462.7
1290757.9
1292331.2
1294010.4
1295347.1
1295931.2
1296027
1296062.8
1296097.7
1296135.8
1296178.2
1296226.2
1296280.8
1296343.6
1296416.6
1296502
1296603.5
1296723.1
1296864.4
1297125.9
1297619.5
1298350.1
1299453.1
1301084.3
1303177.9
1304853.4
1305239.8
1305265.1
1305291.3
1305322.7
1305361
1305407.7
1305465.7
1305539.3
1305725.3
1306071.4
1306701.9
1307955.4
1310471.9
1313523
1313924.8
1313940.2
1313960
1313998.6
1314086.1
1314247.2
1314588.2
1315452
1318067.4
1322046
1322132.6
1322154.5
1322190.2
1322254.1
1322386.5
1322723.9
1323922.9
1328644.5
1329822.6
1329843.2
1329873.2
1329918.6
1329982.4
1330107.6
1330308.6
1330664.4
1331277.8
1332202.4
1333339.1
1334361.3
1335266.4
1335852.8
1336272.2
1336535
1336683.1
1336755.2
1336786.1
1336798.4
1336803.1
1336805.3
1336806.4
1336807.1
1336807.6
1336808
1336808.2
1336808.3
1336808.4
1336808.4
1336808.4
1336808.4
1336808.3
1336808.3
1336808.2
1336808.1
1336808
1336807.9
1336807.8
1336807.8
1336807.7
1336807.6
1336807.8
1336807.7
1336807.6
442.48903
305.30371
296.82082
294.79846
294.34053
294.17925
294.08353
294.01962
293.97714
293.95002
293.9347
293.92922
293.93257
293.94455
293.96537
293.99671
294.03892
294.10144
294.17126
294.31931
294.44958
294.14243
307.47523
14405.685
984755.85
975551.46
975509.58
975540.1
975685.49
975888.38
976108.21
976341.86
976695.5
977365.3
978222.32
979262.94
980372.93
981255.54
981640.57
981703.57
981727.18
981750.22
981775.37
981803.4
981835.05
981871.14
981912.65
981960.86
982017.32
982084.37
982163.39
982256.76
982429.81
982756.08
983239.01
983968.01
985045.7
986428.19
987533.25
987787.52
987804.22
987821.49
987842.22
987867.45
987898.29
987936.58
987985.18
988108
988336.46
988752.71
989580.16
991240.66
993251.64
993515.78
993525.88
993538.96
993564.44
993622.11
993728.32
993953.17
994522.68
996246.72
998865.95
998922.74
998937.19
998960.66
999002.77
999089.96
999312.1
1000101.7
1003209
1003982.9
1003996.4
1004016.2
1004046
1004088
1004170.3
1004302.5
1004536.5
1004939.9
1005547.8
1006295.1
1006966.9
1007561.7
1007947
1008222.6
1008395.3
1008492.6
1008539.9
1008560.2
1008568.3
1008571.4
1008572.8
1008573.6
1008574.1
1008574.4
1008574.6
1008574.7
1008574.8
1008574.9
1008574.9
1008574.9
1008574.9
1008574.8
1008574.8
1008574.7
1008574.7
1008574.6
1008574.6
1008574.5
1008574.4
1008574.4
1008574.3
1008574.4
1008574.4
1008574.3
442.07502
304.21236
295.6809
293.63679
293.17128
293.00756
292.91079
292.8462
292.80324
292.77575
292.76015
292.75444
292.75761
292.76945
292.79015
292.82138
292.86348
292.92588
292.99558
293.14327
293.2744
292.95927
306.21378
13798.687
751118.41
744783.32
744716.88
744732.95
744828.5
744963.33
745109.81
745265.7
745502.26
745949.97
746522.78
747218.1
747959.34
748548.12
748804.5
748846.33
748862.05
748877.4
748894.16
748912.84
748933.95
748958.03
748985.73
749017.9
749055.58
749100.34
749153.1
749215.44
749331.12
749549.03
749871.56
750358.39
751077.88
752000.33
752736.82
752905.91
752917.03
752928.53
752942.36
752959.18
752979.75
753005.28
753037.7
753119.66
753272.08
753549.78
754101.78
755209.14
756548.73
756724.22
756730.95
756739.66
756756.64
756795.07
756865.85
757015.69
757395.24
758543.97
760287.04
760324.7
760334.31
760349.93
760377.97
760436
760583.89
761109.6
763177.07
763690.97
763699.97
763713.1
763732.93
763760.88
763815.61
763903.52
764059.12
764327.33
764731.49
765228.19
765674.73
766069.97
766325.98
766509.08
766623.83
766688.46
766719.92
766733.43
766738.77
766740.85
766741.78
766742.29
766742.61
766742.82
766742.97
766743.06
766743.11
766743.14
766743.15
766743.15
766743.13
766743.11
766743.08
766743.05
766743.01
766742.97
766742.94
766742.9
766742.86
766742.84
766742.79
766742.86
766742.83
766742.78
441.60063
302.95201
294.36349
292.29394
291.81958
291.653
291.55498
291.4896
291.44607
291.41815
291.40222
291.39625
291.39921
291.41088
291.43143
291.46254
291.50451
291.56679
291.63635
291.78363
291.91572
291.59169
304.74766
13159.19
576097.01
571656
571568.4
571574.23
571636.71
571726.61
571824.74
571929.4
572088.77
572390.31
572776.13
573244.38
573743.27
574139.14
574311.19
574339.16
574349.69
574359.97
574371.21
574383.75
574397.93
574414.1
574432.72
574454.35
574479.7
574509.81
574545.31
574587.25
574665.21
574811.91
575029.06
575356.78
575841.03
576461.53
576956.38
577069.73
577077.19
577084.92
577094.21
577105.51
577119.34
577136.51
577158.3
577213.45
577315.97
577502.76
577874.03
578618.61
579518.38
579635.94
579640.45
579646.3
579657.71
579683.53
579731.09
579831.78
580086.85
580858.69
582028.48
582053.66
582060.11
582070.59
582089.41
582128.37
582227.66
582580.64
583968.04
584312.24
584318.27
584327.08
584340.38
584359.13
584395.83
584454.79
584559.15
584739.03
585010.06
585343.09
585642.46
585907.39
586078.99
586201.72
586278.62
586321.94
586343.02
586352.07
586355.66
586357.05
586357.67
586358.02
586358.23
586358.37
586358.47
586358.53
586358.57
586358.59
586358.59
586358.59
586358.58
586358.56
586358.54
586358.52
586358.49
586358.46
586358.44
586358.41
586358.38
586358.37
586358.34
586358.38
586358.36
586358.33
441.06042
301.50383
292.84849
290.74926
290.26462
290.09468
289.9952
289.92891
289.88471
289.85628
289.83996
289.83369
289.83641
289.84788
289.86827
289.89922
289.94106
290.0032
290.0726
290.21944
290.35258
290.01881
303.05132
12488.457
443789.7
440615.96
440508.81
440507
440547.15
440606.98
440672.83
440743.33
440851.23
441055.46
441316.87
441634.09
441971.91
442239.69
442355.83
442374.61
442381.68
442388.58
442396.14
442404.59
442414.16
442425.08
442437.66
442452.28
442469.42
442489.8
442513.82
442542.21
442595.06
442694.45
442841.56
443063.57
443391.54
443811.59
444146.18
444222.65
444227.68
444232.91
444239.18
444246.82
444256.17
444267.78
444282.52
444319.87
444389.26
444515.71
444767.03
445270.93
445879.2
445958.46
445961.51
445965.46
445973.17
445990.63
446022.79
446090.9
446263.43
446785.45
447575.69
447592.64
447597
447604.08
447616.79
447643.12
447710.22
447948.8
448886.08
449118.17
449122.24
449128.18
449137.16
449149.83
449174.6
449214.42
449284.89
449406.35
449589.34
449814.16
450016.23
450195.03
450310.85
450393.67
450445.57
450474.8
450489.03
450495.14
450497.56
450498.5
450498.92
450499.15
450499.29
450499.39
450499.45
450499.49
450499.52
450499.53
450499.53
450499.53
450499.52
450499.51
450499.49
450499.48
450499.46
450499.44
450499.42
450499.4
450499.38
450499.37
450499.35
450499.38
450499.36
450499.34
440.44887
299.84761
291.11417
288.98043
288.48387
288.31002
288.20883
288.14147
288.09649
288.06748
288.0507
288.04408
288.04652
288.05775
288.07795
288.10875
288.15042
288.21241
288.28163
288.428
288.56226
288.21814
301.09675
11788.741
343055.9
340740.43
340614.16
340606.26
340631.03
340670.47
340714.53
340762.02
340835.26
340974.13
341152
341367.88
341597.68
341779.65
341858.38
341871.02
341875.74
341880.38
341885.46
341891.16
341897.62
341905.01
341913.53
341923.45
341935.09
341948.93
341965.25
341984.56
342020.55
342088.21
342188.35
342339.49
342562.72
342848.48
343075.86
343127.69
343131.1
343134.64
343138.89
343144.08
343150.43
343158.32
343168.33
343193.74
343240.95
343326.98
343497.96
343840.7
344254.02
344307.73
344309.79
344312.47
344317.71
344329.57
344351.43
344397.73
344515.03
344869.92
345406.55
345418.01
345420.96
345425.77
345434.4
345452.28
345497.87
345659.97
346296.52
346453.85
346456.61
346460.64
346466.73
346475.33
346492.15
346519.17
346567.02
346649.48
346773.69
346926.28
347063.42
347184.75
347263.34
347319.54
347354.75
347374.59
347384.24
347388.39
347390.03
347390.67
347390.96
347391.11
347391.21
347391.28
347391.32
347391.35
347391.36
347391.37
347391.37
347391.36
347391.36
347391.35
347391.33
347391.32
347391.31
347391.29
347391.28
347391.26
347391.25
347391.24
347391.22
347391.24
347391.23
347391.21
439.76061
297.96179
289.13726
286.96347
286.45313
286.27472
286.17154
286.10292
286.05704
286.02735
286.01005
286.00301
286.00513
286.0161
286.03608
286.06668
286.10817
286.17001
286.23903
286.3849
286.52034
286.16561
298.85339
11063.338
265928.36
264201.2
264055.43
264042.28
264056.21
264081.63
264110.81
264142.64
264192.34
264286.98
264408.36
264555.73
264712.58
264836.65
264890.17
264898.66
264901.79
264904.87
264908.27
264912.1
264916.45
264921.45
264927.22
264933.96
264941.87
264951.29
264962.42
264975.58
265000.18
265046.4
265114.83
265218.11
265370.64
265565.81
265720.92
265756.19
265758.5
265760.9
265763.79
265767.32
265771.64
265777.01
265783.84
265801.2
265833.43
265892.19
266008.98
266243.04
266525.02
266561.56
266562.96
266564.78
266568.35
266576.44
266591.35
266622.95
266703.03
266945.28
267311.19
267318.97
267320.98
267324.25
267330.13
267342.33
267373.43
267484.02
267918.14
268025.24
268027.11
268029.86
268034.01
268039.87
268051.33
268069.76
268102.39
268158.6
268243.28
268347.3
268440.78
268523.47
268577.03
268615.33
268639.34
268652.85
268659.44
268662.26
268663.38
268663.82
268664.02
268664.12
268664.19
268664.23
268664.26
268664.28
268664.29
268664.29
268664.29
268664.28
268664.27
268664.27
268664.26
268664.24
268664.23
268664.22
268664.21
268664.2
268664.19
268664.18
268664.17
268664.17
268664.17
268664.15
438.99053
295.82363
286.89294
284.67279
284.14656
283.96284
283.85733
283.78727
283.74033
283.70984
283.69193
283.68442
283.68616
283.69683
283.71656
283.74695
283.78824
283.8499
283.9187
284.06406
284.20069
283.83579
296.28811
10316.596
206611.91
205293.44
205127.2
205109.15
205115.17
205130.78
205149.66
205170.73
205204.32
205268.82
205351.75
205452.55
205559.84
205644.61
205681.04
205686.69
205688.72
205690.73
205692.97
205695.51
205698.43
205701.79
205705.69
205710.25
205715.62
205722.04
205729.62
205738.61
205755.46
205787.12
205834.01
205904.79
206009.33
206143.03
206249.17
206273.23
206274.79
206276.42
206278.38
206280.78
206283.72
206287.39
206292.05
206303.93
206326.01
206366.26
206446.29
206606.64
206799.62
206824.56
206825.5
206826.74
206829.18
206834.71
206844.91
206866.55
206921.38
207087.28
207337.6
207342.9
207344.27
207346.5
207350.52
207358.86
207380.14
207455.85
207752.9
207826.05
207827.33
207829.2
207832.03
207836.04
207843.88
207856.5
207878.82
207917.28
207975.21
208046.37
208110.31
208166.87
208203.51
208229.71
208246.13
208255.37
208259.88
208261.82
208262.58
208262.88
208263.02
208263.09
208263.14
208263.16
208263.18
208263.19
208263.19
208263.19
208263.19
208263.18
208263.18
208263.17
208263.16
208263.15
208263.14
208263.13
208263.12
208263.11
208263.1
208263.09
208263.08
208263.08
208263.07
208263.06
438.13403
293.40934
284.35503
282.08141
281.5368
281.34691
281.23869
281.16694
281.11878
281.08737
281.06876
281.0607
281.062
281.07232
281.09176
281.12191
281.16298
281.22445
281.29303
281.43787
281.57567
281.20204
293.36532
9553.8836
160832.33
159802.51
159614.41
159591.43
159591.43
159599.98
159611.62
159625.19
159647.64
159691.49
159748.12
159817.09
159890.54
159948.5
159973.27
159976.98
159978.23
159979.48
159980.91
159982.56
159984.47
159986.7
159989.31
159992.38
159996.01
160000.36
160005.52
160011.65
160023.2
160044.92
160077.12
160125.74
160197.54
160289.35
160362.15
160378.6
160379.64
160380.73
160382.06
160383.68
160385.69
160388.18
160391.37
160399.52
160414.67
160442.31
160497.27
160607.39
160739.81
160756.86
160757.5
160758.33
160760
160763.78
160770.78
160785.62
160823.27
160937.17
161108.86
161112.48
161113.41
161114.93
161117.68
161123.4
161138
161189.95
161393.76
161443.85
161444.72
161446
161447.94
161450.7
161456.07
161464.73
161480.05
161506.45
161546.2
161595.01
161638.89
161677.69
161702.82
161720.8
161732.07
161738.41
161741.51
161742.84
161743.37
161743.58
161743.67
161743.72
161743.75
161743.77
161743.78
161743.78
161743.78
161743.78
161743.77
161743.76
161743.75
161743.74
161743.73
161743.72
161743.71
161743.7
161743.69
161743.68
161743.67
161743.66
161743.65
161743.65
161743.64
161743.63
437.18735
290.69444
281.49618
279.16104
278.59518
278.39811
278.28675
278.21303
278.16346
278.13098
278.11155
278.10285
278.10365
278.11357
278.13268
278.16257
278.20338
278.26466
278.333
278.47734
278.61619
278.23694
290.04709
8781.4988
125401.15
124579.87
124368.21
124339.97
124335.08
124338.38
124344.78
124353.03
124367.72
124397.31
124435.84
124482.95
124533.19
124572.78
124589.56
124591.89
124592.58
124593.29
124594.14
124595.15
124596.36
124597.79
124599.5
124601.53
124603.96
124606.89
124610.38
124614.54
124622.45
124637.36
124659.49
124692.93
124742.33
124805.49
124855.5
124866.75
124867.44
124868.16
124869.04
124870.13
124871.49
124873.18
124875.35
124880.94
124891.35
124910.35
124948.17
125023.95
125114.99
125126.67
125127.09
125127.65
125128.78
125131.37
125136.17
125146.37
125172.26
125250.62
125368.63
125371.1
125371.72
125372.76
125374.64
125378.56
125388.59
125424.32
125564.45
125598.83
125599.42
125600.3
125601.63
125603.52
125607.22
125613.18
125623.72
125641.89
125669.23
125702.81
125733
125759.68
125776.98
125789.35
125797.1
125801.47
125803.6
125804.52
125804.89
125805.03
125805.1
125805.13
125805.15
125805.16
125805.16
125805.16
125805.16
125805.15
125805.15
125805.14
125805.13
125805.12
125805.1
125805.09
125805.08
125805.07
125805.06
125805.05
125805.04
125805.03
125805.02
125805.01
125805
125804.98
436.14788
287.65412
278.28826
275.88239
275.292
275.08658
274.97156
274.89557
274.84435
274.81063
274.79025
274.78082
274.78104
274.7905
274.80924
274.83882
274.87937
274.94043
275.00852
275.15242
275.29212
274.91179
286.29437
8006.5239
97917.677
97252.061
97014.931
96980.806
96971.649
96970.844
96973.323
96977.683
96986.856
97006.529
97032.521
97064.543