/*--------------------------------*- C++ -*----------------------------------*\
| =========                 |                                                 |
| \\      /  F ield         | OpenFOAM: The Open Source CFD Toolbox           |
|  \\    /   O peration     | Version:  2206                                  |
|   \\  /    A nd           | Website:  www.openfoam.com                      |
|    \\/     M anipulation  |                                                 |
\*---------------------------------------------------------------------------*/
FoamFile
{
    version     2.0;
    format      ascii;
    arch        "LSB;label=32;scalar=64";
    class       volScalarField;
    location    "2000";
    object      p;
}
// * * * * * * * * * * * * * * * * * * * * * * * * * * * * * * * * * * * * * //

dimensions      [0 2 -2 0 0 0 0];

internalField   nonuniform List<scalar> 
13056
(
0.0120243
0.012128745
0.01234941
0.012630724
0.012971577
0.01337226
0.013830884
0.01434665
0.014920905
0.015556899
0.016259661
0.017036356
0.017896878
0.018855245
0.019930418
0.021151928
0.022556274
0.02422076
0.026203388
0.028804243
0.031925252
0.037424384
0.042516317
0.080381147
0.050828407
0.0022912031
0.00095355092
0.0018306656
0.0023812516
0.0028330295
0.0031110321
0.0033061903
0.0034547965
0.0035627079
0.0036393019
0.0036945569
0.0037348613
0.0037638293
0.0037839486
0.003797241
0.003805107
0.0038085571
0.0038083736
0.00380524
0.0037996021
0.0037917481
0.0037819994
0.0037705806
0.0037576822
0.003743427
0.0037279145
0.003711232
0.0036934406
0.0036746005
0.0036547541
0.0036339049
0.0036120558
0.0035892116
0.0035653655
0.0035405008
0.0035145984
0.0034876326
0.0034595459
0.0034302727
0.0033997459
0.0033678934
0.0033346421
0.0032999083
0.0032636076
0.0032256555
0.0031859474
0.003144362
0.0031007772
0.0030550785
0.0030071412
0.0029568803
0.0029042172
0.0028491533
0.0027916941
0.0027317895
0.0026695867
0.0026052404
0.0025389956
0.0024715345
0.0024039294
0.0023378045
0.0022754264
0.0022205408
0.0021780506
0.0021461212
0.0021424893
0.0021722218
0.0022314484
0.0023367923
0.0024932555
0.002703989
0.0029664649
0.0032705715
0.0036152197
0.0039644526
0.0042626998
0.0044571842
0.0045700591
0.0045696159
0.0044689424
0.0043514943
0.0042118699
0.0040613046
0.0039074858
0.0037505994
0.0035933659
0.0034345516
0.0032701003
0.0031045722
0.0029393728
0.002775336
0.0026150189
0.0024575391
0.0023010703
0.0021487214
0.0020005772
0.0018549962
0.0017121838
0.0015737094
0.0014397758
0.0013089306
0.0011816065
0.0010585696
0.00094196143
0.00083155408
0.00072982699
0.00063309205
0.00057057372
0.00048330424
0.00066844223
-0.00051368566
0.0120243
0.012128745
0.01234941
0.012630724
0.012971577
0.01337226
0.013830884
0.01434665
0.014920905
0.015556899
0.016259661
0.017036357
0.017896879
0.018855246
0.019930419
0.021151929
0.022556275
0.024220762
0.02620339
0.028804246
0.031925256
0.037424391
0.042516339
0.08037636
0.050839586
0.0022983741
0.00095538714
0.0018314969
0.0023817609
0.0028333877
0.0031113029
0.0033064056
0.0034549729
0.0035628556
0.003639428
0.0036946661
0.003734957
0.003763914
0.0037840241
0.0037973089
0.0038051684
0.0038086128
0.0038084245
0.0038052867
0.003799645
0.0037917878
0.0037820361
0.0037706147
0.003757714
0.0037434567
0.0037279422
0.0037112579
0.003693465
0.0036746234
0.0036547757
0.0036339252
0.0036120749
0.0035892297
0.0035653826
0.003540517
0.0035146138
0.0034876471
0.0034595597
0.0034302858
0.0033997584
0.0033679052
0.0033346533
0.003299919
0.0032636178
0.0032256652
0.0031859565
0.0031443707
0.0031007855
0.0030550863
0.0030071486
0.0029568873
0.0029042239
0.0028491595
0.0027917
0.002731795
0.0026695919
0.0026052452
0.002539
0.0024715385
0.002403933
0.0023378077
0.0022754292
0.0022205431
0.0021780524
0.0021461224
0.0021424898
0.0021722216
0.0022314474
0.0023367904
0.0024932528
0.0027039853
0.0029664604
0.0032705661
0.0036152138
0.0039644463
0.0042626937
0.0044571788
0.0045700546
0.0045696128
0.0044689401
0.0043514927
0.0042118688
0.0040613038
0.0039074853
0.0037505991
0.0035933658
0.0034345516
0.0032701004
0.0031045724
0.002939373
0.0027753364
0.0026150193
0.0024575395
0.0023010707
0.0021487219
0.0020005777
0.0018549967
0.0017121843
0.0015737099
0.0014397763
0.0013089311
0.001181607
0.00105857
0.00094196189
0.00083155454
0.00072982745
0.00063309251
0.00057057422
0.00048330477
0.00066844279
-0.00051368531
0.0120243
0.012128745
0.01234941
0.012630724
0.012971577
0.01337226
0.013830884
0.01434665
0.014920905
0.015556899
0.016259662
0.017036357
0.01789688
0.018855247
0.01993042
0.021151931
0.022556277
0.024220764
0.026203393
0.02880425
0.031925259
0.037424399
0.042516354
0.080371536
0.050854925
0.0023053416
0.0009575648
0.001832491
0.0023823699
0.002833816
0.0031116268
0.003306663
0.0034551837
0.0035630322
0.0036395787
0.0036947967
0.0037350715
0.0037640153
0.0037841145
0.00379739
0.0038052417
0.0038086795
0.0038084853
0.0038053425
0.0037996964
0.0037918352
0.00378208
0.0037706555
0.003757752
0.0037434921
0.0037279753
0.003711289
0.0036934941
0.0036746507
0.0036548014
0.0036339495
0.0036120979
0.0035892513
0.003565403
0.0035405363
0.0035146321
0.0034876645
0.0034595762
0.0034303014
0.0033997732
0.0033679193
0.0033346667
0.0032999317
0.0032636299
0.0032256767
0.0031859675
0.0031443811
0.0031007953
0.0030550957
0.0030071575
0.0029568957
0.0029042318
0.002849167
0.002791707
0.0027318016
0.002669598
0.0026052509
0.0025390053
0.0024715433
0.0024039374
0.0023378116
0.0022754325
0.0022205458
0.0021780546
0.0021461237
0.0021424904
0.0021722214
0.0022314462
0.0023367882
0.0024932494
0.0027039809
0.0029664549
0.0032705598
0.0036152067
0.0039644388
0.0042626865
0.0044571723
0.0045700492
0.004569609
0.0044689372
0.0043514908
0.0042118675
0.0040613029
0.0039074848
0.0037505987
0.0035933656
0.0034345516
0.0032701005
0.0031045726
0.0029393733
0.0027753367
0.0026150198
0.0024575401
0.0023010713
0.0021487225
0.0020005783
0.0018549973
0.0017121849
0.0015737105
0.0014397769
0.0013089316
0.0011816076
0.0010585706
0.00094196245
0.00083155509
0.00072982801
0.00063309306
0.00057057483
0.00048330541
0.00066844345
-0.00051368489
0.0120243
0.012128745
0.01234941
0.012630724
0.012971577
0.01337226
0.013830884
0.01434665
0.014920906
0.0155569
0.016259662
0.017036358
0.01789688
0.018855247
0.019930421
0.021151932
0.022556278
0.024220765
0.026203395
0.028804253
0.031925263
0.037424405
0.042516369
0.080366844
0.050872046
0.0023104855
0.00095961357
0.0018334648
0.0023829667
0.0028342357
0.0031119441
0.0033069152
0.0034553903
0.0035632053
0.0036397264
0.0036949246
0.0037351836
0.0037641145
0.003784203
0.0037974695
0.0038053136
0.0038087448
0.003808545
0.0038053971
0.0037997467
0.0037918817
0.0037821231
0.0037706955
0.0037577892
0.0037435268
0.0037280078
0.0037113194
0.0036935227
0.0036746776
0.0036548267
0.0036339733
0.0036121203
0.0035892725
0.0035654231
0.0035405553
0.0035146501
0.0034876815
0.0034595924
0.0034303168
0.0033997878
0.0033679331
0.0033346799
0.0032999442
0.0032636418
0.0032256879
0.0031859782
0.0031443913
0.003100805
0.0030551049
0.0030071662
0.0029569039
0.0029042396
0.0028491743
0.0027917139
0.002731808
0.0026696041
0.0026052565
0.0025390105
0.002471548
0.0024039416
0.0023378153
0.0022754358
0.0022205485
0.0021780567
0.0021461251
0.0021424909
0.0021722212
0.002231445
0.0023367861
0.0024932462
0.0027039765
0.0029664495
0.0032705535
0.0036151997
0.0039644314
0.0042626794
0.0044571659
0.0045700442
0.0045696053
0.0044689345
0.0043514889
0.0042118662
0.004061302
0.0039074842
0.0037505984
0.0035933654
0.0034345516
0.0032701006
0.0031045728
0.0029393736
0.0027753371
0.0026150202
0.0024575406
0.0023010718
0.002148723
0.0020005788
0.0018549979
0.0017121855
0.0015737111
0.0014397775
0.0013089322
0.0011816082
0.0010585712
0.000941963
0.00083155563
0.00072982855
0.0006330936
0.00057057542
0.00048330601
0.00066844411
-0.0005136845
0.0120243
0.012128745
0.01234941
0.012630724
0.012971577
0.013372261
0.013830885
0.014346651
0.014920906
0.0155569
0.016259663
0.017036358
0.017896881
0.018855248
0.019930422
0.021151933
0.02255628
0.024220767
0.026203397
0.028804256
0.031925267
0.03742441
0.042516386
0.08036182
0.050890273
0.0023161849
0.00096168562
0.0018344617
0.0023835777
0.0028346655
0.003112269
0.0033071735
0.0034556018
0.0035633824
0.0036398776
0.0036950556
0.0037352984
0.003764216
0.0037842936
0.0037975509
0.0038053871
0.0038088117
0.003808606
0.0038054531
0.0037997982
0.0037919293
0.0037821671
0.0037707364
0.0037578273
0.0037435624
0.003728041
0.0037113505
0.0036935519
0.003674705
0.0036548525
0.0036339976
0.0036121433
0.0035892942
0.0035654436
0.0035405747
0.0035146685
0.003487699
0.0034596089
0.0034303325
0.0033998027
0.0033679473
0.0033346933
0.003299957
0.0032636539
0.0032256995
0.0031859892
0.0031444017
0.0031008149
0.0030551143
0.0030071751
0.0029569124
0.0029042476
0.0028491819
0.002791721
0.0027318147
0.0026696102
0.0026052622
0.0025390157
0.0024715528
0.0024039459
0.0023378192
0.0022754391
0.0022205512
0.0021780588
0.0021461264
0.0021424914
0.002172221
0.0022314438
0.0023367838
0.0024932429
0.0027039721
0.002966444
0.0032705472
0.0036151926
0.0039644239
0.0042626721
0.0044571594
0.0045700391
0.0045696016
0.0044689317
0.004351487
0.0042118649
0.0040613011
0.0039074836
0.003750598
0.0035933652
0.0034345515
0.0032701007
0.0031045731
0.0029393739
0.0027753375
0.0026150207
0.0024575411
0.0023010724
0.0021487236
0.0020005794
0.0018549985
0.0017121861
0.0015737117
0.0014397781
0.0013089328
0.0011816087
0.0010585717
0.00094196357
0.00083155619
0.00072982911
0.00063309416
0.00057057602
0.00048330661
0.00066844477
-0.00051368411
0.0120243
0.012128745
0.01234941
0.012630725
0.012971578
0.013372261
0.013830885
0.014346651
0.014920906
0.0155569
0.016259663
0.017036359
0.017896882
0.018855249
0.019930423
0.021151934
0.022556281
0.024220769
0.026203399
0.028804259
0.031925271
0.037424414
0.042516407
0.080356242
0.050909277
0.0023232948
0.00096388907
0.0018355205
0.0023842268
0.002835122
0.0031126141
0.0033074478
0.0034558265
0.0035635706
0.0036400382
0.0036951947
0.0037354203
0.0037643239
0.0037843898
0.0037976374
0.0038054653
0.0038088827
0.0038086709
0.0038055126
0.0037998529
0.0037919798
0.0037822139
0.0037707799
0.0037578677
0.0037436001
0.0037280763
0.0037113836
0.0036935829
0.0036747342
0.00365488
0.0036340235
0.0036121677
0.0035893173
0.0035654654
0.0035405954
0.003514688
0.0034877175
0.0034596265
0.0034303491
0.0033998185
0.0033679623
0.0033347076
0.0032999705
0.0032636668
0.0032257118
0.0031860008
0.0031444128
0.0031008254
0.0030551242
0.0030071845
0.0029569213
0.002904256
0.0028491898
0.0027917285
0.0027318217
0.0026696168
0.0026052683
0.0025390214
0.0024715579
0.0024039506
0.0023378233
0.0022754426
0.0022205541
0.0021780611
0.0021461279
0.002142492
0.0021722207
0.0022314426
0.0023367815
0.0024932394
0.0027039673
0.0029664382
0.0032705404
0.003615185
0.0039644159
0.0042626644
0.0044571525
0.0045700336
0.0045695976
0.0044689287
0.004351485
0.0042118635
0.0040613002
0.003907483
0.0037505976
0.0035933651
0.0034345515
0.0032701008
0.0031045733
0.0029393743
0.0027753379
0.0026150212
0.0024575416
0.002301073
0.0021487242
0.0020005801
0.0018549991
0.0017121867
0.0015737123
0.0014397787
0.0013089334
0.0011816093
0.0010585723
0.00094196416
0.00083155677
0.0007298297
0.00063309474
0.00057057666
0.00048330726
0.00066844548
-0.00051368369
0.0120243
0.012128745
0.01234941
0.012630725
0.012971578
0.013372261
0.013830885
0.014346651
0.014920906
0.015556901
0.016259664
0.01703636
0.017896882
0.01885525
0.019930424
0.021151936
0.022556283
0.024220772
0.026203402
0.028804262
0.031925275
0.037424417
0.042516432
0.08035
0.05092928
0.002331157
0.00096626337
0.0018366601
0.0023849254
0.0028356133
0.0031129855
0.003307743
0.0034560683
0.0035637732
0.0036402111
0.0036953445
0.0037355515
0.00376444
0.0037844934
0.0037977304
0.0038055494
0.0038089592
0.0038087407
0.0038055766
0.0037999118
0.0037920342
0.0037822643
0.0037708267
0.0037579113
0.0037436408
0.0037281143
0.0037114192
0.0036936163
0.0036747656
0.0036549095
0.0036340513
0.003612194
0.0035893421
0.0035654889
0.0035406176
0.0035147091
0.0034877374
0.0034596454
0.0034303671
0.0033998355
0.0033679785
0.003334723
0.0032999852
0.0032636807
0.003225725
0.0031860134
0.0031444247
0.0031008367
0.003055135
0.0030071947
0.0029569309
0.0029042651
0.0028491984
0.0027917366
0.0027318293
0.0026696239
0.0026052749
0.0025390274
0.0024715635
0.0024039555
0.0023378277
0.0022754464
0.0022205572
0.0021780636
0.0021461294
0.0021424926
0.0021722205
0.0022314412
0.0023367789
0.0024932356
0.0027039623
0.0029664319
0.0032705331
0.0036151769
0.0039644073
0.0042626561
0.0044571451
0.0045700278
0.0045695933
0.0044689255
0.0043514828
0.004211862
0.0040612992
0.0039074823
0.0037505972
0.0035933649
0.0034345515
0.0032701009
0.0031045735
0.0029393746
0.0027753384
0.0026150217
0.0024575422
0.0023010736
0.0021487249
0.0020005807
0.0018549998
0.0017121874
0.001573713
0.0014397794
0.0013089341
0.00118161
0.001058573
0.00094196481
0.00083155741
0.00072983033
0.00063309537
0.00057057735
0.00048330795
0.00066844625
-0.00051368323
0.0120243
0.012128745
0.01234941
0.012630725
0.012971578
0.013372261
0.013830885
0.014346651
0.014920907
0.015556901
0.016259664
0.01703636
0.017896883
0.018855251
0.019930425
0.021151937
0.022556285
0.024220774
0.026203405
0.028804265
0.031925279
0.037424419
0.042516462
0.080342963
0.050950554
0.0023396002
0.00096883763
0.0018378956
0.0023856831
0.0028361462
0.0031133884
0.0033080632
0.0034563306
0.0035639929
0.0036403986
0.0036955069
0.0037356938
0.0037645659
0.0037846057
0.0037978314
0.0038056406
0.0038090421
0.0038088164
0.0038056459
0.0037999757
0.0037920931
0.0037823189
0.0037708774
0.0037579585
0.0037436848
0.0037281555
0.0037114578
0.0036936525
0.0036747996
0.0036549415
0.0036340815
0.0036122225
0.003589369
0.0035655143
0.0035406417
0.0035147319
0.0034877591
0.0034596659
0.0034303865
0.003399854
0.003367996
0.0033347397
0.003300001
0.0032636958
0.0032257393
0.003186027
0.0031444376
0.003100849
0.0030551466
0.0030072057
0.0029569414
0.002904275
0.0028492077
0.0027917453
0.0027318375
0.0026696315
0.002605282
0.0025390339
0.0024715694
0.0024039609
0.0023378325
0.0022754506
0.0022205606
0.0021780663
0.0021461311
0.0021424933
0.0021722202
0.0022314397
0.0023367762
0.0024932314
0.0027039567
0.0029664251
0.0032705252
0.003615168
0.003964398
0.0042626471
0.004457137
0.0045700214
0.0045695886
0.004468922
0.0043514804
0.0042118603
0.004061298
0.0039074816
0.0037505968
0.0035933646
0.0034345514
0.003270101
0.0031045738
0.002939375
0.0027753389
0.0026150223
0.0024575428
0.0023010743
0.0021487256
0.0020005815
0.0018550005
0.0017121881
0.0015737138
0.0014397801
0.0013089348
0.0011816107
0.0010585737
0.0009419655
0.00083155809
0.00072983103
0.00063309606
0.0005705781
0.0004833087
0.00066844707
-0.00051368274
0.0120243
0.012128745
0.01234941
0.012630725
0.012971578
0.013372261
0.013830886
0.014346652
0.014920907
0.015556902
0.016259665
0.017036361
0.017896884
0.018855252
0.019930427
0.021151939
0.022556287
0.024220777
0.026203408
0.028804269
0.031925284
0.037424419
0.042516499
0.080334958
0.050973327
0.0023487554
0.00097164786
0.0018392449
0.0023865107
0.0028367283
0.0031138285
0.003308413
0.0034566171
0.0035642328
0.0036406033
0.0036956843
0.0037358493
0.0037647035
0.0037847284
0.0037979416
0.0038057402
0.0038091327
0.0038088991
0.0038057217
0.0038000455
0.0037921576
0.0037823786
0.0037709328
0.0037580101
0.0037437329
0.0037282005
0.0037114999
0.0036936921
0.0036748368
0.0036549765
0.0036341145
0.0036122536
0.0035893984
0.0035655421
0.003540668
0.0035147568
0.0034877827
0.0034596883
0.0034304078
0.0033998742
0.0033680152
0.0033347579
0.0033000183
0.0032637122
0.0032257549
0.0031860418
0.0031444517
0.0031008624
0.0030551593
0.0030072178
0.0029569528
0.0029042858
0.0028492179
0.0027917549
0.0027318464
0.0026696399
0.0026052897
0.0025390411
0.002471576
0.0024039668
0.0023378377
0.0022754551
0.0022205643
0.0021780692
0.0021461329
0.002142494
0.0021722199
0.0022314381
0.0023367732
0.0024932269
0.0027039507
0.0029664177
0.0032705165
0.0036151584
0.0039643878
0.0042626373
0.0044571283
0.0045700145
0.0045695835
0.0044689182
0.0043514778
0.0042118585
0.0040612968
0.0039074808
0.0037505963
0.0035933644
0.0034345514
0.0032701012
0.0031045741
0.0029393754
0.0027753394
0.0026150229
0.0024575435
0.002301075
0.0021487264
0.0020005823
0.0018550013
0.001712189
0.0015737146
0.0014397809
0.0013089356
0.0011816115
0.0010585745
0.00094196626
0.00083155884
0.00072983178
0.0006330968
0.00057057892
0.00048330952
0.00066844798
-0.00051368221
0.0120243
0.012128746
0.01234941
0.012630725
0.012971578
0.013372262
0.013830886
0.014346652
0.014920908
0.015556902
0.016259666
0.017036362
0.017896886
0.018855254
0.019930429
0.021151941
0.02255629
0.02422078
0.026203411
0.028804272
0.031925289
0.037424418
0.042516543
0.080325777
0.050997807
0.0023587846
0.00097473574
0.001840728
0.0023874206
0.0028373682
0.0031143122
0.0033087975
0.003456932
0.0035644965
0.0036408285
0.0036958792
0.0037360201
0.0037648546
0.0037848633
0.0037980627
0.0038058498
0.0038092322
0.00380899
0.003805805
0.0038001221
0.0037922284
0.0037824442
0.0037709937
0.0037580668
0.0037437859
0.00372825
0.0037115462
0.0036937356
0.0036748777
0.003655015
0.0036341508
0.0036122878
0.0035894307
0.0035655727
0.0035406969
0.0035147842
0.0034878086
0.0034597129
0.0034304312
0.0033998964
0.0033680363
0.0033347779
0.0033000373
0.0032637303
0.0032257721
0.0031860582
0.0031444673
0.0031008771
0.0030551733
0.003007231
0.0029569653
0.0029042976
0.0028492291
0.0027917654
0.0027318563
0.0026696491
0.0026052983
0.002539049
0.0024715831
0.0024039733
0.0023378434
0.00227546
0.0022205683
0.0021780724
0.002146135
0.0021424949
0.0021722196
0.0022314363
0.0023367699
0.002493222
0.0027039441
0.0029664096
0.003270507
0.0036151478
0.0039643766
0.0042626264
0.0044571186
0.0045700069
0.0045695779
0.004468914
0.0043514749
0.0042118565
0.0040612955
0.0039074799
0.0037505958
0.0035933641
0.0034345513
0.0032701013
0.0031045744
0.0029393759
0.00277534
0.0026150236
0.0024575443
0.0023010758
0.0021487272
0.0020005831
0.0018550022
0.0017121898
0.0015737155
0.0014397818
0.0013089365
0.0011816123
0.0010585753
0.0009419671
0.00083155967
0.00072983261
0.00063309763
0.00057057982
0.00048331043
0.00066844897
-0.00051368161
0.0120243
0.012128746
0.012349411
0.012630725
0.012971578
0.013372262
0.013830886
0.014346653
0.014920908
0.015556903
0.016259667
0.017036363
0.017896887
0.018855255
0.019930431
0.021151944
0.022556293
0.024220783
0.026203415
0.028804276
0.031925294
0.037424415
0.042516595
0.080315174
0.051024191
0.0023698382
0.00097814717
0.001842367
0.0023884263
0.0028380756
0.003114847
0.0033092225
0.0034572801
0.0035647881
0.0036410773
0.0036960948
0.003736209
0.0037650217
0.0037850123
0.0037981967
0.0038059708
0.0038093422
0.0038090904
0.0038058971
0.0038002069
0.0037923066
0.0037825166
0.003771061
0.0037581295
0.0037438443
0.0037283047
0.0037115975
0.0036937836
0.0036749228
0.0036550575
0.0036341908
0.0036123256
0.0035894664
0.0035656064
0.0035407288
0.0035148145
0.0034878373
0.0034597401
0.003430457
0.0033999209
0.0033680596
0.0033348
0.0033000584
0.0032637503
0.0032257911
0.0031860762
0.0031444844
0.0031008934
0.0030551887
0.0030072456
0.0029569792
0.0029043107
0.0028492415
0.002791777
0.0027318672
0.0026696592
0.0026053077
0.0025390576
0.0024715911
0.0024039804
0.0023378497
0.0022754655
0.0022205728
0.0021780759
0.0021461372
0.0021424957
0.0021722192
0.0022314343
0.0023367662
0.0024932165
0.0027039368
0.0029664005
0.0032704965
0.003615136
0.0039643642
0.0042626145
0.0044571079
0.0045699985
0.0045695717
0.0044689093
0.0043514718
0.0042118543
0.004061294
0.0039074789
0.0037505952
0.0035933639
0.0034345513
0.0032701015
0.0031045747
0.0029393764
0.0027753407
0.0026150243
0.0024575451
0.0023010767
0.0021487282
0.0020005841
0.0018550032
0.0017121908
0.0015737164
0.0014397828
0.0013089374
0.0011816133
0.0010585762
0.00094196802
0.00083156058
0.00072983352
0.00063309853
0.00057058081
0.00048331143
0.00066845007
-0.00051368096
0.0120243
0.012128746
0.012349411
0.012630725
0.012971579
0.013372262
0.013830887
0.014346653
0.014920909
0.015556904
0.016259668
0.017036365
0.017896888
0.018855257
0.019930433
0.021151947
0.022556296
0.024220787
0.026203419
0.02880428
0.0319253
0.037424408
0.042516659
0.080302852
0.051052664
0.0023820744
0.00098193259
0.0018441862
0.002389543
0.0028388611
0.0031154408
0.0033096943
0.0034576665
0.0035651118
0.0036413535
0.003696334
0.0037364187
0.0037652072
0.0037851778
0.0037983453
0.0038061052
0.0038094644
0.0038092019
0.0038059993
0.003800301
0.0037923935
0.0037825971
0.0037711357
0.003758199
0.0037439092
0.0037283654
0.0037116543
0.003693837
0.003674973
0.0036551047
0.0036342353
0.0036123675
0.003589506
0.0035656439
0.0035407643
0.0035148481
0.0034878692
0.0034597703
0.0034304856
0.0033999481
0.0033680854
0.0033348246
0.0033000817
0.0032637725
0.0032258122
0.0031860962
0.0031445034
0.0031009114
0.0030552059
0.0030072619
0.0029569946
0.0029043253
0.0028492552
0.0027917899
0.0027318793
0.0026696705
0.0026053182
0.0025390673
0.0024715999
0.0024039884
0.0023378568
0.0022754715
0.0022205778
0.0021780799
0.0021461397
0.0021424967
0.0021722188
0.0022314321
0.0023367621
0.0024932104
0.0027039287
0.0029663905
0.0032704849
0.003615123
0.0039643505
0.0042626013
0.004457096
0.0045699892
0.0045695648
0.0044689042
0.0043514683
0.0042118519
0.0040612923
0.0039074778
0.0037505945
0.0035933635
0.0034345512
0.0032701017
0.0031045751
0.002939377
0.0027753414
0.0026150252
0.002457546
0.0023010777
0.0021487292
0.0020005852
0.0018550043
0.0017121919
0.0015737175
0.0014397838
0.0013089385
0.0011816143
0.0010585773
0.00094196905
0.00083156159
0.00072983454
0.00063309954
0.00057058192
0.00048331253
0.00066845129
-0.00051368024
0.0120243
0.012128746
0.012349411
0.012630726
0.012971579
0.013372263
0.013830887
0.014346654
0.01492091
0.015556905
0.016259669
0.017036366
0.01789689
0.01885526
0.019930435
0.02115195
0.022556299
0.024220791
0.026203424
0.028804284
0.031925306
0.037424396
0.042516735
0.080288454
0.051083386
0.0023956701
0.00098614787
0.0018462128
0.0023907873
0.0028397362
0.0031161024
0.0033102201
0.0034580971
0.0035654724
0.0036416613
0.0036966006
0.0037366523
0.0037654139
0.0037853622
0.003798511
0.0038062549
0.0038096004
0.0038093262
0.0038061132
0.0038004058
0.0037924903
0.0037826868
0.003771219
0.0037582766
0.0037439816
0.003728433
0.0037117177
0.0036938964
0.0036750288
0.0036551573
0.0036342849
0.0036124143
0.0035895502
0.0035656857
0.0035408038
0.0035148855
0.0034879047
0.003459804
0.0034305176
0.0033999785
0.0033681142
0.003334852
0.0033001077
0.0032637972
0.0032258357
0.0031861186
0.0031445246
0.0031009316
0.003055225
0.00300728
0.0029570117
0.0029043415
0.0028492705
0.0027918043
0.0027318927
0.0026696831
0.0026053298
0.002539078
0.0024716097
0.0024039972
0.0023378646
0.0022754783
0.0022205834
0.0021780842
0.0021461424
0.0021424978
0.0021722183
0.0022314296
0.0023367576
0.0024932037
0.0027039196
0.0029663793
0.0032704719
0.0036151085
0.0039643352
0.0042625865
0.0044570828
0.0045699788
0.0045695572
0.0044688985
0.0043514644
0.0042118492
0.0040612905
0.0039074766
0.0037505938
0.0035933632
0.0034345512
0.0032701019
0.0031045755
0.0029393776
0.0027753422
0.0026150261
0.0024575471
0.0023010788
0.0021487304
0.0020005864
0.0018550055
0.0017121931
0.0015737187
0.001439785
0.0013089397
0.0011816155
0.0010585784
0.00094197019
0.00083156272
0.00072983567
0.00063310066
0.00057058314
0.00048331377
0.00066845264
-0.00051367943
0.0120243
0.012128746
0.012349411
0.012630726
0.012971579
0.013372263
0.013830888
0.014346655
0.014920911
0.015556906
0.01625967
0.017036368
0.017896892
0.018855262
0.019930438
0.021151953
0.022556303
0.024220795
0.026203428
0.028804287
0.031925312
0.037424378
0.042516827
0.080271552
0.051116483
0.0024108259
0.00099085516
0.0018484768
0.0023921779
0.0028407143
0.0031168417
0.0033108076
0.0034585783
0.0035658754
0.0036420052
0.0036968985
0.0037369133
0.0037656449
0.0037855682
0.0037986961
0.0038064222
0.0038097525
0.003809465
0.0038062405
0.0038005229
0.0037925984
0.0037827869
0.003771312
0.0037583632
0.0037440624
0.0037285086
0.0037117884
0.0036939629
0.0036750913
0.003655216
0.0036343402
0.0036124665
0.0035895996
0.0035657324
0.003540848
0.0035149273
0.0034879443
0.0034598416
0.0034305533
0.0034000123
0.0033681464
0.0033348825
0.0033001368
0.0032638248
0.0032258619
0.0031861435
0.0031445483
0.0031009541
0.0030552463
0.0030073002
0.0029570309
0.0029043596
0.0028492875
0.0027918204
0.0027319078
0.0026696971
0.0026053429
0.00253909
0.0024716207
0.0024040071
0.0023378734
0.0022754858
0.0022205895
0.0021780891
0.0021461455
0.002142499
0.0021722178
0.0022314269
0.0023367525
0.0024931961
0.0027039095
0.0029663669
0.0032704574
0.0036150923
0.0039643181
0.00426257
0.0044570681
0.0045699671
0.0045695486
0.0044688921
0.00435146
0.0042118462
0.0040612884
0.0039074753
0.003750593
0.0035933628
0.0034345511
0.0032701021
0.003104576
0.0029393783
0.0027753431
0.0026150272
0.0024575482
0.0023010801
0.0021487317
0.0020005877
0.0018550068
0.0017121945
0.0015737201
0.0014397864
0.001308941
0.0011816168
0.0010585797
0.00094197147
0.00083156397
0.00072983694
0.00063310192
0.00057058451
0.00048331514
0.00066845416
-0.00051367852
0.0120243
0.012128746
0.012349411
0.012630726
0.01297158
0.013372264
0.013830889
0.014346656
0.014920912
0.015556907
0.016259672
0.01703637
0.017896895
0.018855265
0.019930442
0.021151957
0.022556308
0.0242208
0.026203433
0.02880429
0.031925317
0.03742435
0.042516937
0.080251632
0.05115203
0.0024277693
0.00099612383
0.0018510118
0.0023937355
0.0028418099
0.0031176699
0.0033114657
0.0034591172
0.0035663268
0.0036423904
0.0036972321
0.0037372057
0.0037659035
0.0037857989
0.0037989034
0.0038066095
0.0038099228
0.0038096205
0.003806383
0.0038006541
0.0037927196
0.0037828991
0.0037714162
0.0037584601
0.0037441529
0.0037285932
0.0037118677
0.0036940372
0.0036751612
0.0036552818
0.0036344022
0.0036125251
0.0035896548
0.0035657846
0.0035408975
0.0035149742
0.0034879887
0.0034598837
0.0034305932
0.0034000503
0.0033681825
0.0033349168
0.0033001693
0.0032638558
0.0032258913
0.0031861714
0.0031445749
0.0031009793
0.0030552702
0.0030073229
0.0029570523
0.0029043799
0.0028493067
0.0027918383
0.0027319247
0.0026697128
0.0026053575
0.0025391035
0.0024716329
0.0024040182
0.0023378832
0.0022754943
0.0022205965
0.0021780946
0.0021461489
0.0021425004
0.0021722172
0.0022314238
0.0023367469
0.0024931876
0.0027038981
0.0029663529
0.0032704411
0.0036150742
0.003964299
0.0042625515
0.0044570516
0.0045699541
0.004569539
0.0044688849
0.0043514551
0.0042118428
0.0040612861
0.0039074738
0.0037505921
0.0035933623
0.0034345511
0.0032701024
0.0031045766
0.0029393791
0.0027753441
0.0026150283
0.0024575495
0.0023010815
0.0021487332
0.0020005892
0.0018550083
0.001712196
0.0015737216
0.0014397879
0.0013089425
0.0011816183
0.0010585812
0.0009419729
0.00083156538
0.00072983836
0.00063310332
0.00057058605
0.00048331669
0.00066845586
-0.00051367751
0.0120243
0.012128746
0.012349412
0.012630727
0.01297158
0.013372264
0.013830889
0.014346657
0.014920913
0.015556909
0.016259674
0.017036372
0.017896897
0.018855268
0.019930445
0.021151961
0.022556313
0.024220805
0.026203438
0.028804291
0.031925322
0.037424311
0.042517069
0.080228073
0.051190033
0.0024467614
0.0010020315
0.0018538556
0.0023954835
0.0028430394
0.0031185994
0.0033122041
0.003459722
0.0035668333
0.0036428226
0.0036976065
0.0037375337
0.0037661937
0.0037860578
0.0037991359
0.0038068198
0.0038101138
0.0038097949
0.0038065429
0.0038008013
0.0037928555
0.003783025
0.0037715331
0.003758569
0.0037442544
0.0037286881
0.0037119567
0.0036941207
0.0036752396
0.0036553557
0.0036344718
0.0036125907
0.0035897168
0.0035658433
0.0035409529
0.0035150267
0.0034880386
0.003459931
0.0034306381
0.0034000929
0.0033682229
0.0033349552
0.0033002059
0.0032638905
0.0032259243
0.0031862028
0.0031446047
0.0031010075
0.0030552971
0.0030073483
0.0029570764
0.0029044026
0.0028493281
0.0027918585
0.0027319436
0.0026697305
0.0026053738
0.0025391186
0.0024716467
0.0024040306
0.0023378942
0.0022755038
0.0022206043
0.0021781007
0.0021461528
0.0021425019
0.0021722165
0.0022314203
0.0023367405
0.0024931781
0.0027038854
0.0029663372
0.0032704229
0.0036150538
0.0039642775
0.0042625308
0.0044570331
0.0045699395
0.0045695283
0.0044688769
0.0043514496
0.004211839
0.0040612836
0.0039074721
0.0037505911
0.0035933618
0.003434551
0.0032701026
0.0031045772
0.00293938
0.0027753452
0.0026150296
0.002457551
0.002301083
0.0021487348
0.0020005909
0.00185501
0.0017121977
0.0015737233
0.0014397896
0.0013089441
0.0011816199
0.0010585828
0.00094197451
0.00083156697
0.00072983994
0.0006331049
0.00057058777
0.00048331842
0.00066845776
-0.00051367637
0.0120243
0.012128746
0.012349412
0.012630727
0.012971581
0.013372265
0.01383089
0.014346658
0.014920915
0.015556911
0.016259676
0.017036374
0.0178969
0.018855271
0.01993045
0.021151966
0.022556318
0.024220811
0.026203442
0.028804291
0.031925325
0.037424254
0.042517228
0.080200129
0.051230405
0.0024681044
0.0010086653
0.0018570505
0.0023974481
0.0028444212
0.003119644
0.003313034
0.0034604016
0.0035674025
0.0036433083
0.0036980272
0.0037379023
0.0037665198
0.0037863487
0.0037993973
0.003807056
0.0038103285
0.0038099909
0.0038067226
0.0038009666
0.0037930082
0.0037831664
0.0037716644
0.0037586912
0.0037443685
0.0037287948
0.0037120566
0.0036942145
0.0036753278
0.0036554386
0.00363455
0.0036126645
0.0035897865
0.0035659091
0.0035410153
0.0035150858
0.0034880945
0.0034599841
0.0034306885
0.0034001407
0.0033682684
0.0033349984
0.0033002469
0.0032639295
0.0032259614
0.003186238
0.0031446381
0.0031010393
0.0030553272
0.0030073769
0.0029571034
0.0029044282
0.0028493522
0.0027918812
0.0027319648
0.0026697503
0.0026053922
0.0025391355
0.0024716622
0.0024040445
0.0023379065
0.0022755145
0.002220613
0.0021781076
0.0021461571
0.0021425037
0.0021722158
0.0022314164
0.0023367333
0.0024931674
0.0027038711
0.0029663196
0.0032704024
0.003615031
0.0039642534
0.0042625076
0.0044570123
0.0045699232
0.0045695162
0.0044688679
0.0043514435