/*--------------------------------*- C++ -*----------------------------------*\
| =========                 |                                                 |
| \\      /  F ield         | OpenFOAM: The Open Source CFD Toolbox           |
|  \\    /   O peration     | Version:  2206                                  |
|   \\  /    A nd           | Website:  www.openfoam.com                      |
|    \\/     M anipulation  |                                                 |
\*---------------------------------------------------------------------------*/
FoamFile
{
    version     2.0;
    format      ascii;
    arch        "LSB;label=32;scalar=64";
    class       surfaceScalarField;
    location    "2000";
    object      phi;
}
// * * * * * * * * * * * * * * * * * * * * * * * * * * * * * * * * * * * * * //

dimensions      [0 3 -1 0 0 0 0];

oriented        oriented;

internalField   nonuniform List<scalar> 
25880
(
2.0045762e-06
7.7962595e-11
2.0043639e-06
2.1228825e-10
2.0040676e-06
2.9626823e-10
2.0037234e-06
3.4423814e-10
2.0033289e-06
3.9444963e-10
2.0028792e-06
4.4971927e-10
2.0023696e-06
5.0965214e-10
2.0017936e-06
5.7599699e-10
2.0011424e-06
6.5113816e-10
2.0004049e-06
7.3751886e-10
1.999567e-06
8.3795118e-10
1.9986105e-06
9.5649724e-10
1.9975122e-06
1.0982719e-09
1.9962391e-06
1.2730554e-09
1.9947501e-06
1.4890705e-09
1.9929704e-06
1.7797171e-09
1.9908311e-06
2.1392802e-09
1.9880907e-06
2.7403888e-09
1.9847258e-06
3.3649091e-09
1.9796142e-06
5.1115938e-09
1.9733577e-06
6.2564452e-09
1.9584418e-06
1.4915961e-08
1.947159e-06
1.1282796e-08
9.7703446e-07
9.7012452e-07
4.3131578e-09
9.727213e-07
2.0909016e-09
2.2222562e-09
1.5843525e-09
5.0654909e-10
1.3395018e-09
2.448507e-10
1.1881806e-09
1.5132126e-10
1.0807911e-09
1.0738952e-10
9.988419e-10
8.1949161e-11
9.3306846e-10
6.5773443e-11
8.7866144e-10
5.4407018e-11
8.3262702e-10
4.603442e-11
7.9292651e-10
3.9700517e-11
7.5816761e-10
3.4758894e-11
7.2737226e-10
3.0795348e-11
6.9981805e-10
2.755422e-11
6.7495306e-10
2.4864989e-11
6.5234951e-10
2.2603542e-11
6.316718e-10
2.0677714e-11
6.1264291e-10
1.9028886e-11
5.9504823e-10
1.7594688e-11
5.7871082e-10
1.6337404e-11
5.634732e-10
1.5237627e-11
5.4921147e-10
1.426173e-11
5.3581856e-10
1.3392911e-11
5.2320333e-10
1.2615222e-11
5.1128765e-10
1.1915681e-11
5.0000382e-10
1.1283832e-11
4.8929278e-10
1.0711042e-11
4.7910291e-10
1.0189872e-11
4.6938884e-10
9.71407e-12
4.6011067e-10
9.2781644e-12
4.5123324e-10
8.8774321e-12
4.4272512e-10
8.5081172e-12
4.3455812e-10
8.1670052e-12
4.2670701e-10
7.8511093e-12
4.1914918e-10
7.5578258e-12
4.1186426e-10
7.2849262e-12
4.0483395e-10
7.0303026e-12
3.9804196e-10
6.7919978e-12
3.9147347e-10
6.5684859e-12
3.851149e-10
6.3585701e-12
3.7895388e-10
6.1610238e-12
3.7297932e-10
5.9745525e-12
3.6718134e-10
5.7979836e-12
3.6155102e-10
5.6303239e-12
3.5608045e-10
5.4705673e-12
3.5076288e-10
5.3175714e-12
3.455926e-10
5.1702737e-12
3.4056481e-10
5.0277904e-12
3.3567562e-10
4.8891943e-12
3.3092207e-10
4.7535452e-12
3.2630216e-10
4.6199097e-12
3.2181497e-10
4.4871905e-12
3.1746108e-10
4.3538918e-12
3.1324357e-10
4.2175129e-12
3.0916782e-10
4.0757495e-12
3.0524075e-10
3.9270685e-12
3.0147128e-10
3.769467e-12
2.9787049e-10
3.6007969e-12
2.9445199e-10
3.4184965e-12
2.9123389e-10
3.2181041e-12
2.8824088e-10
2.9930054e-12
2.8550401e-10
2.7368689e-12
2.8306295e-10
2.4410635e-12
2.8099231e-10
2.0706341e-12
2.792974e-10
1.6949138e-12
2.781915e-10
1.1058979e-12
2.7773243e-10
4.5906675e-13
2.7792178e-10
-1.8934452e-13
2.7900885e-10
-1.0870727e-12
2.8109863e-10
-2.0897781e-12
2.8435195e-10
-3.253329e-12
2.8888772e-10
-4.5357679e-12
2.9472061e-10
-5.8328881e-12
3.0180238e-10
-7.0817685e-12
3.100678e-10
-8.2654223e-12
3.1919803e-10
-9.1302363e-12
3.2842719e-10
-9.2291552e-12
3.3708851e-10
-8.6613198e-12
3.442448e-10
-7.1562892e-12
3.4978503e-10
-5.5402299e-12
3.54147e-10
-4.3619618e-12
3.5727946e-10
-3.1324647e-12
3.5957159e-10
-2.2921287e-12
3.6121819e-10
-1.6465993e-12
3.6235806e-10
-1.1398736e-12
3.6308635e-10
-7.2828522e-13
3.6346766e-10
-3.8131342e-13
3.6353258e-10
-6.4911376e-14
3.6328198e-10
2.5059314e-13
3.6273835e-10
5.4363325e-13
3.6194389e-10
7.9445875e-13
3.6093269e-10
1.0111998e-12
3.5975112e-10
1.1815671e-12
3.5844207e-10
1.3090521e-12
3.5703548e-10
1.4065881e-12
3.5556282e-10
1.4726636e-12
3.5405425e-10
1.50857e-12
3.5252693e-10
1.527321e-12
3.509909e-10
1.5360314e-12
3.4945887e-10
1.5320257e-12
3.4794271e-10
1.5161656e-12
3.464466e-10
1.4961109e-12
3.4496902e-10
1.4775729e-12
3.4350904e-10
1.4599793e-12
3.4206713e-10
1.4419127e-12
3.4064632e-10
1.4208123e-12
3.3921734e-10
1.4289802e-12
3.3780108e-10
1.4162539e-12
3.3624979e-10
1.5512994e-12
3.3469068e-10
1.5591096e-12
3.329824e-10
1.7082793e-12
1.0235674e-12
2.0344489e-06
1.5712831e-10
2.0342333e-06
4.2788738e-10
2.0339324e-06
5.9719668e-10
2.0335827e-06
6.9390851e-10
2.033182e-06
7.9512565e-10
2.0327252e-06
9.0653397e-10
2.0322075e-06
1.0273393e-09
2.0316225e-06
1.161066e-09
2.0309611e-06
1.3125195e-09
2.030212e-06
1.4866239e-09
2.0293609e-06
1.6890465e-09
2.0283894e-06
1.9279738e-09
2.027274e-06
2.2137134e-09
2.025981e-06
2.5659758e-09
2.0244688e-06
3.0013306e-09
2.0226614e-06
3.5870893e-09
2.020489e-06
4.3117281e-09
2.0177062e-06
5.5231443e-09
2.0142894e-06
6.7817262e-09
2.0090993e-06
1.0301694e-08
2.0027469e-06
1.2608847e-08
1.9876026e-06
3.0060212e-08
1.9761418e-06
2.2743664e-08
9.9784704e-07
1.9484192e-06
1.3160388e-08
1.957408e-06
6.3975789e-09
8.9850657e-09
4.8479267e-09
2.0562013e-09
4.0987249e-09
9.9405248e-10
3.6356885e-09
6.143577e-10
3.3070748e-09
4.3600323e-10
3.0563123e-09
3.3271164e-10
2.8550501e-09
2.6703568e-10
2.6885686e-09
2.2088847e-10
2.5477071e-09
1.8689594e-10
2.4262275e-09
1.6118013e-10
2.3198693e-09
1.4111713e-10
2.2256393e-09
1.2502531e-10
2.141327e-09
1.1186654e-10
2.0652435e-09
1.0094846e-10
1.9960798e-09
9.1767191e-11
1.932809e-09
8.3948569e-11
1.8745835e-09
7.7254418e-11
1.8207464e-09
7.1431725e-11
1.7707564e-09
6.6327398e-11
1.7241316e-09
6.1862408e-11
1.680493e-09
5.7900393e-11
1.6395128e-09
5.4373103e-11
1.6009122e-09
5.1215794e-11
1.5644521e-09
4.8375762e-11
1.5299254e-09
4.5810547e-11
1.4971514e-09
4.3485105e-11
1.465972e-09
4.1369235e-11
1.4362485e-09
3.9437549e-11
1.4078588e-09
3.766784e-11
1.3806953e-09
3.6040931e-11
1.3546619e-09
3.4541572e-11
1.3296722e-09
3.3156712e-11
1.3056491e-09
3.1874225e-11
1.2825234e-09
3.0683543e-11
1.2602327e-09
2.9575615e-11
1.2387211e-09
2.8541886e-11
1.2179387e-09
2.757441e-11
1.1978402e-09
2.6666992e-11
1.178384e-09
2.5814771e-11
1.1595322e-09
2.5012769e-11
1.141251e-09
2.4255729e-11
1.1235101e-09
2.3538891e-11
1.1062822e-09
2.2858223e-11
1.0895432e-09
2.220964e-11
1.0732722e-09
2.1588506e-11
1.057452e-09
2.0990505e-11
1.0420677e-09
2.041205e-11
1.0271076e-09
1.9849376e-11
1.0125624e-09
1.9298666e-11
9.9842621e-10
1.8756128e-11
9.846961e-10
1.8217309e-11
9.7137385e-10
1.7676134e-11
9.5846891e-10
1.7122454e-11
9.4599775e-10
1.6546914e-11
9.3398153e-10
1.5943284e-11
9.2244756e-10
1.5303436e-11
9.1142971e-10
1.4618647e-11
9.009697e-10
1.3878504e-11
8.9112291e-10
1.3064895e-11
8.8196496e-10
1.2150962e-11
8.7359083e-10
1.1110996e-11
8.6612196e-10
9.9099337e-12
8.5978666e-10
8.4059361e-12
8.5460119e-10
6.8803791e-12
8.5121819e-10
4.4889013e-12
8.4981447e-10
1.8627818e-12
8.5039501e-10
-7.698798e-13
8.537226e-10
-4.4146636e-12
8.6011839e-10
-8.4855773e-12
8.7007441e-10
-1.3209345e-11
8.8395426e-10
-1.8415617e-11
9.0180274e-10
-2.3681368e-11
9.234723e-10
-2.8751329e-11
9.4876268e-10
-3.355581e-11
9.7669798e-10
-3.7065535e-11
1.0049351e-09
-3.7466272e-11
1.0314348e-09
-3.5161025e-11
1.0533298e-09
-2.9051262e-11
1.0702806e-09
-2.2491004e-11
1.0836268e-09
-1.7708231e-11
1.0932115e-09
-1.2717177e-11
1.1002251e-09
-9.3057028e-12
1.1052636e-09
-6.6850816e-12
1.1087516e-09
-4.6278769e-12
1.1109802e-09
-2.9569171e-12
1.1121472e-09
-1.5482462e-12
1.1123459e-09
-2.6365937e-13
1.1115793e-09
1.0172457e-12
1.1099159e-09
2.2069849e-12
1.1074851e-09
3.2253154e-12
1.104391e-09
4.1052342e-12
1.1007757e-09
4.7969084e-12
1.0967702e-09
5.3144922e-12
1.0924664e-09
5.71045e-12
1.0879603e-09
5.9787051e-12
1.0833444e-09
6.124496e-12
1.0786711e-09
6.2006216e-12
1.0739712e-09
6.2359703e-12
1.0692835e-09
6.2197074e-12
1.0646443e-09
6.1553316e-12
1.0600665e-09
6.0739106e-12
1.0555455e-09
5.9986382e-12
1.0510782e-09
5.927191e-12
1.0466663e-09
5.8538378e-12
1.042319e-09
5.7681584e-12
1.0379467e-09
5.801296e-12
1.0336134e-09
5.7494732e-12
1.0288669e-09
6.2978673e-12
1.0240981e-09
6.3279281e-12
1.0188633e-09
6.9429864e-12
4.1431337e-12
2.0946395e-06
2.3868338e-10
2.0944174e-06
6.5003387e-10
2.0941073e-06
9.0730947e-10
2.0937469e-06
1.0542709e-09
2.093334e-06
1.2080555e-09
2.0928632e-06
1.3773155e-09
2.0923297e-06
1.5608475e-09
2.0917267e-06
1.764005e-09
2.0910452e-06
1.9940874e-09
2.0902732e-06
2.2585747e-09
2.0893962e-06
2.5660752e-09
2.0883952e-06
2.9290239e-09
2.0872458e-06
3.3630765e-09
2.0859136e-06
3.8981723e-09
2.0843554e-06
4.5594766e-09
2.0824933e-06
5.4492321e-09
2.0802551e-06
6.5499236e-09
2.0773883e-06
8.3899804e-09
2.0738683e-06
1.0301648e-08
2.068522e-06
1.5648028e-08
2.0619786e-06
1.9152268e-08
2.0463794e-06
4.5659437e-08
2.0345692e-06
3.4553826e-08
1.033911e-06
2.9490775e-06
2.2755978e-08
2.9685629e-06
1.1086778e-08
2.0654266e-08
8.4016144e-09
4.7413644e-09
7.1032621e-09
2.2924048e-09
6.300783e-09
1.4168367e-09
5.7312642e-09
1.0055221e-09
5.2966716e-09
7.6730419e-10
4.9478715e-09
6.1583583e-10
4.6593493e-09
5.094106e-10
4.4152286e-09
4.3101668e-10
4.2046987e-09
3.7171005e-10
4.0203755e-09
3.2544028e-10
3.8570716e-09
2.8832925e-10
3.7109555e-09
2.5798259e-10
3.5791006e-09
2.3280343e-10
3.459238e-09
2.1162974e-10
3.3495879e-09
1.9359872e-10
3.2486817e-09
1.7816064e-10
3.1553809e-09
1.6473248e-10
3.068747e-09
1.5296126e-10
2.9879453e-09
1.4266417e-10
2.9123185e-09
1.3352712e-10
2.841299e-09
1.2539262e-10
2.7744035e-09
1.1811136e-10
2.7112174e-09
1.1156179e-10
2.651382e-09
1.0564601e-10
2.5945839e-09
1.0028318e-10
2.5405495e-09
9.5403654e-11
2.4890381e-09
9.0948889e-11
2.4398383e-09
8.6867668e-11
2.3927635e-09
8.3115772e-11
2.347647e-09
7.9658025e-11
2.3043394e-09
7.6464329e-11
2.2627069e-09
7.3506724e-11
2.2226296e-09
7.0760833e-11
2.1839994e-09
6.8205789e-11
2.1467195e-09
6.5821857e-11
2.1107032e-09
6.3590719e-11
2.0758721e-09
6.1498084e-11
2.0421541e-09
5.9532742e-11
2.0094837e-09
5.7683211e-11
1.977802e-09
5.593737e-11
1.9470567e-09
5.4284242e-11
1.9172004e-09
5.2714526e-11
1.8881912e-09
5.1218804e-11
1.8599933e-09
4.9786382e-11
1.8325765e-09
4.8407312e-11
1.8059152e-09
4.7073317e-11
1.7799889e-09
4.5775712e-11
1.7547819e-09
4.4505699e-11
1.7302835e-09
4.3254529e-11
1.7064889e-09
4.2011932e-11
1.6834011e-09
4.0763896e-11
1.6610365e-09
3.9487021e-11
1.6394237e-09
3.8159737e-11
1.6185993e-09
3.6767659e-11
1.5986107e-09
3.5292059e-11
1.5795165e-09
3.3712806e-11
1.5613892e-09
3.200587e-11
1.5443246e-09
3.0129478e-11
1.5284539e-09
2.8021694e-11
1.5139417e-09
2.5623207e-11
1.5009985e-09
2.2853128e-11
1.4900199e-09
1.9384523e-11
1.4810345e-09
1.5865802e-11
1.4751726e-09
1.0350713e-11
1.4727411e-09
4.2943534e-12
1.4737488e-09
-1.7776511e-12
1.4795173e-09
-1.0183124e-11
1.4906032e-09
-1.9571461e-11
1.5078589e-09
-3.0465052e-11
1.5319144e-09
-4.2471096e-11
1.5628471e-09
-5.4614131e-11
1.6004014e-09
-6.6305611e-11
1.6442294e-09
-7.7383795e-11
1.6926394e-09
-8.5475541e-11
1.7415715e-09
-8.6398359e-11
1.7874924e-09
-8.1081884e-11
1.8254342e-09
-6.6993147e-11
1.8548087e-09
-5.1865514e-11
1.8779371e-09
-4.0836565e-11
1.8945476e-09
-2.9327675e-11
1.9067024e-09
-2.1460512e-11
1.9154345e-09
-1.5417163e-11
1.9214796e-09
-1.0672976e-11
1.9253422e-09
-6.819515e-12
1.9273648e-09
-3.5708642e-12
1.9277095e-09
-6.0833241e-13
1.926381e-09
2.3456582e-12
1.9234986e-09
5.0894536e-12
1.919286e-09
7.437918e-12
1.9139241e-09
9.4671295e-12
1.9076587e-09
1.1062256e-11
1.9007173e-09
1.2255908e-11
1.8932587e-09
1.3169015e-11
1.8854498e-09
1.3787652e-11
1.8774504e-09
1.4123897e-11
1.8693516e-09
1.4299456e-11
1.8612066e-09
1.4380954e-11
1.8530828e-09
1.434345e-11
1.8450432e-09
1.4195012e-11
1.8371098e-09
1.4007241e-11
1.8292748e-09
1.383363e-11
1.8215332e-09
1.366883e-11
1.8138874e-09
1.3499651e-11
1.8063535e-09
1.3302043e-11
1.7987764e-09
1.3378381e-11
1.7912672e-09
1.3258708e-11
1.7830418e-09
1.452327e-11
1.7747789e-09
1.45908e-11
1.7657019e-09
1.6019999e-11
9.5410227e-12
2.1860451e-06
3.2385228e-10
2.185813e-06
8.8207115e-10
2.185489e-06
1.2312832e-09
2.1851125e-06
1.430764e-09
2.1846811e-06
1.6394716e-09
2.1841893e-06
1.8691686e-09
2.1836319e-06
2.1182269e-09
2.183002e-06
2.3939096e-09
2.18229e-06
2.7061208e-09
2.1814835e-06
3.0650095e-09
2.1805673e-06
3.4822552e-09
2.1795216e-06
3.9747287e-09
2.1783211e-06
4.5636699e-09
2.1769295e-06
5.2896984e-09
2.175302e-06
6.1869525e-09
2.1733571e-06
7.3941495e-09
2.1710195e-06
8.8875086e-09
2.1680256e-06
1.138396e-08
2.1643497e-06
1.397752e-08
2.1587669e-06
2.1230784e-08
2.1519344e-06
2.5984814e-08
2.1356464e-06
6.1947387e-08
2.1233091e-06
4.689121e-08
1.0860637e-06
3.9863228e-06
3.3668044e-08
4.0209586e-06
1.6439006e-08
3.7883303e-08
1.245803e-08
8.7223404e-09
1.0532891e-08
4.2175441e-09
9.3429276e-09
2.6068004e-09
8.4984068e-09
1.8500428e-09
7.8539663e-09
1.4117447e-09
7.3367505e-09
1.1330516e-09
6.9089188e-09
9.3724228e-10
6.546928e-09
7.9300749e-10
6.2347482e-09
6.838899e-10
5.9614295e-09
5.9875891e-10
5.7192793e-09
5.3047949e-10
5.502616e-09
4.746459e-10
5.3070996e-09
4.2831987e-10
5.1293659e-09
3.8936341e-10
4.9667753e-09
3.5618934e-10
4.8171507e-09
3.2778522e-10
4.6788037e-09
3.0307947e-10
4.5503422e-09
2.8142277e-10
4.4305288e-09
2.624776e-10
4.318389e-09
2.4566692e-10
4.2130808e-09
2.3070077e-10
4.1138877e-09
2.1730447e-10
4.0201951e-09
2.0525437e-10
3.9314708e-09
1.9437033e-10
3.8472503e-09
1.8450363e-10
3.7671278e-09
1.7552614e-10
3.6907466e-09
1.6733013e-10
3.6177929e-09
1.5982139e-10
3.5479901e-09
1.5291855e-10
3.4810912e-09
1.4655689e-10
3.4168745e-09
1.4068105e-10
3.3551417e-09
1.3523957e-10
3.2957149e-09
1.3018761e-10
3.2384339e-09
1.2548678e-10
3.183155e-09
1.2110077e-10
3.1297498e-09
1.1699587e-10
3.0781021e-09
1.131458e-10
3.0281049e-09
1.0952993e-10
2.979661e-09
1.0612712e-10
2.9326833e-09
1.0291509e-10
2.8870939e-09
9.9873636e-11
2.8428228e-09
9.6985646e-11
2.7998078e-09
9.4233789e-11
2.7579958e-09
9.1598396e-11
2.7173419e-09
8.9061164e-11
2.6778084e-09
8.6606861e-11
2.6393646e-09
8.421951e-11
2.6019874e-09
8.188292e-11
2.5656609e-09
7.9580993e-11
2.530378e-09
7.7294832e-11
2.4961432e-09
7.4998657e-11
2.4629808e-09
7.2649423e-11
2.4309331e-09
7.0207446e-11
2.4000545e-09
6.7646247e-11
2.3704152e-09
6.4931373e-11
2.3421023e-09
6.202578e-11
2.3152229e-09
5.8885224e-11
2.2899195e-09
5.5432847e-11
2.2663865e-09
5.1554689e-11
2.2448682e-09
4.7141599e-11
2.2256766e-09
4.2044705e-11
2.2093982e-09
3.5662862e-11
2.1960763e-09
2.9187773e-11
2.1873856e-09
1.9041417e-11
2.1837813e-09
7.8986067e-12
2.1852781e-09
-3.2744172e-12
2.1938338e-09
-1.8738839e-11
2.2102745e-09
-3.6012137e-11
2.2358636e-09
-5.6054206e-11
2.2715351e-09
-7.8142547e-11
2.3174036e-09
-1.0048269e-10
2.3730898e-09
-1.2199183e-10
2.438077e-09
-1.4237095e-10
2.5098562e-09
-1.5725469e-10
2.5824083e-09
-1.5895049e-10
2.6504948e-09
-1.4916837e-10
2.706752e-09
-1.232504e-10
2.7503071e-09
-9.5420545e-11
2.7846005e-09
-7.5129985e-11
2.8092309e-09
-5.3958099e-11
2.8272545e-09
-3.9484132e-11
2.8402031e-09
-2.8365711e-11
2.8491674e-09
-1.9637277e-11
2.8548954e-09
-1.254759e-11
2.8578951e-09
-6.5705463e-12
2.8584066e-09
-1.1198531e-12
2.8564372e-09
4.3150576e-12
2.8521634e-09
9.3633062e-12
2.8459172e-09
1.3684158e-11
2.8379667e-09
1.7417553e-11
2.8286766e-09
2.0352356e-11
2.818384e-09
2.2548513e-11
2.8073246e-09
2.4228433e-11
2.7957456e-09
2.5366622e-11
2.7838842e-09
2.5985308e-11
2.7718754e-09
2.6308312e-11
2.7597981e-09
2.6458222e-11
2.7477523e-09
2.6389226e-11
2.7358312e-09
2.6116163e-11
2.7240677e-09
2.5770698e-11
2.7124501e-09
2.5451247e-11
2.7009709e-09
2.5147989e-11
2.6896339e-09
2.4836699e-11
2.6784628e-09
2.4473113e-11
2.6672278e-09
2.4613366e-11
2.6560935e-09
2.4393045e-11
2.6438978e-09
2.6718996e-11
2.6316471e-09
2.6841483e-11
2.6181846e-09
2.9482472e-11
1.75401e-11
2.3100276e-06
4.1391666e-10
2.3097822e-06
1.127502e-09
2.3094394e-06
1.5740212e-09
2.3090411e-06
1.8290915e-09
2.3085847e-06
2.0959104e-09
2.3080643e-06
2.3895446e-09
2.3074746e-06
2.7079194e-09
2.3068082e-06
3.0603173e-09
2.3060549e-06
3.4593968e-09
2.3052018e-06
3.9181292e-09
2.3042326e-06
4.4514415e-09
2.3031265e-06
5.0808943e-09
2.3018565e-06
5.8336314e-09
2.3003846e-06
6.7615644e-09
2.2986633e-06
7.9083165e-09
2.2966062e-06
9.4511706e-09
2.294134e-06
1.135971e-08
2.2909678e-06
1.4550165e-08
2.2870807e-06
1.7864655e-08
2.2811776e-06
2.7133864e-08
2.2739533e-06
3.3209118e-08
2.2567322e-06
7.9168547e-08
2.2436811e-06
5.9942307e-08
1.1554192e-06
5.0745847e-06
4.6538557e-08
5.1298393e-06
2.2774414e-08
6.1647446e-08
1.7259883e-08
1.4236872e-08
1.4592832e-08
6.8845951e-09
1.2944151e-08
4.2554807e-09
1.1774073e-08
3.0201208e-09
1.0881208e-08
2.3046102e-09
1.016462e-08
1.8496393e-09
9.5718739e-09
1.5299888e-09
9.0703488e-09
1.2945326e-09
8.6378368e-09
1.1164018e-09
8.2591669e-09
9.7742878e-10
7.9236803e-09
8.6596617e-10
7.623505e-09
7.7482118e-10
7.352628e-09
6.9919687e-10
7.1063883e-09
6.3560306e-10
6.8811285e-09
5.8144918e-10
6.6738329e-09
5.3508078e-10
6.482162e-09
4.9475041e-10
6.3041864e-09
4.5939833e-10
6.1381925e-09
4.2847152e-10
5.98283e-09
4.0102945e-10
5.8369323e-09
3.7659845e-10
5.6995067e-09
3.547301e-10
5.5697017e-09
3.3505935e-10
5.4467799e-09
3.1729209e-10
5.330098e-09
3.0118556e-10
5.2190936e-09
2.8653058e-10
5.1132724e-09
2.7315132e-10
5.0121998e-09
2.6089395e-10
4.9154927e-09
2.4962569e-10
4.8228087e-09
2.3924087e-10
4.7338407e-09
2.2964908e-10
4.6483139e-09
2.2076637e-10
4.565982e-09
2.1251951e-10
4.4866229e-09
2.0484583e-10
4.4100376e-09
1.9768607e-10
4.3360483e-09
1.9098522e-10
4.2644938e-09
1.8470035e-10
4.1952259e-09
1.7879778e-10
4.12811e-09
1.7324304e-10
4.0630254e-09
1.6799971e-10
3.9998642e-09
1.6303483e-10
3.9385294e-09
1.5832047e-10
3.8789348e-09
1.5382833e-10
3.8210069e-09
1.4952632e-10
3.7646835e-09
1.4538455e-10
3.7099122e-09
1.4137815e-10
3.6566507e-09
1.3748104e-10
3.6048668e-09
1.3366679e-10
3.5545387e-09
1.2990912e-10
3.5056564e-09
1.2617718e-10
3.4582261e-09
1.2242887e-10
3.4122816e-09
1.1859396e-10
3.3678814e-09
1.1460765e-10
3.3251009e-09
1.104267e-10
3.2840374e-09
1.0599488e-10
3.2448115e-09
1.012517e-10
3.2075718e-09
9.6124891e-11
3.1725157e-09
9.048897e-11
3.1399125e-09
8.415791e-11
3.1101006e-09
7.695347e-11
3.0835128e-09
6.8632555e-11
3.0609611e-09
5.8214515e-11
3.0425068e-09
4.7642138e-11
3.0304678e-09
3.1080326e-11
3.0254759e-09
1.2890568e-11
3.0275529e-09
-5.3514081e-12
3.0394091e-09
-3.0595062e-11
3.0621898e-09
-5.8792841e-11
3.0976449e-09
-9.1509278e-11
3.1470677e-09
-1.2756537e-10
3.2106172e-09
-1.6403221e-10
3.2877674e-09
-1.9914199e-10
3.377801e-09
-2.3240458e-10
3.4772415e-09
-2.5669519e-10
3.5777515e-09
-2.5946052e-10
3.6720739e-09
-2.4349073e-10
3.7500107e-09
-2.0118722e-10
3.8103516e-09
-1.5576139e-10
3.8578612e-09
-1.2263965e-10
3.8919859e-09
-8.8082718e-11
3.9169572e-09
-6.4455513e-11
3.9348976e-09
-4.6306087e-11
3.9473181e-09
-3.2057747e-11
3.955255e-09
-2.0484452e-11
3.9594117e-09
-1.0727293e-11
3.9601211e-09
-1.8292665e-12
3.9573933e-09
7.0429009e-12
3.9514726e-09
1.5283959e-11
3.9428193e-09
2.2337523e-11
3.9318048e-09
2.8431979e-11
3.9189343e-09
3.3222869e-11
3.9046748e-09
3.6807981e-11
3.889353e-09
3.9550255e-11
3.8733114e-09
4.1408262e-11
3.8568784e-09
4.2418302e-11
3.8402411e-09
4.2945594e-11
3.8235091e-09
4.3190263e-11
3.8068206e-09
4.3077644e-11
3.7903049e-09
4.2631956e-11
3.7740075e-09
4.206802e-11
3.7579123e-09
4.1546481e-11
3.7420089e-09
4.1051357e-11
3.7263025e-09
4.0543147e-11
3.710826e-09
3.99496e-11
3.6952612e-09
4.0178185e-11
3.6798358e-09
3.9818418e-11
3.6629409e-09
4.361392e-11
3.6459702e-09
4.3812188e-11
3.6273168e-09
4.8135892e-11
2.861896e-11
2.4684349e-06
5.1023534e-10
2.4681723e-06
1.3900441e-09
2.4678056e-06
1.940732e-09
2.4673794e-06
2.2553145e-09
2.466891e-06
2.5843182e-09
2.4663342e-06
2.9463611e-09
2.4657032e-06
3.3388948e-09
2.4649901e-06
3.7733612e-09
2.4641842e-06
4.2653641e-09
2.4632714e-06
4.8308932e-09
2.4622345e-06
5.4883479e-09
2.4610511e-06
6.2643038e-09
2.4596925e-06
7.1922163e-09
2.458118e-06
8.3360715e-09
2.4562767e-06
9.7496305e-09
2.4540764e-06
1.1651414e-08
2.4514323e-06
1.4003896e-08
2.448046e-06
1.7936401e-08
2.443889e-06
2.2021698e-08
2.4375767e-06
3.3446181e-08
2.4298518e-06
4.0933925e-08
2.4114385e-06
9.7581902e-08
2.3974757e-06
7.3905103e-08
1.2434038e-06
6.2286565e-06
6.2120921e-08
6.3111222e-06
3.0471934e-08
9.3296433e-08
2.3094485e-08
2.161432e-08
1.9526027e-08
1.0453053e-08
1.7319942e-08
6.4615657e-09
1.5754266e-08
4.5857975e-09
1.4559529e-08
3.4993467e-09
1.3600682e-08
2.8084865e-09
1.2807546e-08
2.3231246e-09
1.2136472e-08
1.9656064e-09
1.1557745e-08
1.6951288e-09
1.1051064e-08
1.4841097e-09
1.0602166e-08
1.3148644e-09
1.0200517e-08
1.1764701e-09
9.8380714e-09
1.0616427e-09
9.508592e-09
9.6508256e-10
9.2071844e-09
8.8285678e-10
8.9298146e-09
8.1245052e-10
8.6733515e-09
7.512135e-10
8.4352129e-09
6.9753698e-10
8.2131066e-09
6.5057784e-10
8.0052255e-09
6.0891047e-10
7.8100089e-09
5.7181506e-10
7.6261283e-09
5.3861074e-10
7.4524444e-09
5.0874322e-10
7.2879706e-09
4.8176593e-10
7.1318459e-09
4.5731026e-10
6.9833179e-09
4.3505858e-10
6.8417253e-09
4.1474392e-10
6.7064865e-09
3.9613272e-10
6.5770888e-09
3.7902336e-10
6.4530743e-09
3.6325539e-10
6.3340319e-09
3.4869154e-10
6.2195939e-09
3.3520433e-10
6.1094308e-09
3.2268258e-10
6.0032455e-09
3.1103113e-10
5.9007716e-09
3.0016001e-10
5.8017711e-09
2.8998569e-10
5.7060285e-09
2.8044299e-10
5.6133455e-09
2.7148077e-10
5.5235418e-09
2.6304666e-10
5.4364561e-09
2.550854e-10
5.351944e-09
2.4754693e-10
5.2698757e-09
2.4038884e-10
5.1901358e-09
2.3356817e-10
5.112626e-09
2.2703618e-10
5.037263e-09
2.207475e-10
4.9639768e-09
2.1466437e-10
4.8927106e-09
2.0874718e-10
4.8234216e-09
2.029558e-10
4.7560805e-09
1.9725031e-10
4.6906738e-09
1.9158387e-10
4.6272101e-09
1.8589257e-10
4.5657343e-09
1.8006976e-10
4.5063248e-09
1.7401708e-10
4.4490827e-09
1.6766884e-10
4.3941379e-09
1.6093968e-10
4.3416519e-09
1.5373771e-10
4.2918237e-09
1.4595313e-10
4.2449172e-09
1.3739539e-10
4.2012931e-09
1.2778204e-10
4.1614042e-09
1.1684233e-10
4.1258298e-09
1.0420705e-10
4.0956559e-09
8.8388357e-11
4.0709666e-09
7.2331493e-11
4.0548599e-09
4.7187007e-11
4.0481821e-09
1.9568295e-11
4.0509657e-09
-8.1349388e-12
4.0668334e-09
-4.6462743e-11
4.0973189e-09
-8.9278423e-11
4.1447629e-09
-1.3895326e-10
4.2108954e-09
-1.9369788e-10
4.295929e-09
-2.490658e-10
4.3991593e-09
-3.0237225e-10
4.5196249e-09
-3.5287018e-10
4.6526733e-09
-3.8974359e-10
4.7871511e-09
-3.9393833e-10
4.9133486e-09
-3.6968828e-10
5.0176261e-09
-3.0546467e-10
5.0983624e-09
-2.3649771e-10
5.1619303e-09
-1.8620753e-10
5.2075918e-09
-1.3374423e-10
5.2410059e-09
-9.7869618e-11
5.2650124e-09
-7.0312624e-11
5.2816331e-09
-4.867842e-11
5.2922545e-09
-3.110582e-11
5.2978177e-09
-1.6290564e-11
5.2987681e-09
-2.7796525e-12
5.2951192e-09
1.0691857e-11
5.2871979e-09
2.3205225e-11
5.27562e-09
3.3915411e-11
5.2608829e-09
4.3169109e-11
5.2436622e-09
5.0443604e-11
5.2245829e-09
5.5887264e-11
5.2040821e-09
6.0050994e-11
5.1826182e-09
6.287217e-11
5.1606306e-09
6.4405934e-11
5.1383696e-09
6.5206591e-11
5.1159818e-09
6.5578023e-11
5.0936524e-09
6.5407053e-11
5.0715539e-09
6.4730436e-11
5.0497478e-09
6.3874184e-11
5.0282121e-09
6.3082198e-11
5.0069331e-09
6.233029e-11
4.9859177e-09
6.1558547e-11
4.96521e-09
6.0657294e-11
4.9443845e-09
6.100375e-11
4.9237455e-09
6.0457427e-11
4.9011416e-09
6.6217827e-11
4.8784364e-09
6.651732e-11
4.8534761e-09
7.3096235e-11
4.3440616e-11
2.6636273e-06
6.1426578e-10
2.6633437e-06
1.6736898e-09
2.6629474e-06
2.3370145e-09
2.6624868e-06
2.7159507e-09
2.6619589e-06
3.1121647e-09
2.6613572e-06
3.5481324e-09
2.6606753e-06
4.020798e-09
2.6599047e-06
4.5439353e-09
2.6590337e-06
5.1363293e-09
2.6580474e-06
5.8172299e-09
2.656927e-06
6.6087861e-09
2.6556483e-06
7.542989e-09
2.6541804e-06
8.6601088e-09
2.6524793e-06
1.003717e-08
2.65049e-06
1.1738877e-08
2.6481132e-06
1.4028281e-08
2.6452569e-06
1.6860166e-08
2.6415993e-06
2.1593956e-08
2.6371095e-06
2.6511545e-08
2.6302926e-06
4.0263055e-08
2.6219507e-06
4.9275793e-08
2.6020677e-06
1.1746495e-07
2.5869805e-06
8.8992248e-08
1.3517992e-06
7.4638378e-06
8.1322974e-08
7.5815984e-06
3.9991937e-08
1.3462747e-07
3.0310948e-08
3.1295309e-08
2.5627685e-08
1.5136316e-08
2.2732142e-08
9.3571082e-09
2.0677145e-08
6.640795e-09
1.9109021e-08
5.06747e-09
1.7850528e-08
4.0669802e-09
1.6809535e-08
3.3641168e-09
1.5928752e-08
2.8463899e-09
1.5169177e-08
2.4547036e-09
1.4504165e-08
2.1491216e-09
1.3914994e-08
1.9040355e-09
1.3387838e-08
1.7036264e-09
1.2912136e-08
1.5373448e-09
1.2479702e-08
1.3975164e-09
1.2084112e-08
1.278447e-09
1.1720072e-08
1.1764904e-09
1.1383472e-08
1.0878136e-09
1.1070921e-08
1.0100874e-09
1.0779413e-08
9.4208582e-10
1.0506576e-08
8.8174803e-10
1.025036e-08
8.2803087e-10
1.0009022e-08
7.7994836e-10
9.7810677e-09
7.3669786e-10
9.565201e-09
6.9763265e-10
9.3602923e-09
6.6221896e-10
9.165354e-09
6.2999683e-10
8.9795183e-09
6.0057965e-10
8.8020218e-09
5.7362924e-10
8.6321915e-09
5.4885363e-10
8.4694264e-09
5.2602046e-10
8.313187e-09
5.0493094e-10
8.1629909e-09
4.8540048e-10
8.0184054e-09
4.6726809e-10
7.8790406e-09
4.5039595e-10
7.7445468e-09
4.346538e-10
7.6146118e-09
4.199207e-10
7.4889525e-09
4.0610222e-10
7.367309e-09
3.9312433e-10
7.2494444e-09
3.8091119e-10
7.1351471e-09
3.6938276e-10
7.0242275e-09
3.5846656e-10
6.9165151e-09
3.4810118e-10
6.8118589e-09
3.3822441e-10
6.7101294e-09
3.2876568e-10
6.6112176e-09
3.196593e-10
6.5150314e-09
3.1085056e-10
6.4214965e-09
3.0228211e-10
6.3305564e-09
2.9389584e-10
6.2421728e-09
2.8563393e-10
6.1563281e-09
2.7742854e-10
6.0730336e-09
2.6918713e-10
5.992348e-09
2.6075529e-10
5.9143745e-09
2.5199059e-10
5.8392455e-09
2.4279785e-10
5.7671317e-09
2.3305348e-10
5.698245e-09
2.226244e-10
5.6328467e-09
2.1135147e-10
5.5712833e-09
1.9895874e-10
5.5140282e-09
1.8503719e-10
5.4616759e-09
1.6919461e-10
5.4149868e-09
1.5089617e-10
5.3753859e-09
1.2798925e-10
5.3429864e-09
1.0473098e-10
5.3218492e-09
6.8324261e-11
5.3130868e-09
2.8330663e-11
5.316746e-09
-1.1794175e-11
5.3375765e-09
-6.7293205e-11
5.3775932e-09
-1.2929518e-10
5.4398668e-09
-2.0122684e-10
5.5266674e-09
-2.8049843e-10
5.6382737e-09
-3.6067212e-10
5.7737605e-09
-4.3785909e-10
5.9318639e-09
-5.1097352e-10
6.1064765e-09
-5.6435621e-10
6.2829632e-09
-5.7042502e-10
6.4485812e-09
-5.3530629e-10
6.5854359e-09
-4.4231936e-10
6.6913976e-09
-3.4245944e-10
6.7748266e-09
-2.6963647e-10
6.8347585e-09
-1.9367613e-10
6.8786158e-09
-1.4172699e-10
6.9101262e-09
-1.0182302e-10
6.9319428e-09
-7.0495021e-11
6.9458854e-09
-4.5048395e-11
6.9531891e-09
-2.3594291e-11
6.9544383e-09
-4.0287817e-12
6.9496506e-09
1.5479471e-11
6.9392554e-09
3.3600424e-11
6.9240608e-09
4.9110045e-11
6.9047197e-09
6.2510249e-11
6.8821187e-09
7.304454e-11
6.8570784e-09
8.0927598e-11
6.8301725e-09
8.6956937e-11
6.8020023e-09
9.1042286e-11
6.7731447e-09
9.3263539e-11
6.7439283e-09
9.4423013e-11
6.7145455e-09
9.4960784e-11
6.6852393e-09
9.4713257e-11
6.6562362e-09
9.3733626e-11
6.6276166e-09
9.2493731e-11
6.5993521e-09
9.1346724e-11
6.5714247e-09
9.0257714e-11
6.5438432e-09
8.9140027e-11
6.5166656e-09
8.7834908e-11
6.4893337e-09
8.8335608e-11
6.4622466e-09
8.7544501e-11
6.4325828e-09
9.5881706e-11
6.402786e-09
9.6314064e-11
6.3700255e-09
1.0585669e-10
6.289225e-11
2.8985139e-06
7.2758725e-10
2.8982049e-06
1.982771e-09
2.8977729e-06
2.7689505e-09
2.8972708e-06
3.218083e-09
2.8966954e-06
3.6875681e-09
2.8960394e-06
4.2041111e-09
2.8952961e-06
4.7641091e-09
2.8944562e-06
5.383876e-09
2.8935068e-06
6.0856617e-09
2.8924318e-06
6.8922673e-09
2.8912107e-06
7.8299261e-09
2.8898171e-06
8.9365267e-09
2.8882175e-06
1.025976e-08
2.8863638e-06
1.189085e-08
2.8841962e-06
1.3906415e-08
2.8816065e-06
1.6618004e-08
2.8784947e-06
1.9972003e-08
2.8745102e-06
2.557842e-08
2.8696194e-06
3.1402353e-08
2.8621948e-06
4.7687717e-08
2.8531096e-06
5.8360926e-08
2.8314565e-06
1.3911806e-07
2.8150142e-06
1.0543456e-07
1.4827944e-06
8.7960577e-06
1.0525828e-07
8.9591345e-06
5.1903759e-08
1.87982e-07
3.9341072e-08
4.3857996e-08
3.3262944e-08
2.1214444e-08
2.9504618e-08
1.3115434e-08
2.6837285e-08
9.3081284e-09
2.4801907e-08
7.102848e-09
2.3168445e-08
5.700442e-09
2.1817295e-08
4.7152669e-09
2.0674089e-08
3.9895951e-09
1.9688211e-08
3.4405819e-09
1.8825073e-08
3.0122593e-09
1.8060374e-08
2.6687349e-09
1.7376167e-08
2.3878336e-09
1.6758744e-08
2.1547673e-09
1.6197481e-08
1.9587794e-09
1.5684038e-08
1.7918901e-09
1.5211546e-08
1.6489822e-09
1.477467e-08
1.5246903e-09
1.4369006e-08
1.4157508e-09
1.3990655e-08
1.3204372e-09
1.3636536e-08
1.2358667e-09
1.3303991e-08
1.1605759e-09
1.2990757e-08
1.0931827e-09
1.2694893e-08
1.0325622e-09
1.2414717e-08
9.7780796e-10
1.2148764e-08
9.2817172e-10
1.1895752e-08
8.8300883e-10
1.1654555e-08
8.4177739e-10
1.1424181e-08
8.0400343e-10
1.1203756e-08
7.6927772e-10
1.0992502e-08
7.3727458e-10
1.0789718e-08
7.0771535e-10
1.0594777e-08
6.8034131e-10
1.0407118e-08
6.5492683e-10
1.0226236e-08
6.3127875e-10
1.0051675e-08
6.0921447e-10
9.8830311e-09
5.8856451e-10
9.7199368e-09
5.6919652e-10
9.5620544e-09
5.5100669e-10
9.4090768e-09
5.3388875e-10
9.2607291e-09
5.177305e-10
9.1167653e-09
5.0243037e-10
8.9769642e-09
4.8790226e-10
8.8411296e-09
4.7405899e-10
8.7090937e-09
4.6080167e-10
8.5807147e-09
4.4803822e-10
8.4558733e-09
4.3569195e-10
8.334473e-09
4.2368247e-10
8.2164405e-09
4.1192832e-10
8.101726e-09
4.0034847e-10
7.9903067e-09
3.888478e-10
7.8821972e-09
3.7729658e-10
7.777474e-09
3.6547848e-10
7.6762708e-09
3.5319386e-10
7.5787594e-09
3.4030923e-10
7.4851615e-09
3.266514e-10
7.3957521e-09
3.1203377e-10
7.3108704e-09
2.9623314e-10
7.2309665e-09
2.7886268e-10
7.1566546e-09
2.5934909e-10
7.0887068e-09
2.3714241e-10
7.0281102e-09
2.1149274e-10
6.9767135e-09
1.7938598e-10
6.9346682e-09
1.4677633e-10
6.9072368e-09
9.5755642e-11
6.8958663e-09
3.9701167e-11
6.9006236e-09