/*--------------------------------*- C++ -*----------------------------------*\
| =========                 |                                                 |
| \\      /  F ield         | OpenFOAM: The Open Source CFD Toolbox           |
|  \\    /   O peration     | Version:  2206                                  |
|   \\  /    A nd           | Website:  www.openfoam.com                      |
|    \\/     M anipulation  |                                                 |
\*---------------------------------------------------------------------------*/
FoamFile
{
    version     2.0;
    format      ascii;
    arch        "LSB;label=32;scalar=64";
    class       volVectorField;
    location    "2000";
    object      U;
}
// * * * * * * * * * * * * * * * * * * * * * * * * * * * * * * * * * * * * * //

dimensions      [0 1 -1 0 0 0 0];

internalField   nonuniform List<vector> 
13056
(
(0.99999999 9.7272285e-10 5.0892561e-25)
(0.99992686 3.0061825e-09 0)
(0.99979208 4.7608459e-09 0)
(0.9996328 6.2757313e-09 0)
(0.99945009 8.1556742e-09 0)
(0.99924089 1.0540969e-08 0)
(0.99900313 1.3534265e-08 0)
(0.99873426 1.7317416e-08 0)
(0.99843049 2.2142569e-08 0)
(0.99808688 2.833317e-08 0)
(0.99769719 3.6310987e-08 0)
(0.99725367 4.6660365e-08 0)
(0.99674608 6.0164388e-08 0)
(0.9961615 7.8069408e-08 0)
(0.9954801 1.0182337e-07 0)
(0.99468037 1.3504007e-07 0)
(0.99371045 1.7904023e-07 0)
(0.99255111 2.5112891e-07 0)
(0.9909879 3.3470236e-07 0)
(0.98919423 5.4622974e-07 0)
(0.98592172 7.0976798e-07 0)
(0.9829241 1.7725536e-06 0)
(0.97115749 1.3842859e-06 -5.0551683e-21)
(0.97147932 0.00012119678 8.8134588e-18)
(0.0030772832 0.00012142295 0)
(0.0012172702 7.1960265e-08 -1.2226829e-20)
(0.00086732538 4.7458279e-08 4.0573113e-18)
(0.00071270843 6.026845e-09 0)
(0.00062328771 3.6932396e-09 0)
(0.00056185681 2.5970637e-09 0)
(0.00051621153 1.9636199e-09 0)
(0.00048013835 1.5610296e-09 0)
(0.00045061859 1.2786186e-09 0)
(0.00042587785 1.0709962e-09 0)
(0.00040470624 9.1412546e-10 0)
(0.00038628129 7.9188169e-10 0)
(0.00037003746 6.9397556e-10 0)
(0.00035556511 6.1403342e-10 0)
(0.00034255357 5.4779206e-10 0)
(0.0003307632 4.9215783e-10 0)
(0.00032000705 4.4483857e-10 0)
(0.00031013743 4.0435424e-10 6.0386714e-25)
(0.00030102566 3.6919252e-10 0)
(0.00029258655 3.3841235e-10 0)
(0.00028472878 3.1149169e-10 0)
(0.00027738659 2.876297e-10 0)
(0.00027050219 2.6640025e-10 0)
(0.00026402659 2.474097e-10 0)
(0.00025791789 2.3033762e-10 0)
(0.00025214004 2.1492505e-10 0)
(0.00024666157 2.0095775e-10 0)
(0.00024145505 1.8825229e-10 0)
(0.00023649643 1.7665466e-10 0)
(0.00023176451 1.6603117e-10 0)
(0.0002272407 1.5626706e-10 0)
(0.0002229085 1.4726948e-10 0)
(0.00021875308 1.3895857e-10 0)
(0.00021476113 1.3126169e-10 0)
(0.00021092081 1.2411571e-10 0)
(0.00020722142 1.1746636e-10 0)
(0.00020365331 1.1126367e-10 0)
(0.0002002079 1.0546228e-10 0)
(0.00019687751 1.0002564e-10 0)
(0.00019365506 9.4923732e-11 0)
(0.00019053406 9.012738e-11 0)
(0.00018750867 8.560779e-11 0)
(0.00018457368 8.1339345e-11 0)
(0.00018172442 7.7300223e-11 0)
(0.00017895668 7.3469483e-11 0)
(0.00017626679 6.9825551e-11 0)
(0.00017365168 6.6349228e-11 0)
(0.00017110873 6.3024751e-11 0)
(0.00016863577 5.9836814e-11 0)
(0.0001662311 5.6770987e-11 0)
(0.00016389347 5.3814018e-11 0)
(0.00016162214 5.0951777e-11 0)
(0.00015941694 4.8167046e-11 0)
(0.00015727862 4.5433363e-11 0)
(0.00015520954 4.2729184e-11 0)
(0.00015321273 4.0043585e-11 0)
(0.00015129206 3.7362257e-11 0)
(0.00014945259 3.4671779e-11 0)
(0.00014770032 3.1957262e-11 0)
(0.00014604288 2.918897e-11 0)
(0.00014449075 2.63233e-11 0)
(0.00014305817 2.3325224e-11 0)
(0.00014176193 2.0147763e-11 0)
(0.00014062493 1.6550667e-11 0)
(0.00013969927 1.3081686e-11 0)
(0.00013893629 8.2882624e-12 0)
(0.0001386034 1.2644413e-11 -5.3064743e-22)
(0.0001384821 -1.724289e-12 0)
(0.00013880035 -7.1736364e-12 0)
(0.0001395756 -1.3336645e-11 0)
(0.00014089639 -1.9997394e-11 0)
(0.00014283451 -2.6809283e-11 0)
(0.00014543639 -3.3106498e-11 0)
(0.00014866864 -3.8541825e-11 0)
(0.00015251707 -4.3090727e-11 0)
(0.00015692984 -4.5552805e-11 0)
(0.00016163559 -4.4011049e-11 0)
(0.00016613562 -3.9428573e-11 0)
(0.00017027129 -1.1685704e-10 9.9867096e-21)
(0.00017324899 -2.2857383e-11 0)
(0.00017578929 -1.7106034e-11 0)
(0.00017758328 -1.16444e-11 0)
(0.00017890294 -8.0641577e-12 0)
(0.00017986101 -5.4739774e-12 0)
(0.0001805384 -3.5757796e-12 0)
(0.00018099214 -2.1531565e-12 0)
(0.00018125964 -1.062785e-12 0)
(0.00018136769 -2.2968855e-13 0)
(0.00018131925 6.1919146e-13 0)
(0.00018111672 1.2759933e-12 0)
(0.00018077947 1.8683159e-12 0)
(0.0001803241 2.3804577e-12 0)
(0.00017977062 2.7829113e-12 0)
(0.00017914528 3.0839931e-12 0)
(0.00017846461 3.3145992e-12 0)
(0.00017774196 3.4708805e-12 0)
(0.00017699536 3.5558519e-12 0)
(0.00017623689 3.6003262e-12 0)
(0.00017547159 3.6211389e-12 0)
(0.00017470443 3.6119326e-12 0)
(0.00017394312 3.5746615e-12 0)
(0.00017319178 3.5274854e-12 0)
(0.00017245048 3.4838802e-12 0)
(0.00017171763 3.442547e-12 0)
(0.00017099389 3.4000317e-12 0)
(0.00017027907 3.3504262e-12 0)
(0.00016957639 3.3696161e-12 0)
(0.00016885337 3.3405887e-12 0)
(0.0001681635 3.6572184e-12 0)
(0.00016730543 1.3871998e-11 0)
(0.00016660889 3.9822183e-12 4.8326321e-24)
(0.00016559599 9.144105e-12 0)
(0.99999999 2.9334739e-09 0)
(0.99992682 9.0669458e-09 0)
(0.99979194 1.4360277e-08 0)
(0.99963252 1.8930212e-08 0)
(0.99944965 2.4600962e-08 0)
(0.99924027 3.1795883e-08 0)
(0.99900231 4.0824618e-08 0)
(0.99873321 5.2235611e-08 0)
(0.99842919 6.6789305e-08 0)
(0.9980853 8.5461155e-08 0)
(0.99769531 1.0952312e-07 0)
(0.99725145 1.4073743e-07 0)
(0.99674348 1.8146558e-07 0)
(0.99615849 2.3546611e-07 0)
(0.99547662 3.0710531e-07 0)
(0.99467638 4.072809e-07 0)
(0.99370587 5.3997463e-07 0)
(0.99254586 7.5737082e-07 0)
(0.99098182 1.0093972e-06 0)
(0.98918725 1.6472601e-06 0)
(0.98591333 2.1404095e-06 0)
(0.98291446 5.3453261e-06 0)
(0.97114315 4.1739955e-06 1.8764857e-20)
(0.97146087 0.00036427265 -6.8833626e-21)
(0.0092431715 0.00036540854 0)
(0.0036697292 1.1902454e-06 0)
(0.0026148997 2.673929e-07 3.8991926e-22)
(0.002148792 1.2631017e-07 0)
(0.0018791832 7.7376571e-08 0)
(0.0016939662 5.4417769e-08 0)
(0.0015563418 4.1141139e-08 0)
(0.0014475805 3.2705734e-08 0)
(0.0013585786 2.6789012e-08 0)
(0.0012839854 2.2438695e-08 0)
(0.0012201534 1.915173e-08 0)
(0.0011646029 1.6590427e-08 0)
(0.0011156285 1.4539117e-08 0)
(0.0010719952 1.2864192e-08 0)
(0.0010327663 1.1476328e-08 0)
(0.00099721908 1.0310718e-08 0)
(0.00096479007 9.3194156e-09 0)
(0.00093503382 8.4712537e-09 -9.2350175e-25)
(0.00090756272 7.7345839e-09 -1.5289214e-24)
(0.00088211944 7.0897487e-09 0)
(0.0008584289 6.5256992e-09 0)
(0.00083629283 6.0257589e-09 0)
(0.00081553696 5.5809793e-09 0)
(0.00079601358 5.1831103e-09 0)
(0.00077759638 4.8254392e-09 0)
(0.00076017667 4.5025368e-09 0)
(0.00074365959 4.2099142e-09 0)
(0.00072796241 3.94373e-09 0)
(0.00071301263 3.7007551e-09 0)
(0.00069874632 3.4781904e-09 0)
(0.00068510744 3.2736321e-09 0)
(0.00067204626 3.085132e-09 0)
(0.00065951803 2.9110175e-09 0)
(0.00064748269 2.7497674e-09 0)
(0.00063590447 2.600059e-09 0)
(0.00062475113 2.460755e-09 0)
(0.00061399362 2.3308085e-09 0)
(0.00060360604 2.20927e-09 0)
(0.0005935652 2.0953726e-09 0)
(0.00058384981 1.988487e-09 0)
(0.00057444027 1.8880024e-09 0)
(0.00056531898 1.7933155e-09 0)
(0.00055647025 1.7038896e-09 0)
(0.00054787999 1.6192668e-09 0)
(0.00053953549 1.5390091e-09 0)
(0.0005314257 1.4626646e-09 0)
(0.00052354136 1.3898305e-09 0)
(0.0005158746 1.3201758e-09 0)
(0.00050841881 1.2533797e-09 0)
(0.00050116893 1.1891399e-09 0)
(0.00049412118 1.1271779e-09 0)
(0.00048727329 1.0671984e-09 0)
(0.0004806248 1.0088391e-09 0)
(0.00047417796 9.515464e-10 0)
(0.00046793984 8.9486882e-10 0)
(0.00046191962 8.3857265e-10 0)
(0.00045612898 7.8236112e-10 0)
(0.00045058313 7.2595229e-10 0)
(0.00044530023 6.6902988e-10 0)
(0.00044030322 6.1097247e-10 0)
(0.00043562376 5.5085987e-10 0)
(0.00043130475 4.879677e-10 0)
(0.00042739684 4.2130851e-10 0)
(0.00042396914 3.4567598e-10 0)
(0.00042117859 2.7349783e-10 0)
(0.00041887891 1.7230832e-10 7.8382399e-25)
(0.00041787532 6.9849636e-11 1.7383621e-24)
(0.00041751039 -2.7096888e-11 0)
(0.00041847044 -1.5188752e-10 0)
(0.00042080844 -2.8094485e-10 0)
(0.00042479118 -4.2047033e-10 0)
(0.00043063506 -5.6301133e-10 0)
(0.00043847997 -6.9463737e-10 0)
(0.00044822525 -8.0826787e-10 0)
(0.00045982796 -9.0306432e-10 0)
(0.0004731315 -9.5379231e-10 0)
(0.00048731776 -9.2068396e-10 0)
(0.00050088375 -8.2403005e-10 0)
(0.00051335069 -6.5791163e-10 -2.9272225e-24)
(0.00052232822 -4.774319e-10 -4.4608738e-24)
(0.00052998599 -3.5694421e-10 0)
(0.00053539465 -2.4303075e-10 0)
(0.00053937325 -1.6832201e-10 0)
(0.00054226182 -1.1424646e-10 0)
(0.00054430415 -7.4583076e-11 0)
(0.00054567223 -4.4847394e-11 0)
(0.00054647881 -2.2050213e-11 0)
(0.00054680465 -3.4668226e-12 0)
(0.00054665867 1.2686409e-11 0)
(0.00054604811 2.6854576e-11 0)
(0.00054503137 3.9242274e-11 0)
(0.0005436585 4.9946369e-11 0)
(0.00054198985 5.8360288e-11 0)
(0.00054010452 6.465651e-11 0)
(0.00053805238 6.9473369e-11 0)
(0.0005358737 7.2736508e-11 0)
(0.00053362281 7.4509719e-11 0)
(0.00053133611 7.5435644e-11 0)
(0.00052902882 7.5865638e-11 0)
(0.00052671594 7.566762e-11 0)
(0.0005244207 7.4884204e-11 0)
(0.0005221555 7.3893605e-11 0)
(0.00051992059 7.297793e-11 0)
(0.00051771116 7.2108857e-11 0)
(0.00051552919 7.1216487e-11 0)
(0.00051337411 7.01742e-11 0)
(0.00051125564 7.0577763e-11 0)
(0.00050907595 6.9948185e-11 0)
(0.00050699608 7.6620267e-11 0)
(0.00050440956 7.8120153e-11 0)
(0.00050230956 8.4419809e-11 -7.4751721e-24)
(0.00049925576 5.1212643e-11 1.1603629e-24)
(0.99999999 4.9390507e-09 0)
(0.99992678 1.5267106e-08 0)
(0.99979178 2.4181802e-08 0)
(0.99963222 3.1878122e-08 0)
(0.99944916 4.1427659e-08 0)
(0.99923958 5.3543591e-08 0)
(0.99900139 6.8747371e-08 0)
(0.99873204 8.7962413e-08 0)
(0.99842774 1.1246907e-07 0)
(0.99808354 1.439097e-07 0)
(0.99769321 1.8442586e-07 0)
(0.99724897 2.3698447e-07 0)
(0.99674059 3.0556132e-07 0)
(0.99615513 3.9648427e-07 0)
(0.99547276 5.1710397e-07 0)
(0.99467194 6.8576752e-07 0)
(0.99370076 9.0917677e-07 0)
(0.99254001 1.2751864e-06 0)
(0.99097504 1.6994933e-06 0)
(0.98917947 2.7733493e-06 0)
(0.98590401 3.6035749e-06 0)
(0.98290373 8.9992244e-06 0)
(0.97112726 7.029022e-06 -9.9416327e-21)
(0.97144048 0.00061106029 6.7312993e-55)
(0.015510951 0.00061410347 -6.728862e-55)
(0.0061766411 3.3364438e-06 0)
(0.0044014385 7.6382423e-07 -2.0866219e-22)
(0.0036169439 3.6670034e-07 0)
(0.003163115 2.2464857e-07 0)
(0.0028513425 1.5799384e-07 0)
(0.0026196796 1.1944619e-07 0)
(0.0024366052 9.49543e-08 0)
(0.0022867919 7.7776184e-08 0)
(0.0021612323 6.5145839e-08 0)
(0.0020537871 5.5602621e-08 0)
(0.001960282 4.8166292e-08 0)
(0.0018778466 4.2210713e-08 0)
(0.0018044015 3.7347924e-08 0)
(0.00173837 3.3318564e-08 0)
(0.0016785359 2.9934482e-08 0)
(0.0016239505 2.7056486e-08 0)
(0.0015738639 2.4594019e-08 0)
(0.0015276241 2.2455275e-08 0)
(0.0014847973 2.0583192e-08 0)
(0.0014449208 1.8945607e-08 0)
(0.0014076609 1.749416e-08 0)
(0.0013727242 1.6202859e-08 0)
(0.001339862 1.5047751e-08 0)
(0.0013088618 1.4009349e-08 0)
(0.0012795406 1.3071889e-08 0)
(0.0012517387 1.2222338e-08 0)
(0.0012253169 1.1449545e-08 0)
(0.0012001532 1.0744133e-08 0)
(0.0011761398 1.0097977e-08 0)
(0.0011531826 9.5040989e-09 0)
(0.0011311978 8.9568411e-09 0)
(0.00111011 8.451348e-09 0)
(0.0010898519 7.9832031e-09 0)
(0.0010703632 7.5485665e-09 0)
(0.0010515897 7.1441362e-09 0)
(0.0010334825 6.7668732e-09 0)
(0.0010159979 6.4140207e-09 0)
(0.00099909697 6.083352e-09 0)
(0.00098274383 5.7730404e-09 0)
(0.00096690551 5.4813121e-09 0)
(0.00095155237 5.2064162e-09 0)
(0.00093665799 4.9467937e-09 0)
(0.00092219869 4.701116e-09 0)
(0.00090815305 4.4681111e-09 0)
(0.00089450248 4.2464674e-09 0)
(0.00088123138 4.0350151e-09 0)
(0.00086832652 3.8327936e-09 0)
(0.00085577676 3.6388711e-09 0)
(0.00084357359 3.4523703e-09 0)
(0.00083171064 3.2724824e-09 0)
(0.00082018411 3.0983497e-09 0)
(0.0008089932 2.9289207e-09 0)
(0.00079814173 2.7625886e-09 0)
(0.00078764158 2.5980429e-09 0)
(0.0007775082 2.4346041e-09 0)
(0.00076776126 2.2714114e-09 0)
(0.00075842637 2.1076457e-09 0)
(0.00074953407 1.9423873e-09 0)
(0.00074112304 1.7738322e-09 0)
(0.00073324654 1.5993094e-09 0)
(0.00072597681 1.416714e-09 0)
(0.00071939914 1.2231769e-09 0)
(0.00071362985 1.0036136e-09 0)
(0.00070893302 7.9398204e-10 0)
(0.00070506305 5.0027424e-10 1.6613183e-24)
(0.00070337372 2.00046e-10 -9.2111463e-25)
(0.0007027605 -7.9944505e-11 0)
(0.00070437717 -4.4094271e-10 0)
(0.00070831342 -8.1563558e-10 0)
(0.00071501812 -1.2206985e-09 0)
(0.00072485543 -1.6345165e-09 0)
(0.00073806072 -2.01665e-09 0)
(0.00075446457 -2.3465398e-09 0)
(0.0007739945 -2.6217211e-09 0)
(0.00079638652 -2.7689795e-09 0)
(0.00082026358 -2.6728823e-09 0)
(0.00084309657 -2.392355e-09 0)
(0.00086407896 -1.8796896e-09 0)
(0.00087919018 -1.3861377e-09 0)
(0.00089207865 -1.0363927e-09 0)
(0.00090118263 -7.0566313e-10 0)
(0.0009078795 -4.8874529e-10 0)
(0.00091274172 -3.3173918e-10 0)
(0.00091617956 -2.1657706e-10 0)
(0.0009184825 -1.3024099e-10 0)
(0.00091984031 -6.404896e-11 0)
(0.0009203889 -1.0234412e-11 0)
(0.00092014329 3.6863494e-11 0)
(0.00091911567 7.7948131e-11 0)
(0.00091740433 1.1391555e-10 0)
(0.00091509355 1.4499404e-10 0)
(0.0009122849 1.6942382e-10 0)
(0.00090911151 1.8770508e-10 0)
(0.00090565736 2.0169008e-10 0)
(0.00090199022 2.1116483e-10 0)
(0.00089820153 2.1631433e-10 0)
(0.00089435254 2.1900311e-10 0)
(0.00089046891 2.2025153e-10 0)
(0.00088657587 2.1967717e-10 0)
(0.00088271252 2.1740359e-10 0)
(0.00087889973 2.1452782e-10 0)
(0.00087513793 2.1186915e-10 0)
(0.00087141903 2.093455e-10 0)
(0.00086774636 2.0675466e-10 0)
(0.00086411895 2.0372838e-10 0)
(0.00086055316 2.0489858e-10 0)
(0.00085688444 2.0306691e-10 0)
(0.00085338362 2.2243705e-10 0)
(0.00084903058 2.2313949e-10 0)
(0.00084549583 2.4528844e-10 0)
(0.00084035561 1.4600376e-10 0)
(0.99999999 7.0195656e-09 1.0906443e-24)
(0.99992673 2.1700245e-08 0)
(0.99979161 3.4374024e-08 0)
(0.99963187 4.5315554e-08 0)
(0.99944862 5.8890622e-08 0)
(0.99923881 7.6113438e-08 0)
(0.99900037 9.7725292e-08 0)
(0.99873073 1.2503859e-07 0)
(0.99842612 1.5987305e-07 0)
(0.99808157 2.0456286e-07 0)
(0.99769086 2.6215162e-07 0)
(0.9972462 3.3685591e-07 0)
(0.99673735 4.3432596e-07 0)
(0.99615138 5.6355461e-07 0)
(0.99546843 7.3498769e-07 0)
(0.99466697 9.7469895e-07 0)
(0.99369505 1.2922099e-06 0)
(0.99253346 1.812372e-06 0)
(0.99096747 2.4153742e-06 0)
(0.98917078 3.9414224e-06 0)
(0.98589359 5.1212465e-06 0)
(0.98289175 1.2789099e-05 0)
(0.97110955 9.9916102e-06 0)
(0.97141781 0.00086518359 -3.5117935e-55)
(0.021971069 0.00087130264 3.5105298e-55)
(0.0087753398 6.8783425e-06 0)
(0.0062535628 1.5747342e-06 0)
(0.0051390457 7.5532044e-07 0)
(0.0044942182 4.6274659e-07 0)
(0.0040512344 3.2544871e-07 0)
(0.0037220715 2.4604396e-07 0)
(0.0034619512 1.9559192e-07 0)
(0.003249091 1.602072e-07 0)
(0.0030706916 1.3419036e-07 0)
(0.0029180302 1.1453242e-07 0)
(0.002785176 9.9214488e-08 0)
(0.00266805 8.6946824e-08 0)
(0.002563698 7.6930204e-08 0)
(0.0024698796 6.8630341e-08 0)
(0.0023848666 6.1659668e-08 0)
(0.0023073111 5.5731507e-08 0)
(0.0022361474 5.0659166e-08 0)
(0.0021704498 4.6253708e-08 0)
(0.002109601 4.239761e-08 0)
(0.0020529443 3.9024444e-08 0)
(0.0020000052 3.6034719e-08 0)
(0.0019503669 3.337487e-08 0)
(0.0019036762 3.0995556e-08 0)
(0.001859631 2.8856637e-08 0)
(0.0018179713 2.6925641e-08 0)
(0.0017784702 2.5175723e-08 0)
(0.00174093 2.358391e-08 0)
(0.0017051773 2.2130893e-08 0)
(0.0016710591 2.0799932e-08 0)
(0.0016384414 1.9576654e-08 0)
(0.0016072053 1.8449405e-08 0)
(0.0015772437 1.7408184e-08 0)
(0.0015484609 1.6443894e-08 0)
(0.0015207713 1.5548625e-08 0)
(0.0014940978 1.4715575e-08 0)
(0.001468371 1.3938484e-08 0)
(0.0014435288 1.3211676e-08 0)
(0.0014195159 1.2530562e-08 0)
(0.0013962813 1.189138e-08 0)
(0.0013737782 1.1290476e-08 0)
(0.0013519643 1.0724243e-08 0)
(0.0013308023 1.0189471e-08 0)
(0.0013102585 9.6834218e-09 0)
(0.0012903024 9.2034765e-09 0)
(0.0012709075 8.7469333e-09 0)
(0.0012520519 8.3113825e-09 0)
(0.0012337166 7.8948454e-09 0)
(0.0012158858 7.4954024e-09 0)
(0.0011985474 7.1112463e-09 0)
(0.0011816924 6.740711e-09 0)
(0.0011653154 6.38203e-09 0)
(0.0011494153 6.0330368e-09 0)
(0.0011339974 5.6904227e-09 0)
(0.0011190787 5.3514881e-09 0)
(0.0011046811 5.0148324e-09 0)
(0.0010908326 4.6786832e-09 0)
(0.0010775695 4.3413524e-09 0)
(0.0010649353 4.0009435e-09 0)
(0.0010529849 3.6537406e-09 0)
(0.001041794 3.2942418e-09 0)
(0.0010314652 2.91811e-09 0)
(0.0010221199 2.5194324e-09 0)
(0.0010139232 2.0671569e-09 0)
(0.0010072502 1.6352965e-09 0)
(0.0010017531 1.0303249e-09 -9.0441766e-25)
(0.0009993526 4.1225852e-10 0)
(0.00099848276 -1.6474217e-10 0)
(0.0010007806 -9.0848114e-10 0)
(0.0010063744 -1.680289e-09 0)
(0.0010159016 -2.5146227e-09 0)
(0.0010298794 -3.3669676e-09 0)
(0.0010486423 -4.1540375e-09 0)
(0.0010719494 -4.8334922e-09 0)
(0.0010996976 -5.4001872e-09 0)
(0.0011315112 -5.7033555e-09 0)
(0.0011654337 -5.5053306e-09 0)
(0.0011978729 -4.9274778e-09 0)
(0.0012276819 -3.8754909e-09 3.3781886e-24)
(0.0012491521 -2.8550596e-09 0)
(0.0012674626 -2.1346857e-09 0)
(0.0012803977 -1.453524e-09 0)
(0.0012899128 -1.0067259e-09 0)
(0.0012968213 -6.8333295e-10 0)
(0.001301706 -4.4612237e-10 0)
(0.0013049783 -2.6828664e-10 0)
(0.0013069078 -1.3194122e-10 0)
(0.0013076874 -2.1072202e-11 0)
(0.0013073387 7.5917901e-11 0)
(0.0013058788 1.6055356e-10 0)
(0.0013034474 2.3464085e-10 0)
(0.0013001643 2.9865616e-10 0)
(0.0012961739 3.4897791e-10 0)
(0.0012916652 3.8663406e-10 0)
(0.0012867576 4.1543952e-10 0)
(0.0012815474 4.3495563e-10 0)
(0.0012761645 4.4556346e-10 0)
(0.0012706959 4.5110185e-10 0)
(0.0012651781 4.5367266e-10 0)
(0.0012596469 4.5248957e-10 0)
(0.0012541579 4.4780707e-10 0)
(0.0012487407 4.4188349e-10 0)
(0.001243396 4.364064e-10 0)
(0.0012381123 4.3120713e-10 0)
(0.0012328942 4.258699e-10 0)
(0.0012277405 4.1963583e-10 0)
(0.0012226743 4.22043e-10 0)
(0.001217462 4.1826637e-10 0)
(0.0012124881 4.5815685e-10 0)
(0.0012063042 4.6002351e-10 0)
(0.001201282 5.0545267e-10 0)
(0.0011939788 3.0071071e-10 0)
(0.99999999 9.2062534e-09 0)
(0.99992668 2.8463155e-08 0)
(0.99979141 4.5090598e-08 0)
(0.99963148 5.9445237e-08 0)
(0.99944801 7.7253334e-08 0)
(0.99923794 9.9845926e-08 0)
(0.99899922 1.2819548e-07 0)
(0.99872926 1.6402328e-07 0)
(0.99842429 2.0971591e-07 0)
(0.99807936 2.6833476e-07 0)
(0.99768821 3.4387146e-07 0)
(0.99724309 4.4185592e-07 0)
(0.99673371 5.6969804e-07 0)
(0.99614716 7.3919128e-07 0)
(0.99546357 9.6403381e-07 0)
(0.99466138 1.2784191e-06 0)
(0.99368863 1.6948298e-06 0)
(0.99252611 2.376995e-06 0)
(0.99095896 3.1677853e-06 0)
(0.98916101 5.1689958e-06 0)
(0.98588189 6.7161674e-06 0)
(0.9828783 1.6771737e-05 0)
(0.97108972 1.3106368e-05 0)
(0.97139248 0.0011302446 0)
(0.028715073 0.0011406674 0)
(0.011504516 1.1971562e-05 0)
(0.0081988704 2.7322515e-06 0)
(0.0067377847 1.3099669e-06 0)
(0.0058923326 8.0258986e-07 0)
(0.0053115252 5.6446233e-07 0)
(0.0048799468 4.2674033e-07 0)
(0.0045388993 3.3923284e-07 0)
(0.0042598168 2.7786131e-07 0)
(0.0040259162 2.3273767e-07 0)
(0.0038257618 1.9864262e-07 0)
(0.0036515773 1.7207503e-07 0)
(0.0034980145 1.5079803e-07 0)
(0.0033611999 1.3342531e-07 0)
(0.0032381959 1.1903015e-07 0)
(0.0031267368 1.0694035e-07 0)
(0.0030250551 9.6658755e-08 0)
(0.0029317535 8.7861293e-08 0)
(0.0028456191 8.0220575e-08 0)
(0.0027658414 7.3532801e-08 0)
(0.00269156 6.7682437e-08 0)
(0.0026221526 6.249716e-08 0)
(0.002557073 5.788401e-08 0)
(0.0024958579 5.3757414e-08 0)
(0.0024381112 5.0047752e-08 0)
(0.0023834922 4.6698706e-08 0)
(0.0023317033 4.3663717e-08 0)
(0.0022824853 4.090294e-08 0)
(0.0022356107 3.8382885e-08 0)
(0.0021908791 3.607452e-08 0)
(0.0021481148 3.3952917e-08 0)
(0.0021071619 3.1997865e-08 0)
(0.00206788 3.0192016e-08 0)
(0.0020301436 2.8519592e-08 0)
(0.0019938405 2.6966875e-08 0)
(0.0019588695 2.5522069e-08 0)
(0.0019251397 2.4174318e-08 0)
(0.0018925697 2.2913774e-08 0)
(0.001861087 2.1732482e-08 0)
(0.0018306246 2.0623914e-08 0)
(0.0018011212 1.9581733e-08 0)
(0.0017725216 1.8599685e-08 0)
(0.0017447766 1.7672201e-08 0)
(0.001717842 1.6794533e-08 0)
(0.001691678 1.5962138e-08 0)
(0.0016662499 1.5170331e-08 0)
(0.0016415286 1.4414932e-08 0)
(0.0016174895 1.369251e-08 0)
(0.0015941119 1.2999734e-08 0)
(0.00157138 1.2333472e-08 0)
(0.0015492817 1.1690832e-08 0)
(0.0015278101 1.106875e-08 0)
(0.0015069637 1.0463469e-08 0)
(0.0014867497 9.8692522e-09 0)
(0.00146719 9.281417e-09 0)
(0.0014483136 8.6975324e-09 0)
(0.001430157 8.1145254e-09 0)
(0.001412768 7.5294672e-09 0)
(0.0013962035 6.939065e-09 0)
(0.0013805356 6.3368737e-09 0)
(0.0013658635 5.7133515e-09 0)
(0.0013523219 5.0609731e-09 0)
(0.0013400697 4.3694795e-09 0)
(0.0013293237 3.5850538e-09 0)
(0.0013205753 2.8359284e-09 0)
(0.0013133698 1.7867494e-09 0)
(0.0013102221 7.1513009e-10 0)
(0.0013090835 -2.8599631e-10 0)
(0.0013120972 -1.5759531e-09 0)
(0.0013194325 -2.9145654e-09 0)
(0.0013319247 -4.3615658e-09 0)
(0.001350252 -5.8397707e-09 0)
(0.0013748523 -7.2047533e-09 0)
(0.0014054103 -8.3830792e-09 0)
(0.0014417902 -9.3657366e-09 0)
(0.0014834987 -9.8913046e-09 0)
(0.0015279711 -9.5477494e-09 0)
(0.0015704986 -8.5455122e-09 0)
(0.0016095769 -6.7246373e-09 0)
(0.0016377264 -4.9515374e-09 0)
(0.001661731 -3.7021874e-09 0)
(0.0016786903 -2.5209417e-09 0)
(0.0016911656 -1.7460448e-09 0)
(0.0017002236 -1.1851773e-09 0)
(0.0017066283 -7.7376971e-10 0)
(0.001710919 -4.6533738e-10 0)
(0.0017134491 -2.2886051e-10 0)
(0.0017144716 -3.6558301e-11 0)
(0.0017140146 1.3164879e-10 0)
(0.0017121008 2.7844527e-10 0)
(0.0017089133 4.069417e-10 0)
(0.0017046091 5.1796711e-10 0)
(0.0016993775 6.052443e-10 0)
(0.0016934664 6.7055495e-10 0)
(0.0016870323 7.205128e-10 0)
(0.0016802014 7.5436082e-10 0)
(0.0016731441 7.7276016e-10 0)
(0.0016659744 7.823659e-10 0)
(0.0016587403 7.8682364e-10 0)
(0.0016514886 7.8477185e-10 0)
(0.0016442921 7.7665183e-10 0)
(0.0016371899 7.6637823e-10 0)
(0.0016301826 7.5687782e-10 0)
(0.0016232553 7.4785883e-10 0)
(0.0016164142 7.3860114e-10 0)
(0.0016096574 7.2778844e-10 0)
(0.0016030153 7.3195697e-10 0)
(0.001596182 7.2540378e-10 0)
(0.0015896609 7.9456547e-10 0)
(0.0015815546 7.9817082e-10 0)
(0.0015749701 8.7684018e-10 -9.6296883e-24)
(0.001565395 5.2147573e-10 1.4948344e-24)
(0.99999999 1.1532057e-08 0)
(0.99992662 3.5658063e-08 0)
(0.99979119 5.649397e-08 0)
(0.99963105 7.4481592e-08 0)
(0.99944732 9.6794485e-08 0)
(0.99923697 1.2510119e-07 0)
(0.99899792 1.606202e-07 0)
(0.9987276 2.0550771e-07 0)
(0.99842224 2.6275328e-07 0)
(0.99807686 3.3619173e-07 0)
(0.99768523 4.3082304e-07 0)
(0.99723957 5.5357389e-07 0)
(0.99672961 7.137255e-07 0)
(0.99614241 9.2604973e-07 0)
(0.99545808 1.207703e-06 0)
(0.99465508 1.6015135e-06 0)
(0.9936814 2.1231108e-06 0)
(0.99251782 2.9775657e-06 0)
(0.99094937 3.9680595e-06 0)
(0.98915001 6.4745336e-06 0)
(0.98586871 8.4123112e-06 0)
(0.98286315 2.1006964e-05 0)
(0.97106744 1.6420487e-05 0)
(0.9713641 0.0014098935 0)
(0.035836692 0.0014261162 0)
(0.014404792 1.8768429e-05 0)
(0.010266348 4.3017965e-06 0)
(0.0084369934 2.0625665e-06 0)
(0.0073782981 1.2637605e-06 0)
(0.0066509995 8.8880734e-07 0)
(0.0061105624 6.7194729e-07 0)
(0.0056834997 5.3415252e-07 0)
(0.0053340322 4.3751652e-07 0)
(0.0050411417 3.6646489e-07 0)
(0.0047905092 3.1277839e-07 0)
(0.0045723973 2.7094483e-07 0)
(0.0043801084 2.3744217e-07 0)
(0.0042087915 2.1008731e-07 0)
(0.0040547683 1.8742092e-07 0)
(0.0039152016 1.6838456e-07 0)
(0.0037878782 1.5219552e-07 0)
(0.003671048 1.3834305e-07 2.6356156e-24)
(0.0035631932 1.2631217e-07 0)
(0.0034632974 1.1578201e-07 -8.9022938e-35)
(0.0033702842 1.0657013e-07 0)
(0.0032833743 9.8405563e-08 0)
(0.0032018834 9.1141853e-08 0)
(0.0031252315 8.4644262e-08 0)
(0.0030529228 7.8803166e-08 0)
(0.0029845304 7.3529884e-08 0)
(0.002919682 6.8751106e-08 0)
(0.0028580526 6.4404094e-08 0)
(0.0027993576 6.0436113e-08 0)
(0.002743346 5.6801454e-08 0)
(0.0026897979 5.3460864e-08 0)
(0.0026385179 5.038252e-08 0)
(0.0025893303 4.7539104e-08 0)
(0.0025420778 4.4905775e-08 0)
(0.0024966201 4.2460932e-08 0)
(0.0024528305 4.0186002e-08 0)
(0.002410595 3.806389e-08 0)
(0.0023698119 3.6079094e-08 0)
(0.0023303901 3.4219083e-08 0)
(0.002292246 3.2473582e-08 0)
(0.0022553027 3.0832611e-08 0)
(0.0022194911 2.9286322e-08 0)
(0.0021847495 2.7825947e-08 0)
(0.0021510228 2.6444011e-08 0)
(0.0021182609 2.5133359e-08 0)
(0.0020864205 2.3886616e-08 0)
(0.0020554651 2.26972e-08 0)
(0.0020253641 2.1559708e-08 0)
(0.0019960912 2.0468896e-08 0)
(0.0019676268 1.9419829e-08 0)
(0.0019399559 1.8407955e-08 0)
(0.0019130697 1.7428451e-08 0)
(0.0018869663 1.6475399e-08 0)
(0.0018616547 1.5539768e-08 0)
(0.0018371626 1.4614185e-08 0)
(0.0018135259 1.3694821e-08 0)
(0.0017907907 1.2776837e-08 0)
(0.0017690166 1.185562e-08 0)
(0.0017482749 1.0925981e-08 0)
(0.0017286559 9.9777692e-09 0)
(0.001710284 8.9959627e-09 0)
(0.0016933277 7.9687063e-09 0)
(0.0016779861 6.8798404e-09 0)
(0.0016645309 5.6446986e-09 0)
(0.0016535767 4.4649227e-09 0)
(0.0016445566 2.8130685e-09 0)
(0.0016406141 1.125792e-09 0)
(0.0016391908 -4.5084389e-10 0)
(0.0016429657 -2.4818862e-09 0)
(0.0016521524 -4.5896487e-09 0)
(0.0016677965 -6.8679829e-09 0)
(0.0016907467 -9.1954029e-09 0)
(0.0017215516 -1.1344535e-08 0)
(0.0017598161 -1.3199736e-08 0)
(0.0018053695 -1.4746694e-08 0)
(0.0018575938 -1.5573888e-08 0)
(0.0019132773 -1.50328e-08 0)
(0.0019665259 -1.3454673e-08 0)
(0.0020154542 -1.0588398e-08 0)
(0.0020507027 -7.7962952e-09 -3.2801863e-24)
(0.0020807584 -5.8291595e-09 0)
(0.002101995 -3.9694267e-09 0)
(0.0021176167 -2.7493108e-09 0)
(0.0021289596 -1.8662036e-09 0)
(0.0021369801 -1.218415e-09 0)
(0.0021423534 -7.3276467e-10 0)
(0.0021455221 -3.604077e-10 0)
(0.002146803 -5.7603388e-11 0)
(0.0021462312 2.072552e-10 0)
(0.0021438352 4.3840368e-10 0)
(0.0021398441 6.4073395e-10 0)
(0.0021344548 8.1555106e-10 0)
(0.0021279041 9.529765e-10 0)
(0.0021205026 1.055815e-09 0)
(0.0021124461 1.1344754e-09 0)
(0.0021038929 1.1877717e-09 0)
(0.0020950561 1.2167453e-09 0)
(0.0020860786 1.2318707e-09 0)
(0.0020770203 1.2388884e-09 0)
(0.00206794 1.2356581e-09 0)
(0.002058929 1.2228745e-09 0)
(0.0020500359 1.2066983e-09 0)
(0.0020412617 1.1917375e-09 0)
(0.0020325877 1.1775341e-09 0)
(0.0020240215 1.1629556e-09 0)
(0.002015561 1.1459297e-09 0)
(0.0020072442 1.1524821e-09 0)
(0.0019986881 1.1421614e-09 0)
(0.0019905227 1.2510158e-09 0)
(0.0019803739 1.2567098e-09 0)
(0.0019721291 1.3808372e-09 0)
(0.0019601394 8.2080503e-10 -8.5314843e-25)
(0.99999999 1.4032119e-08 0)
(0.99992655 4.3394159e-08 0)
(0.99979094 6.8757833e-08 0)
(0.99963055 9.0653969e-08 0)
(0.99944654 1.1781218e-07 0)
(0.99923586 1.5226442e-07 0)
(0.99899644 1.9549384e-07 0)
(0.99872572 2.5012414e-07 0)
(0.99841991 3.1979307e-07 0)
(0.99807403 4.0916683e-07 0)
(0.99768186 5.2432927e-07 0)
(0.99723559 6.7370836e-07 0)
(0.99672496 8.6859652e-07 0)
(0.99613702 1.1269666e-06 0)
(0.99545187 1.4696913e-06 0)
(0.99464795 1.9488785e-06 0)
(0.99367321 2.583537e-06 0)
(0.99250844 3.623166e-06 0)
(0.99093852 4.8282874e-06 0)
(0.98913756 7.8777246e-06 0)
(0.98585381 1.0235244e-05 0)
(0.98284603 2.5558535e-05 0)
(0.97104231 1.9984357e-05 0)
(0.97133224 0.001707883 0)
(0.043432879 0.0017317178 0)
(0.017519321 2.7720352e-05 0)
(0.012486801 6.3778086e-06 0)
(0.010262004 3.0582584e-06 0)
(0.0089742661 1.8739446e-06 0)
(0.0080896234 1.3179562e-06 0)
(0.0074322601 9.9638576e-07 0)
(0.0069128113 7.9205113e-07 0)
(0.0064877466 6.4875585e-07 0)
(0.006131498 5.4339856e-07 0)
(0.0058266499 4.6379002e-07 0)
(0.0055613584 4.017577e-07 0)
(0.0053274766 3.5207915e-07 0)
(0.0051191036 3.1151693e-07 0)
(0.0049317652 2.7790692e-07 0)
(0.0047620107 2.4967964e-07 0)
(0.0046071478 2.2567463e-07 0)
(0.0044650475 2.0513382e-07 0)
(0.0043338651 1.8729437e-07 0)
(0.0042123622 1.7168061e-07 9.6029338e-35)
(0.0040992311 1.5802112e-07 0)
(0.0039935233 1.4591474e-07 0)
(0.0038944067 1.3514415e-07 0)
(0.0038011758 1.2550956e-07 0)
(0.0037132274 1.1684843e-07 0)
(0.0036300424 1.0902926e-07 0)
(0.0035511679 1.0194333e-07 0)
(0.0034762087 9.549762e-08 0)
(0.0034048186 8.9613938e-08 0)
(0.0033366924 8.4224505e-08 0)
(0.0032715624 7.9271119e-08 0)
(0.003209191 7.4706588e-08 0)
(0.0031493647 7.0490406e-08 0)
(0.0030918921 6.6585738e-08 0)
(0.0030366023 6.2960558e-08 0)
(0.0029833415 5.9587321e-08 0)
(0.0029319709 5.6440684e-08 0)
(0.0028823668 5.3497657e-08 0)
(0.0028344184 5.0739664e-08 0)
(0.0027880242 4.8151462e-08 0)
(0.0027430904 4.5718257e-08 0)
(0.0026995331 4.3425444e-08 0)
(0.0026572772 4.1260023e-08 0)
(0.0026162556 3.9210911e-08 0)
(0.0025764076 3.7267497e-08 0)
(0.0025376804 3.5418848e-08 0)
(0.0025000296 3.3655204e-08 0)
(0.0024634178 3.196855e-08 0)
(0.0024278135 3.0351112e-08 0)
(0.0023931923 2.8795573e-08 0)
(0.0023595363 2.7295183e-08 0)
(0.0023268347 2.5842787e-08 0)
(0.0022950853 2.442961e-08 0)
(0.0022642989 2.3042266e-08 0)
(0.0022345092 2.1669822e-08 0)
(0.0022057599 2.0306595e-08 0)
(0.0021781071 1.8945413e-08 0)
(0.0021516233 1.7579433e-08 0)
(0.0021263953 1.6200951e-08 0)
(0.0021025328 1.4794916e-08 0)
(0.0020801872 1.3339054e-08 0)
(0.0020595636 1.1815778e-08 0)
(0.0020409041 1.0201116e-08 0)
(0.0020245392 8.3696467e-09 0)
(0.0020112161 6.6198944e-09 0)
(0.0020002482 4.1708066e-09 0)
(0.0019954515 1.6689362e-09 0)
(0.0019937233 -6.6931183e-10 0)
(0.0019983161 -3.6807621e-09 0)
(0.0020094919 -6.8061904e-09 0)
(0.0020285216 -1.0184394e-08 0)
(0.0020564374 -1.3635312e-08 0)
(0.0020939061 -1.6821855e-08 0)
(0.0021404476 -1.9572505e-08 0)
(0.0021958533 -2.1865876e-08 0)
(0.0022593706 -2.3091925e-08 0)
(0.0023270935 -2.2289421e-08 0)
(0.0023918552 -1.994933e-08 0)
(0.0024513609 -1.5699559e-08 0)
(0.0024942342 -1.156001e-08 -3.8182825e-24)
(0.0025307881 -8.6432098e-09 0)
(0.0025566191 -5.8859398e-09 0)
(0.0025756205 -4.0767628e-09 0)
(0.0025894176 -2.7673134e-09 0)
(0.0025991739 -1.806772e-09 0)
(0.0026057102 -1.0866444e-09 0)
(0.0026095652 -5.345003e-10 0)