/*--------------------------------*- C++ -*----------------------------------*\
| =========                 |                                                 |
| \\      /  F ield         | OpenFOAM: The Open Source CFD Toolbox           |
|  \\    /   O peration     | Version:  2206                                  |
|   \\  /    A nd           | Website:  www.openfoam.com                      |
|    \\/     M anipulation  |                                                 |
\*---------------------------------------------------------------------------*/
FoamFile
{
    version     2.0;
    format      ascii;
    arch        "LSB;label=32;scalar=64";
    class       volVectorField;
    location    "2000";
    object      wallShearStress;
}
// * * * * * * * * * * * * * * * * * * * * * * * * * * * * * * * * * * * * * //

dimensions      [0 2 -2 0 0 0 0];

internalField   uniform (0 0 0);

boundaryField
{
    bottom
    {
        type            calculated;
        value           nonuniform List<vector> 
112
(
(-0.046051856 -0.0024381617 0)
(-0.018216661 -4.1755018e-06 -1.9999914e-16)
(-0.012979676 -1.5665673e-06 -9.584636e-18)
(-0.010665806 -4.1724566e-07 -2.2240997e-17)
(-0.0093276096 -2.5560744e-07 0)
(-0.0084082854 -1.7976175e-07 0)
(-0.0077251958 -1.3590607e-07 0)
(-0.0071853544 -1.0804118e-07 0)
(-0.006743586 -8.8495824e-08 0)
(-0.0063733365 -7.4125133e-08 -7.901694e-18)
(-0.0060564997 -6.3267121e-08 0)
(-0.0057807671 -5.4806146e-08 -5.8422225e-18)
(-0.0055376753 -4.8029835e-08 5.1198588e-18)
(-0.0053210941 -4.2496845e-08 -4.5300386e-18)
(-0.0051263741 -3.7912118e-08 0)
(-0.0049499291 -3.4061596e-08 3.6308415e-18)
(-0.0047889615 -3.0786756e-08 0)
(-0.0046412609 -2.798491e-08 -1.4915537e-18)
(-0.0045049017 -2.5551359e-08 0)
(-0.0043786089 -2.3421072e-08 -2.4966016e-18)
(-0.004261016 -2.1557808e-08 2.2979722e-18)
(-0.0041511388 -1.9906284e-08 0)
(-0.0040481126 -1.8436964e-08 0)
(-0.0039512041 -1.712261e-08 0)
(-0.0038597863 -1.5941052e-08 -1.6992337e-18)
(-0.0037733198 -1.4874355e-08 0)
(-0.0036913335 -1.3907683e-08 0)
(-0.0036134171 -1.3028341e-08 0)
(-0.0035392104 -1.2225672e-08 0)
(-0.0034683964 -1.1490425e-08 -1.2248086e-18)
(-0.0034006968 -1.0814666e-08 1.152775e-18)
(-0.0033358647 -1.019195e-08 0)
(-0.0032736781 -9.6167645e-09 0)
(-0.0032139379 -9.0840758e-09 0)
(-0.0031564668 -8.5895025e-09 9.1558121e-19)
(-0.0031011048 -8.1293151e-09 0)
(-0.0030477074 -7.7000418e-09 0)
(-0.0029961462 -7.2985308e-09 -7.7796786e-19)
(-0.0029463064 -6.9222654e-09 0)
(-0.0028980818 -6.5691708e-09 0)
(-0.0028513755 -6.2372167e-09 0)
(-0.0028061 -5.9244193e-09 6.3149247e-19)
(-0.0027621774 -5.6290045e-09 -3.0000085e-19)
(-0.0027195377 -5.349454e-09 5.7020224e-19)
(-0.002678118 -5.0843237e-09 0)
(-0.0026378633 -4.8321213e-09 0)
(-0.0025987278 -4.5915218e-09 -7.3411084e-19)
(-0.0025606721 -4.3614219e-09 0)
(-0.0025236638 -4.1407651e-09 4.4135619e-19)
(-0.0024876775 -3.928564e-09 0)
(-0.0024526944 -3.7238831e-09 3.9691375e-19)
(-0.0024187036 -3.5257553e-09 0)
(-0.0023857024 -3.3329897e-09 -1.7761979e-19)
(-0.0023537021 -3.1437431e-09 0)
(-0.0023227379 -2.9565285e-09 -3.1510303e-19)
(-0.0022928553 -2.7705911e-09 0)
(-0.0022641121 -2.584934e-09 0)
(-0.0022365842 -2.3986322e-09 0)
(-0.0022103611 -2.2106446e-09 0)
(-0.0021855572 -2.0189132e-09 0)
(-0.0021623293 -1.820409e-09 0)
(-0.0021408905 -1.6127264e-09 0)
(-0.0021214921 -1.3926131e-09 0)
(-0.0021044767 -1.143036e-09 0)
(-0.002090624 -9.0413023e-10 -9.6276822e-20)
(-0.0020792059 -5.705598e-10 0)
(-0.0020742241 -4.1458507e-10 2.8448763e-21)
(-0.0020724089 9.8908916e-11 0)
(-0.0020771715 5.0011274e-10 2.6790368e-20)
(-0.0020887733 9.2650603e-10 -9.9023877e-20)
(-0.0021085391 1.3874514e-09 -1.4815569e-19)
(-0.0021375434 1.8585109e-09 9.9170236e-20)
(-0.002176481 2.2936419e-09 0)
(-0.0022248522 2.6692976e-09 0)
(-0.0022824446 2.9829734e-09 -3.1802579e-19)
(-0.0023484825 3.1514304e-09 3.358388e-19)
(-0.0024189049 3.0428657e-09 0)
(-0.0024862486 2.7243339e-09 0)
(-0.0025481396 3.8563532e-09 -2.3748417e-20)
(-0.0025927014 1.5786209e-09 -0)
(-0.0026307175 1.1807029e-09 0)
(-0.0026575648 8.0380333e-10 0)
(-0.0026773138 5.5669855e-10 0)
(-0.0026916515 3.7786408e-10 0)
(-0.0027017887 2.4672753e-10 0)
(-0.002708579 1.484247e-10 0)
(-0.0027125822 7.3065427e-11 0)
(-0.0027141992 1.2854477e-11 -1.1480992e-22)
(-0.0027134743 -4.2209254e-11 -4.0697788e-21)
(-0.0027104434 -8.8588555e-11 0)
(-0.0027053964 -1.2953379e-10 0)
(-0.0026985817 -1.6492017e-10 0)
(-0.0026902988 -1.9273362e-10 0)
(-0.0026809405 -2.1354511e-10 0)
(-0.0026707541 -2.2947258e-10 0)
(-0.0026599395 -2.4026464e-10 0)
(-0.0026487665 -2.4612926e-10 0)
(-0.0026374159 -2.491932e-10 -2.6564609e-20)
(-0.002625963 -2.5061993e-10 0)
(-0.0026144824 -2.4997183e-10 0)
(-0.0026030892 -2.4738683e-10 0)
(-0.0025918453 -2.441165e-10 0)
(-0.0025807516 -2.4109434e-10 0)
(-0.0025697844 -2.3822577e-10 0)
(-0.0025589535 -2.3527889e-10 0)
(-0.0025482561 -2.3183788e-10 0)
(-0.0025377403 -2.331752e-10 0)
(-0.0025269202 -2.3110503e-10 0)
(-0.0025165962 -2.5314159e-10 0)
(-0.002503755 -4.577392e-10 0)
(-0.0024933312 -2.7842372e-10 -2.9858856e-20)
(-0.002478173 -3.0035044e-10 0)
)
;
    }
    back
    {
        type            empty;
    }
    front
    {
        type            empty;
    }
    inlet
    {
        type            calculated;
        value           uniform (0 0 0);
    }
    outlet
    {
        type            calculated;
        value           uniform (0 0 0);
    }
    top
    {
        type            calculated;
        value           uniform (0 0 0);
    }
    slipsurface
    {
        type            calculated;
        value           uniform (0 0 0);
    }
}


// ************************************************************************* //
