# Region        : all region0
# Cells         : 13056
# Volume        : 2.33333000e+00
# Time          	min(U)
0.000120005     	(2.60374270e-01 8.28722532e-22 -2.49094016e-32)
0.000264017     	(1.26052065e-01 -4.99289892e-09 -9.55987079e-33)
0.000436833     	(8.67723772e-02 -2.50744725e-08 -1.03559278e-32)
0.000644211     	(6.86525937e-02 -6.56498074e-08 -1.06663378e-32)
0.000893055     	(5.77374301e-02 -1.40433549e-07 -1.09784561e-32)
0.00119165      	(5.01810577e-02 -1.09771641e-07 -1.16358774e-32)
0.0015499       	(4.45216686e-02 -6.47540510e-08 -1.24560972e-32)
0.00197972      	(4.00663060e-02 -2.36933420e-08 -1.33759366e-32)
0.00249549      	(3.64357879e-02 -5.08123027e-09 -1.43672399e-32)
0.00311429      	(3.34015973e-02 -1.53403055e-07 -1.54260320e-32)
0.00385657      	(3.08162307e-02 -3.43211881e-06 -1.65388926e-32)
0.00474757      	(2.85793470e-02 -8.28763498e-06 -1.76859635e-32)
0.00581659      	(2.66198771e-02 -1.04127399e-05 -1.88626107e-32)
0.00709941      	(2.48857895e-02 -9.71364968e-06 -2.00367358e-32)
0.00863879      	(2.33379503e-02 -8.03359689e-06 -2.11900833e-32)
0.0104849       	(2.19462490e-02 -1.50102167e-05 -2.23002438e-32)
0.0126986       	(2.06870627e-02 -2.45140043e-05 -2.33273454e-32)
0.0153526       	(1.95415477e-02 -4.16641010e-05 -2.42425898e-32)
0.0185392       	(1.84944529e-02 -6.52943121e-05 -2.50526145e-32)
0.0223581       	(1.75332794e-02 -8.76121246e-05 -2.66449451e-32)
0.026948        	(1.66476627e-02 -9.74841765e-05 -2.81738960e-32)
0.0324454       	(1.58289280e-02 -1.03548022e-04 -2.97184086e-32)
0.0390274       	(1.50697443e-02 -1.09822955e-04 -3.11598615e-32)
0.0467152       	(1.43638743e-02 -1.13166332e-04 -3.28174072e-32)
0.0554609       	(1.37059638e-02 -1.10684139e-04 -3.44991827e-32)
0.0652999       	(1.30913852e-02 -1.04599989e-04 -3.59664471e-32)
0.0753504       	(1.25161306e-02 -1.01397525e-04 -3.85834687e-32)
0.085401        	(1.19766855e-02 -9.51504089e-05 -4.05055536e-32)
0.0954515       	(1.14699628e-02 -8.70571012e-05 -4.20527745e-32)
0.105502        	(1.09924202e-02 -7.79400931e-05 -4.34758983e-32)
0.115553        	(1.05410538e-02 -7.18719643e-05 -4.48091886e-32)
0.125603        	(1.01148669e-02 -6.50913631e-05 -4.60624221e-32)
0.135654        	(9.71193924e-03 -5.74905317e-05 -4.72417643e-32)
0.145704        	(9.33054880e-03 -5.11624301e-05 -4.83534443e-32)
0.155755        	(8.96914577e-03 -4.52825553e-05 -4.94014709e-32)
0.165805        	(8.62633093e-03 -3.85808811e-05 -5.03875476e-32)
0.175736        	(8.30084151e-03 -3.20323712e-05 -5.14182179e-32)
0.185667        	(7.99152772e-03 -2.48007294e-05 -5.21670980e-32)
0.195598        	(7.69734631e-03 -1.91600889e-05 -5.29642637e-32)
0.205408        	(7.41734572e-03 -1.35529207e-05 -5.38000674e-32)
0.215218        	(7.15065366e-03 -7.84480270e-06 -5.43786277e-32)
0.225027        	(6.89647021e-03 -2.31591513e-06 -5.50159353e-32)
0.234837        	(6.65406001e-03 -1.89139120e-06 -5.56132951e-32)
0.244523        	(6.42274647e-03 -1.52348496e-06 -5.62202598e-32)
0.254208        	(6.20190237e-03 -1.20714820e-06 -5.65966105e-32)
0.263894        	(5.99094827e-03 -9.40264412e-07 -5.70424780e-32)
0.273579        	(5.78935009e-03 -7.19798416e-07 -5.74551585e-32)
0.283265        	(5.59660922e-03 -5.44753880e-07 -5.78319510e-32)
0.292822        	(5.41226188e-03 -4.01745384e-07 -5.81887238e-32)
0.302378        	(5.23587187e-03 -2.85957886e-07 -5.83571166e-32)
0.311935        	(5.06703565e-03 -1.94210089e-07 -5.86065096e-32)
0.321491        	(4.90537478e-03 -1.23249706e-07 -5.88284440e-32)
0.331047        	(4.75041936e-03 -7.17184593e-08 -5.90196453e-32)
0.340604        	(4.59975165e-03 -3.61332932e-08 -5.91816794e-32)
0.35016         	(4.45505153e-03 -1.64708960e-08 -5.93178250e-32)
0.359717        	(4.31602749e-03 -1.66776931e-08 -5.94269047e-32)
0.369133        	(4.18240648e-03 -1.68626098e-08 -5.94626065e-32)
0.378549        	(4.05393078e-03 -1.70250810e-08 -5.93755898e-32)
0.387965        	(3.93035862e-03 -1.71672611e-08 -5.93890822e-32)
0.397381        	(3.81146223e-03 -1.72901170e-08 -5.93881011e-32)
0.406796        	(3.69702694e-03 -1.73945354e-08 -5.93695644e-32)
0.416212        	(3.58685027e-03 -1.74815369e-08 -5.94189430e-32)
0.425628        	(3.48074104e-03 -1.75851674e-08 -5.96383278e-32)
0.435044        	(3.37851859e-03 -1.76812850e-08 -5.98426722e-32)
0.44446         	(3.28001211e-03 -1.77641079e-08 -6.00332492e-32)
0.453876        	(3.18505992e-03 -1.78346237e-08 -6.02094426e-32)
0.463292        	(3.09350890e-03 -1.78937421e-08 -6.03715633e-32)
0.472708        	(3.00521397e-03 -1.79423270e-08 -6.05221579e-32)
0.482124        	(2.92003748e-03 -1.79811687e-08 -6.06632463e-32)
0.491372        	(2.83784931e-03 -1.80099886e-08 -6.03763958e-32)
0.500619        	(2.75852504e-03 -1.80288218e-08 -6.03129429e-32)
0.509867        	(2.68194695e-03 -1.80398941e-08 -6.04072811e-32)
0.519115        	(2.60800305e-03 -1.80434442e-08 -6.05000384e-32)
0.528363        	(2.53658682e-03 -1.80393909e-08 -6.05880864e-32)
0.537611        	(2.46759686e-03 -1.80281060e-08 -6.06681092e-32)
0.546858        	(2.40093663e-03 -1.80101572e-08 -6.07383732e-32)
0.556106        	(2.33651415e-03 -1.79862851e-08 -6.08007974e-32)
0.565354        	(2.27424171e-03 -1.79569996e-08 -6.08569320e-32)
0.574602        	(2.21403569e-03 -1.79395215e-08 -6.09218659e-32)
0.58385         	(2.15581630e-03 -1.79328875e-08 -6.10297702e-32)
0.593097        	(2.09950735e-03 -1.79217748e-08 -6.11297958e-32)
0.602345        	(2.04503609e-03 -1.79063908e-08 -6.12232255e-32)
0.611593        	(1.99233301e-03 -1.78869407e-08 -6.13114649e-32)
0.620841        	(1.94133166e-03 -1.78635563e-08 -6.13959347e-32)
0.630089        	(1.89196850e-03 -1.78364047e-08 -6.14763283e-32)
0.639336        	(1.84418277e-03 -1.78057159e-08 -6.15509746e-32)
0.648584        	(1.79791628e-03 -1.77716646e-08 -6.16198439e-32)
0.657832        	(1.75311337e-03 -1.77345154e-08 -6.16845418e-32)
0.66708         	(1.70972071e-03 -1.76943275e-08 -6.17452648e-32)
0.676327        	(1.66768721e-03 -1.76510584e-08 -6.18035361e-32)
0.685575        	(1.62696394e-03 -1.76048252e-08 -6.18589367e-32)
0.694823        	(1.58750396e-03 -1.75557484e-08 -6.19099057e-32)
0.704071        	(1.54926229e-03 -1.75040292e-08 -6.19567719e-32)
0.713319        	(1.51219576e-03 -1.74499884e-08 -6.20010711e-32)
0.722566        	(1.47626298e-03 -1.73937613e-08 -6.20435679e-32)
0.731814        	(1.44142421e-03 -1.73353466e-08 -6.20839565e-32)
0.741062        	(1.40764129e-03 -1.72748700e-08 -6.21216512e-32)
0.75031         	(1.37487760e-03 -1.72123492e-08 -6.21554128e-32)
0.759558        	(1.34309796e-03 -1.71479144e-08 -6.21862590e-32)
0.768805        	(1.31226857e-03 -1.70882894e-08 -6.22157258e-32)
0.778053        	(1.28235694e-03 -1.70426541e-08 -6.22443334e-32)
0.787301        	(1.25333184e-03 -1.69952019e-08 -6.22721092e-32)
0.796549        	(1.22516328e-03 -1.69460502e-08 -6.22976999e-32)
0.805796        	(1.19782236e-03 -1.68951736e-08 -6.23206781e-32)
0.815044        	(1.17128134e-03 -1.68426387e-08 -6.23414699e-32)
0.824292        	(1.14551349e-03 -1.67885560e-08 -6.23606961e-32)
0.83354         	(1.12049311e-03 -1.67328962e-08 -6.23798496e-32)
0.842788        	(1.09619545e-03 -1.66757196e-08 -6.23987484e-32)
0.852035        	(1.07259670e-03 -1.66170693e-08 -6.24162350e-32)
0.861283        	(1.04967392e-03 -1.65570021e-08 -6.24317673e-32)
0.870531        	(1.02740502e-03 -1.64956137e-08 -6.24459441e-32)
0.879779        	(1.00576872e-03 -1.64329326e-08 -6.24592188e-32)
0.889027        	(9.84744526e-04 -1.63689560e-08 -6.24728581e-32)
0.898274        	(9.64312673e-04 -1.63037359e-08 -6.24869655e-32)
0.907522        	(9.44454124e-04 -1.62372572e-08 -6.25007128e-32)
0.91677         	(9.25150525e-04 -1.61695358e-08 -6.25134619e-32)
0.926018        	(9.06384179e-04 -1.61006530e-08 -6.25252446e-32)
0.935265        	(8.88138020e-04 -1.60306554e-08 -6.25365265e-32)
0.944513        	(8.70395588e-04 -1.59595980e-08 -6.25475261e-32)
0.953761        	(8.53141005e-04 -1.58874939e-08 -6.25578360e-32)
0.963009        	(8.36358953e-04 -1.58143695e-08 -6.25670798e-32)
0.972257        	(8.20034648e-04 -1.57402634e-08 -6.25756254e-32)
0.981504        	(8.04153826e-04 -1.56652123e-08 -6.25850482e-32)
0.990752        	(7.88702715e-04 -1.55892292e-08 -6.25960278e-32)
1               	(7.73668020e-04 -1.55123180e-08 -6.26077023e-32)
1.00917         	(7.59036945e-04 -1.54317695e-08 -6.23438995e-32)
1.01835         	(7.44797060e-04 -1.53493105e-08 -6.22857800e-32)
1.02752         	(7.30936406e-04 -1.52766785e-08 -6.22918544e-32)
1.0367          	(7.17443424e-04 -1.52090905e-08 -6.23009785e-32)
1.04587         	(7.04306948e-04 -1.51404253e-08 -6.23129258e-32)
1.05505         	(6.91516189e-04 -1.50706762e-08 -6.23237439e-32)
1.06422         	(6.79060724e-04 -1.49999150e-08 -6.23275653e-32)
1.07339         	(6.66930477e-04 -1.49283035e-08 -6.23277485e-32)
1.08257         	(6.55115713e-04 -1.48560174e-08 -6.23316733e-32)
1.09174         	(6.43607017e-04 -1.47831111e-08 -6.23435433e-32)
1.10092         	(6.32395287e-04 -1.47094761e-08 -6.23636826e-32)
1.11009         	(6.21471723e-04 -1.46351112e-08 -6.23726985e-32)
1.11927         	(6.10827813e-04 -1.45599726e-08 -6.23802581e-32)
1.12844         	(6.00455323e-04 -1.44842383e-08 -6.23807128e-32)
1.13761         	(5.90346289e-04 -1.44080999e-08 -6.23806466e-32)
1.14679         	(5.80493004e-04 -1.43316043e-08 -6.23905263e-32)
1.15596         	(5.70888010e-04 -1.42546082e-08 -6.24007464e-32)
1.16514         	(5.61524091e-04 -1.41768944e-08 -6.24147178e-32)
1.17431         	(5.52394261e-04 -1.40983696e-08 -6.24240278e-32)
1.18349         	(5.43491759e-04 -1.40191248e-08 -6.24292679e-32)
1.19266         	(5.34810039e-04 -1.39395712e-08 -6.24200183e-32)
1.20183         	(5.26342763e-04 -1.38597993e-08 -6.24307178e-32)
1.21101         	(5.18084753e-04 -1.37794236e-08 -6.24284401e-32)
1.22018         	(5.10029055e-04 -1.36983369e-08 -6.24482192e-32)
1.22936         	(5.02169916e-04 -1.36163274e-08 -6.24628103e-32)
1.23853         	(4.94501761e-04 -1.35334240e-08 -6.24764759e-32)
1.24771         	(4.87019193e-04 -1.34501829e-08 -6.24636836e-32)
1.25688         	(4.79716980e-04 -1.33666515e-08 -6.24744408e-32)
1.26606         	(4.72590054e-04 -1.32828840e-08 -6.24760520e-32)
1.27523         	(4.65633504e-04 -1.31984586e-08 -6.24913185e-32)
1.2844          	(4.58842573e-04 -1.31131185e-08 -6.25089250e-32)
1.29358         	(4.52212649e-04 -1.30267392e-08 -6.25308902e-32)
1.30275         	(4.45739262e-04 -1.29399707e-08 -6.25200087e-32)
1.31193         	(4.39418078e-04 -1.28528540e-08 -6.25355078e-32)
1.3211          	(4.33244898e-04 -1.27724969e-08 -6.25324560e-32)
1.33028         	(4.27215651e-04 -1.26967550e-08 -6.25431817e-32)
1.33945         	(4.21326387e-04 -1.26201621e-08 -6.25626299e-32)
1.34862         	(4.15573281e-04 -1.25426515e-08 -6.25885203e-32)
1.3578          	(4.09952619e-04 -1.24647429e-08 -6.25827174e-32)
1.36697         	(4.04460801e-04 -1.23863733e-08 -6.26024797e-32)
1.37615         	(3.99094336e-04 -1.23077142e-08 -6.25938650e-32)
1.38532         	(3.93849838e-04 -1.22284981e-08 -6.26031949e-32)
1.3945          	(3.88724022e-04 -1.21484675e-08 -6.26287040e-32)
1.40367         	(3.83713700e-04 -1.20676835e-08 -6.26420050e-32)
1.41284         	(3.78815782e-04 -1.19864449e-08 -6.26574077e-32)
1.42202         	(3.74027266e-04 -1.19048783e-08 -6.26614681e-32)
1.43119         	(3.69345242e-04 -1.18229265e-08 -6.26627709e-32)
1.44037         	(3.64766885e-04 -1.17404121e-08 -6.26744667e-32)
1.44954         	(3.60289454e-04 -1.16570438e-08 -6.27048973e-32)
1.45872         	(3.55910287e-04 -1.15732958e-08 -6.27046309e-32)
1.46789         	(3.51626802e-04 -1.14890276e-08 -6.27306923e-32)
1.47706         	(3.47436491e-04 -1.14045640e-08 -6.27291285e-32)
1.48624         	(3.43336920e-04 -1.13197103e-08 -6.27343386e-32)
1.49541         	(3.39325726e-04 -1.12342581e-08 -6.27575136e-32)
1.50459         	(3.35400614e-04 -1.11481451e-08 -6.27740057e-32)
1.51376         	(3.31559356e-04 -1.10616887e-08 -6.27911825e-32)
1.52294         	(3.27799789e-04 -1.09750034e-08 -6.28030584e-32)
1.53211         	(3.24119810e-04 -1.08879874e-08 -6.28074608e-32)
1.54128         	(3.20517379e-04 -1.08005307e-08 -6.28208818e-32)
1.55046         	(3.16990514e-04 -1.07123602e-08 -6.28508154e-32)
1.55963         	(3.13537288e-04 -1.06239357e-08 -6.28560120e-32)
1.56881         	(3.10155830e-04 -1.05350408e-08 -6.28825462e-32)
1.57798         	(3.06844323e-04 -1.04459962e-08 -6.28851460e-32)
1.58716         	(3.03601001e-04 -1.03566384e-08 -6.28925666e-32)
1.59633         	(3.00424147e-04 -1.02666980e-08 -6.29169856e-32)
1.6055          	(2.97312095e-04 -1.01762672e-08 -6.29354248e-32)
1.61468         	(2.94263223e-04 -1.00854561e-08 -6.29615979e-32)
1.62385         	(2.91275957e-04 -9.99847102e-09 -6.29678439e-32)
1.63303         	(2.88348765e-04 -9.91750136e-09 -6.29755155e-32)
1.6422          	(2.85480159e-04 -9.83612720e-09 -6.29955243e-32)
1.65138         	(2.82668694e-04 -9.75414728e-09 -6.30249496e-32)
1.66055         	(2.79912962e-04 -9.67196550e-09 -6.30343466e-32)
1.66972         	(2.77211597e-04 -9.58945886e-09 -6.30580333e-32)
1.6789          	(2.74563268e-04 -9.50671757e-09 -6.30647015e-32)
1.68807         	(2.71966684e-04 -9.42369257e-09 -6.30775970e-32)
1.69725         	(2.69420588e-04 -1.35450777e-08 -6.31070256e-32)
1.70642         	(2.66923757e-04 -9.25625740e-09 -6.31223364e-32)
1.7156          	(2.64475003e-04 -9.17202344e-09 -6.31541397e-32)
1.72477         	(2.62073168e-04 -1.53005343e-08 -6.31577298e-32)
1.73394         	(2.59717129e-04 -9.00308219e-09 -6.31686952e-32)
1.74312         	(2.57405792e-04 -8.91809214e-09 -6.31954861e-32)
1.75229         	(2.55138092e-04 -2.28814678e-08 -6.32192644e-32)
1.76147         	(2.52912995e-04 -9.78693019e-09 -6.32450529e-32)
1.77064         	(2.50729492e-04 -2.40530910e-08 -6.32607987e-32)
1.77982         	(2.48586604e-04 -2.45915603e-08 -6.32710675e-32)
1.78899         	(2.46483378e-04 -2.05078788e-08 -6.32926224e-32)
1.79817         	(2.44418885e-04 -2.75591640e-08 -6.33245669e-32)
1.80734         	(2.42392223e-04 -1.07908799e-08 -6.33390149e-32)
1.81651         	(2.40402512e-04 -8.22835799e-09 -6.33693379e-32)
1.82569         	(2.38448898e-04 -8.25303972e-09 -6.33770786e-32)
1.83486         	(2.36530548e-04 -1.46448668e-08 -6.33925015e-32)
1.84404         	(2.34646653e-04 -9.09611695e-09 -6.34260645e-32)
1.85321         	(2.32796423e-04 -7.87796486e-09 -6.34430201e-32)
1.86239         	(2.30979092e-04 -7.78968613e-09 -6.34805027e-32)
1.87156         	(2.29193911e-04 -1.72578492e-08 -6.34891396e-32)
1.88073         	(2.27440153e-04 -8.44258628e-09 -6.35068336e-32)
1.88991         	(2.25717111e-04 -1.57942027e-08 -6.35305665e-32)
1.89908         	(2.24024095e-04 -7.43811619e-09 -6.35643044e-32)
1.90826         	(2.22360434e-04 -7.35800623e-09 -6.35903493e-32)
1.91743         	(2.20725474e-04 -1.86733197e-08 -6.36117711e-32)
1.92661         	(2.19118578e-04 -1.74238621e-08 -6.36262286e-32)
1.93578         	(2.17539128e-04 -9.97441744e-09 -6.36504260e-32)
1.94495         	(2.15986521e-04 -3.31475072e-08 -6.36869536e-32)
1.95413         	(2.14460168e-04 -1.09267120e-08 -6.37078194e-32)
1.9633          	(2.12959497e-04 -6.87336695e-09 -6.37387052e-32)
1.97248         	(2.11483951e-04 -6.79200862e-09 -6.37539838e-32)
1.98165         	(2.10032989e-04 -5.38708236e-08 -6.37745465e-32)
1.99083         	(2.08606082e-04 -6.62868268e-09 -6.38090001e-32)
2               	(2.07202716e-04 -6.54670217e-09 -6.38305778e-32)
2.00917         	(2.05822390e-04 -6.46455054e-09 -6.38724747e-32)
2.01835         	(2.04464615e-04 -7.24381663e-09 -6.38865012e-32)
2.02752         	(2.03128917e-04 -6.30009409e-09 -6.39095714e-32)
2.0367          	(2.01814835e-04 -6.21753451e-09 -6.39363277e-32)
2.04587         	(2.00521917e-04 -6.96830197e-09 -6.39748587e-32)
2.05505         	(1.99249725e-04 -6.05180443e-09 -6.40059469e-32)
2.06422         	(1.97997831e-04 -5.96881555e-09 -6.40326776e-32)
2.07339         	(1.96765821e-04 -5.88575039e-09 -6.40529175e-32)
2.08257         	(1.95553290e-04 -1.75640914e-08 -6.40818838e-32)
2.09174         	(1.94359844e-04 -1.14647440e-08 -6.41239749e-32)
2.10092         	(1.93185100e-04 -5.63528472e-09 -6.41494730e-32)
2.11009         	(1.92028683e-04 -2.92422758e-08 -6.41869744e-32)
2.11927         	(1.90890231e-04 -1.22127499e-08 -6.42093033e-32)
2.12844         	(1.89769390e-04 -1.44816770e-08 -6.42346720e-32)
2.13761         	(1.88665817e-04 -1.10011359e-08 -6.42771699e-32)
2.14679         	(1.87579176e-04 -3.43892460e-08 -6.43033137e-32)
2.15596         	(1.86509142e-04 -2.80622215e-08 -6.43522829e-32)
2.16514         	(1.85455398e-04 -9.30012096e-09 -6.43734185e-32)
2.17431         	(1.84417635e-04 -9.99322719e-09 -6.44027604e-32)
2.18349         	(1.83395555e-04 -1.02222415e-08 -6.44413773e-32)
2.19266         	(1.82388867e-04 -2.10143695e-08 -6.44820863e-32)
2.20183         	(1.81397287e-04 -7.93427223e-09 -6.45229634e-32)
2.21101         	(1.80420539e-04 -3.03211154e-08 -6.45591643e-32)
2.22018         	(1.79458357e-04 -1.21160513e-08 -6.45846646e-32)
2.22936         	(1.78510482e-04 -2.69565691e-08 -6.46225129e-32)
2.23853         	(1.77576662e-04 -4.46670391e-09 -6.46783686e-32)
2.24771         	(1.76656651e-04 -4.38964153e-09 -6.47043675e-32)
2.25688         	(1.75750214e-04 -6.15119655e-09 -6.47584835e-32)
2.26606         	(1.74857119e-04 -4.23530530e-09 -6.47853757e-32)
2.27523         	(1.73977145e-04 -4.15806615e-09 -6.48209866e-32)
2.2844          	(1.73110075e-04 -4.08058628e-09 -6.48770824e-32)
2.29358         	(1.72255700e-04 -4.00302532e-09 -6.49112987e-32)
2.30275         	(1.71413818e-04 -3.92534052e-09 -6.49711629e-32)
2.31193         	(1.70584233e-04 -3.84767656e-09 -6.50052421e-32)
2.3211          	(1.69766755e-04 -3.77002475e-09 -6.50412971e-32)
2.33028         	(1.68961203e-04 -3.69993761e-09 -6.50954317e-32)
2.33945         	(1.68167400e-04 -4.01153223e-09 -6.51458820e-32)
2.34862         	(1.67385177e-04 -3.55942828e-09 -6.51978351e-32)
2.3578          	(1.66614370e-04 -3.48914111e-09 -6.52459146e-32)
2.36697         	(1.65854820e-04 -3.41885294e-09 -6.52890300e-32)
2.37615         	(1.65106378e-04 -3.34844898e-09 -6.53366013e-32)
2.38532         	(1.64368899e-04 -7.87683521e-08 -6.54026214e-32)
2.3945          	(1.63642243e-04 -1.01058613e-08 -6.54414984e-32)
2.40367         	(1.62926277e-04 -3.13659914e-09 -6.55129005e-32)
2.41284         	(1.62220874e-04 -3.06596455e-09 -6.55533273e-32)
2.42202         	(1.61525913e-04 -2.99528544e-09 -6.56003961e-32)
2.43119         	(1.60841278e-04 -2.92442645e-09 -6.56680569e-32)
2.44037         	(1.60166860e-04 -2.85348843e-09 -6.57191137e-32)
2.44954         	(1.59502555e-04 -2.78248335e-09 -6.57916690e-32)
2.45872         	(1.58848264e-04 -5.47479316e-09 -6.58397853e-32)
2.46789         	(1.58203896e-04 -2.64052860e-09 -6.58926652e-32)
2.47706         	(1.57569362e-04 -2.57050316e-09 -6.59597238e-32)
2.48624         	(1.56944583e-04 -2.50644003e-09 -6.60260506e-32)
2.49541         	(1.56329482e-04 -2.44238928e-09 -6.60881806e-32)
2.50459         	(1.55723990e-04 -2.37832322e-09 -6.61550393e-32)
2.51376         	(1.55128040e-04 -2.31426860e-09 -6.62093918e-32)
2.52294         	(1.54541574e-04 -2.25013944e-09 -6.62713439e-32)
2.53211         	(1.53964539e-04 -2.18584307e-09 -6.63495889e-32)
2.54128         	(1.53396885e-04 -2.12157766e-09 -6.64030144e-32)
2.55046         	(1.52838570e-04 -5.06799752e-07 -6.64874321e-32)
2.55963         	(1.52289554e-04 -4.40269269e-06 -6.65397881e-32)
2.56881         	(1.51749806e-04 -8.52646220e-06 -6.66024597e-32)
2.57798         	(1.51219297e-04 -1.27227146e-05 -6.66771293e-32)
2.58716         	(1.50698005e-04 -1.72180561e-05 -6.67471130e-32)
2.59633         	(1.50185909e-04 -2.23641294e-05 -6.68205821e-32)
2.6055          	(1.49682993e-04 -2.75087266e-05 -6.68854465e-32)
2.61468         	(1.49189245e-04 -3.27116398e-05 -6.69503714e-32)
2.62385         	(1.48704658e-04 -3.79767478e-05 -6.70225632e-32)
2.63303         	(1.48229227e-04 -4.32757244e-05 -6.71016672e-32)
2.6422          	(1.47763001e-04 -4.85978226e-05 -6.71621987e-32)
2.65138         	(1.47305979e-04 -5.44105463e-05 -6.72438153e-32)
2.66055         	(1.46858169e-04 -6.05012674e-05 -6.73014586e-32)
2.66972         	(1.46419590e-04 -6.65546866e-05 -6.73696666e-32)
2.6789          	(1.45990266e-04 -7.25858183e-05 -6.74495139e-32)
2.68807         	(1.45570225e-04 -7.85932355e-05 -6.75120959e-32)
2.69725         	(1.45159500e-04 -8.45970283e-05 -6.75978735e-32)
2.70642         	(1.44758125e-04 -9.05940097e-05 -6.76544368e-32)
2.7156          	(1.44366140e-04 -9.65812042e-05 -6.77211584e-32)
2.72477         	(1.43983588e-04 -1.03049556e-04 -6.77938154e-32)
2.73394         	(1.43610515e-04 -1.09492471e-04 -6.78670115e-32)
2.74312         	(1.43246970e-04 -1.15913068e-04 -6.79372399e-32)
2.75229         	(1.42893005e-04 -1.22310193e-04 -6.80092289e-32)
2.76147         	(1.42548674e-04 -1.28678291e-04 -6.80670016e-32)
2.77064         	(1.42214034e-04 -1.35011364e-04 -6.81329334e-32)
2.77982         	(1.41889142e-04 -1.41305757e-04 -6.82109239e-32)
2.78899         	(1.41574058e-04 -1.47557644e-04 -6.82663231e-32)
2.79817         	(1.41268843e-04 -1.53761730e-04 -6.83467678e-32)
2.80734         	(1.40973559e-04 -1.59913528e-04 -6.83978654e-32)
2.81651         	(1.40688265e-04 -1.66083893e-04 -6.84565497e-32)
2.82569         	(1.40413022e-04 -1.72586400e-04 -6.85247291e-32)
2.83486         	(1.40147891e-04 -1.78981057e-04 -6.85899669e-32)
2.84404         	(1.39892928e-04 -1.85284636e-04 -6.86529803e-32)
2.85321         	(1.39648190e-04 -1.91503524e-04 -6.87134389e-32)
2.86239         	(1.39413729e-04 -1.97638200e-04 -6.87687398e-32)
2.87156         	(1.39189594e-04 -2.03688373e-04 -6.88249298e-32)
2.88073         	(1.38975830e-04 -2.09652628e-04 -6.88949650e-32)
2.88991         	(1.38772476e-04 -2.15522371e-04 -6.89378882e-32)
2.89908         	(1.38579567e-04 -2.21556100e-04 -6.90115691e-32)
2.90826         	(1.38397130e-04 -2.28189234e-04 -6.90525876e-32)
2.91743         	(1.38225185e-04 -2.34723436e-04 -6.90991264e-32)
2.92661         	(1.38063746e-04 -2.41172525e-04 -6.91596429e-32)
2.93578         	(1.37912815e-04 -2.47541946e-04 -6.92142291e-32)
2.94495         	(1.37772387e-04 -2.53832116e-04 -6.92655270e-32)
2.95413         	(1.37642449e-04 -2.60041826e-04 -6.93166493e-32)
2.9633          	(1.37522976e-04 -2.66172036e-04 -6.93586640e-32)
2.97248         	(1.37413931e-04 -2.72223903e-04 -6.94042632e-32)
2.98165         	(1.37315268e-04 -2.78198310e-04 -6.94642079e-32)
2.99083         	(1.37226929e-04 -2.84102405e-04 -6.94958971e-32)
3               	(1.37148844e-04 -2.89931036e-04 -6.95589285e-32)
3.00917         	(1.37080932e-04 -2.95678293e-04 -6.95897467e-32)
3.01835         	(1.37023098e-04 -3.01330916e-04 -6.96223038e-32)
3.02752         	(1.36975237e-04 -3.06889976e-04 -6.96747069e-32)
3.0367          	(1.36937230e-04 -3.12362863e-04 -6.97125791e-32)
3.04587         	(1.36908947e-04 -3.17749154e-04 -6.97622053e-32)
3.05505         	(1.36890245e-04 -3.23051469e-04 -6.97954533e-32)
3.06422         	(1.36880971e-04 -3.28268120e-04 -6.98288822e-32)
3.07339         	(1.36880957e-04 -3.33395968e-04 -6.98614264e-32)
3.08257         	(1.36890029e-04 -3.38433132e-04 -6.99144736e-32)
3.09174         	(1.36907996e-04 -3.43379008e-04 -6.99361274e-32)
3.10092         	(1.36934661e-04 -3.48235074e-04 -6.99890859e-32)
3.11009         	(1.36969814e-04 -3.53003688e-04 -7.00092504e-32)
3.11927         	(1.37013238e-04 -3.57686486e-04 -7.00385304e-32)
3.12844         	(1.37064705e-04 -3.62329039e-04 -7.00786818e-32)
3.13761         	(1.37123977e-04 -3.67926718e-04 -7.01087005e-32)
3.14679         	(1.37190811e-04 -3.73421917e-04 -7.01514752e-32)
3.15596         	(1.37264953e-04 -3.78834042e-04 -7.01755493e-32)
3.16514         	(1.37346146e-04 -3.84172022e-04 -7.01986688e-32)
3.17431         	(1.37434122e-04 -3.89436415e-04 -7.02282804e-32)
3.18349         	(1.37528610e-04 -3.94625663e-04 -7.02718493e-32)
3.19266         	(1.37629332e-04 -3.99738530e-04 -7.02883622e-32)
3.20183         	(1.37736007e-04 -4.04773941e-04 -7.03334230e-32)
3.21101         	(1.37848349e-04 -4.09730383e-04 -7.03481357e-32)
3.22018         	(1.37966067e-04 -4.14606159e-04 -7.03726228e-32)
3.22936         	(1.38088870e-04 -4.19400305e-04 -7.04053212e-32)
3.23853         	(1.38216462e-04 -4.24112845e-04 -7.04321485e-32)
3.24771         	(1.38348546e-04 -4.28744602e-04 -7.04699926e-32)
3.25688         	(1.38484826e-04 -4.33297775e-04 -7.04893297e-32)
3.26606         	(1.38625003e-04 -4.37774680e-04 -7.05073283e-32)
3.27523         	(1.38768778e-04 -4.42177249e-04 -7.05336307e-32)
3.2844          	(1.38915855e-04 -4.46508475e-04 -7.05706062e-32)
3.29358         	(1.39065936e-04 -4.50771071e-04 -7.05857292e-32)
3.30275         	(1.39218726e-04 -4.54967328e-04 -7.06270678e-32)
3.31193         	(1.39373933e-04 -4.59100041e-04 -7.06391687e-32)
3.3211          	(1.39531268e-04 -4.63171782e-04 -7.06605605e-32)
3.33028         	(1.39690442e-04 -4.67188750e-04 -7.06893815e-32)
3.33945         	(1.39851172e-04 -4.71150054e-04 -7.07150007e-32)
3.34862         	(1.40013179e-04 -4.75055581e-04 -7.07504202e-32)
3.3578          	(1.40176187e-04 -4.78905632e-04 -7.07679922e-32)
3.36697         	(1.40339926e-04 -4.82695534e-04 -7.07844530e-32)
3.37615         	(1.40504131e-04 -4.86419607e-04 -7.08088695e-32)
3.38532         	(1.40668541e-04 -4.90085060e-04 -7.08443964e-32)
3.3945          	(1.40832901e-04 -4.93694809e-04 -7.08588846e-32)
3.40367         	(1.40996964e-04 -4.97248799e-04 -7.08990258e-32)
3.41284         	(1.41160487e-04 -5.00746453e-04 -7.09104930e-32)
3.42202         	(1.41323234e-04 -5.04186959e-04 -7.09303174e-32)
3.43119         	(1.41484977e-04 -5.07570141e-04 -7.09564129e-32)
3.44037         	(1.41645492e-04 -5.10896281e-04 -7.09854018e-32)
3.44954         	(1.41804565e-04 -5.14165662e-04 -7.10180836e-32)
3.45872         	(1.41961989e-04 -5.17379448e-04 -7.10360896e-32)
3.46789         	(1.42117563e-04 -5.20539384e-04 -7.10517244e-32)
3.47706         	(1.42271093e-04 -5.23646989e-04 -7.10755584e-32)
3.48624         	(1.42422396e-04 -5.26702944e-04 -7.11104515e-32)
3.49541         	(1.42571294e-04 -5.29708269e-04 -7.11251657e-32)
3.50459         	(1.42717616e-04 -5.32662358e-04 -7.11655993e-32)
3.51376         	(1.42861201e-04 -5.35564657e-04 -7.11769213e-32)
3.52294         	(1.43001896e-04 -5.38414697e-04 -7.11958748e-32)
3.53211         	(1.42951224e-04 -5.41212427e-04 -7.12253164e-32)
3.54128         	(1.42895982e-04 -5.43958416e-04 -7.12501237e-32)
3.55046         	(1.42841877e-04 -5.46658785e-04 -7.12847915e-32)
3.55963         	(1.42788887e-04 -5.49309066e-04 -7.13033618e-32)
3.56881         	(1.42736985e-04 -5.51907459e-04 -7.13192105e-32)
3.57798         	(1.42686147e-04 -5.54454952e-04 -7.13425351e-32)
3.58716         	(1.42636350e-04 -5.56952138e-04 -7.13794088e-32)
3.59633         	(1.42587569e-04 -5.59400355e-04 -7.13938752e-32)
3.6055          	(1.42539784e-04 -5.61799143e-04 -7.14357672e-32)
3.61468         	(1.42492972e-04 -5.64146956e-04 -7.14478154e-32)
3.62385         	(1.42447109e-04 -5.66445814e-04 -7.14675466e-32)
3.63303         	(1.42402175e-04 -5.68696607e-04 -7.14972258e-32)
3.6422          	(1.42358149e-04 -5.70899468e-04 -7.15234910e-32)
3.65138         	(1.42315010e-04 -5.73667223e-04 -7.15586661e-32)
3.66055         	(1.42272739e-04 -5.76527430e-04 -7.15787181e-32)
3.66972         	(1.42231315e-04 -5.79337610e-04 -7.15951118e-32)
3.6789          	(1.42190719e-04 -5.82105083e-04 -7.16187286e-32)
3.68807         	(1.42150932e-04 -5.84832603e-04 -7.16558201e-32)
3.69725         	(1.42111936e-04 -5.87520753e-04 -7.16714819e-32)
3.70642         	(1.42073713e-04 -5.90170084e-04 -7.17139445e-32)
3.7156          	(1.42036244e-04 -5.92781177e-04 -7.17266641e-32)
3.72477         	(1.41999512e-04 -5.95354506e-04 -7.17467944e-32)
3.73394         	(1.41963501e-04 -5.97891148e-04 -7.17756238e-32)
3.74312         	(1.41928194e-04 -6.00391545e-04 -7.18031614e-32)
3.75229         	(1.41893573e-04 -6.02856359e-04 -7.18375411e-32)
3.76147         	(1.41859625e-04 -6.05286685e-04 -7.18583905e-32)
3.77064         	(1.41826332e-04 -6.07682839e-04 -7.18739936e-32)
3.77982         	(1.41793679e-04 -6.10045804e-04 -7.18972979e-32)
3.78899         	(1.41761652e-04 -6.12375888e-04 -7.19329725e-32)
3.79817         	(1.41730236e-04 -6.14673182e-04 -7.19492752e-32)
3.80734         	(1.41699416e-04 -6.16938599e-04 -7.19904270e-32)
3.81651         	(1.41669180e-04 -6.19171973e-04 -7.20032557e-32)
3.82569         	(1.41639429e-04 -6.21374326e-04 -7.20223490e-32)
3.83486         	(1.41604434e-04 -6.23545341e-04 -7.20495895e-32)
3.84404         	(1.41570041e-04 -6.25686287e-04 -7.20785878e-32)
3.85321         	(1.41536235e-04 -6.27799642e-04 -7.21113491e-32)
3.86239         	(1.41503007e-04 -6.29884174e-04 -7.21334142e-32)
3.87156         	(1.41470343e-04 -6.31938834e-04 -7.21485630e-32)
3.88073         	(1.41438231e-04 -6.33964111e-04 -7.21715664e-32)
3.88991         	(1.41406661e-04 -6.35959869e-04 -7.22072012e-32)
3.89908         	(1.41375619e-04 -6.37926762e-04 -7.22245298e-32)
3.90826         	(1.41345096e-04 -6.39864967e-04 -7.22642602e-32)
3.91743         	(1.41315081e-04 -6.41774222e-04 -7.22782886e-32)
3.92661         	(1.41285562e-04 -6.43655541e-04 -7.22966336e-32)
3.93578         	(1.41256529e-04 -6.45508954e-04 -7.23212060e-32)
3.94495         	(1.41227973e-04 -6.47334635e-04 -7.23549525e-32)
3.95413         	(1.41199880e-04 -6.49132832e-04 -7.23844768e-32)
3.9633          	(1.41172246e-04 -6.50904158e-04 -7.24102161e-32)
3.97248         	(1.41145058e-04 -6.52648523e-04 -7.24208139e-32)
3.98165         	(1.41118306e-04 -6.54365810e-04 -7.24457673e-32)
3.99083         	(1.41091982e-04 -6.56056533e-04 -7.24814641e-32)
4               	(1.41066076e-04 -6.57721425e-04 -7.24994763e-32)