/*--------------------------------*- C++ -*----------------------------------*\
| =========                 |                                                 |
| \\      /  F ield         | OpenFOAM: The Open Source CFD Toolbox           |
|  \\    /   O peration     | Version:  2206                                  |
|   \\  /    A nd           | Website:  www.openfoam.com                      |
|    \\/     M anipulation  |                                                 |
\*---------------------------------------------------------------------------*/
FoamFile
{
    version     2.0;
    format      ascii;
    arch        "LSB;label=32;scalar=64";
    class       volVectorField;
    location    "800";
    object      U;
}
// * * * * * * * * * * * * * * * * * * * * * * * * * * * * * * * * * * * * * //

dimensions      [0 1 -1 0 0 0 0];

internalField   nonuniform List<vector> 
3000
(
(1.00514458058 -0.000744522705848 -2.80561558161e-13)
(1.00519974501 -0.00170310632629 -9.59134577729e-14)
(1.00531043585 -0.00269826283399 -6.30370422229e-14)
(1.00546243557 -0.00365899422544 -4.90628793072e-14)
(1.00564683019 -0.00457985139381 -3.89015903387e-14)
(1.00585649185 -0.00546342722149 -3.42372505571e-14)
(1.00608551792 -0.00631206599348 -2.97757712257e-14)
(1.00632890799 -0.00712708042257 -2.7377013371e-14)
(1.00658237121 -0.0079089914683 -2.57293482198e-14)
(1.00684220526 -0.00865780863814 -2.41075813839e-14)
(1.00710521504 -0.00937326445994 -2.29185509074e-14)
(1.00736865455 -0.0100549961296 -2.1362025941e-14)
(1.00763018162 -0.010702677785 -2.23818921377e-14)
(1.00788782059 -0.011316111306 -1.81744035362e-14)
(1.00813993925 -0.0118952842332 -2.09699492988e-14)
(1.00838525053 -0.0124404027859 -1.89939410261e-14)
(1.00862271865 -0.0129519031656 -2.01841620537e-14)
(1.00885085624 -0.0134304281663 -2.42789207335e-14)
(1.00906629155 -0.0138767537746 -2.28932510638e-14)
(1.00926649507 -0.0142918094358 -1.13379165039e-14)
(1.00947305484 -0.0146774029245 -1.56307097502e-14)
(1.0097901034 -0.0150381337862 -2.52224073527e-14)
(1.01043763909 -0.0153812308444 -1.55483574865e-14)
(1.01149155889 -0.0157035996817 -7.74352939042e-15)
(1.01178906063 -0.0159580706889 -2.50493538129e-14)
(1.00640478836 -0.0160112342509 -2.22847413806e-14)
(0.982512281327 -0.0155819836085 -2.18017932225e-14)
(0.91370681667 -0.0140618328098 -1.41637164272e-14)
(0.75065883322 -0.0103476457079 -8.03127769906e-15)
(0.396854543207 -0.00366081918168 -1.03306077181e-14)
(1.02739406077 -0.000572460173059 -7.25804602226e-13)
(1.02756270324 -0.00131409350835 -2.69260712963e-13)
(1.027903575 -0.00205341167996 -1.7269233925e-13)
(1.02836903452 -0.002744382834 -1.29526061399e-13)
(1.02892964844 -0.00337624342104 -1.03111688198e-13)
(1.02956199524 -0.00395211505773 -9.30329933383e-14)
(1.03024694395 -0.0044756765552 -7.75016169178e-14)
(1.0309686355 -0.00495116960118 -7.16045350005e-14)
(1.03171385078 -0.00538312021309 -6.58064501578e-14)
(1.03247156688 -0.00577607826666 -5.77034278289e-14)
(1.03323262074 -0.00613446712539 -5.97412871569e-14)
(1.03398944227 -0.0064624852344 -4.77114558257e-14)
(1.03473583497 -0.00676403766898 -5.79410885426e-14)
(1.03546679823 -0.00704269039573 -4.01413427385e-14)
(1.03617839762 -0.00730164324385 -4.96756059811e-14)
(1.03686756915 -0.00754371771759 -4.56402460933e-14)
(1.03753131983 -0.00777134927901 -4.75816110438e-14)
(1.03816530668 -0.00798657315416 -5.54676077397e-14)
(1.03876818296 -0.00819106359753 -5.6180075301e-14)
(1.03937125704 -0.00838650173759 -2.87308089551e-14)
(1.04009628061 -0.00857557356484 -3.57798388329e-14)
(1.04109861044 -0.00876193594228 -5.43775706736e-14)
(1.04192554748 -0.00894100791089 -3.82545064546e-14)
(1.03959084349 -0.0090689365728 -2.57072173607e-14)
(1.0252489452 -0.00901810451989 -5.23185904922e-14)
(0.981179745672 -0.00856999173924 -4.79414010499e-14)
(0.881876216537 -0.00747530909849 -4.15834559633e-14)
(0.703343563578 -0.00554013740507 -2.68594664858e-14)
(0.44225735083 -0.00283907212677 -1.32002747832e-14)
(0.139647664065 -0.000247218215822 -7.48993312042e-15)
(1.04476400268 -0.000294306558232 -9.38840856907e-13)
(1.04492110378 -0.000684130957278 -3.71514454223e-13)
(1.04523857595 -0.00106506517121 -2.33113305949e-13)
(1.04567053242 -0.00143628829793 -1.63266384843e-13)
(1.04618902529 -0.00178623612458 -1.39634795225e-13)
(1.04677177085 -0.0021184548341 -1.17457828818e-13)
(1.04740072934 -0.00243415965448 -1.05080936849e-13)
(1.04806109901 -0.00273466732126 -9.75401084831e-14)
(1.04874071359 -0.0030211083637 -8.99098493756e-14)
(1.04942959267 -0.00329435380028 -7.85549708969e-14)
(1.05011958534 -0.00355505142969 -8.00835062397e-14)
(1.05080408081 -0.00380366534236 -6.62584918491e-14)
(1.05147777054 -0.00404051685213 -7.6166938838e-14)
(1.05213646605 -0.0042658254338 -5.12253045796e-14)
(1.0527769469 -0.0044797469533 -6.63851237455e-14)
(1.05339650114 -0.00468240264021 -6.24436344102e-14)
(1.05399160581 -0.00487388663804 -6.60125741281e-14)
(1.05455897287 -0.00505429655729 -7.50734668747e-14)
(1.05511477092 -0.0052240070768 -7.03207988377e-14)
(1.05574408032 -0.00538429301625 -4.44780802101e-14)
(1.05657215969 -0.00553679178515 -5.20243652204e-14)
(1.05722131333 -0.00567651101584 -6.71957857752e-14)
(1.05505233123 -0.00577094249664 -5.21480624425e-14)
(1.04213219955 -0.00572874502248 -4.5355070333e-14)
(1.00295313074 -0.00539161318273 -6.3536015666e-14)
(0.916976611813 -0.0045988670591 -5.75089575827e-14)
(0.768905690321 -0.00332334123869 -4.54104885491e-14)
(0.563372890361 -0.00180155812042 -3.0014235586e-14)
(0.330956354885 -0.000545069416755 -1.50171162047e-14)
(0.107742004256 -3.94265940588e-06 -4.92914033463e-15)
(1.052706044 -0.000287045120493 -1.06495351567e-12)
(1.05284838597 -0.000671771084623 -4.5670920208e-13)
(1.05313558708 -0.00104710943031 -2.8446322709e-13)
(1.05352718419 -0.00141094547309 -1.9801401611e-13)
(1.05399883747 -0.00174633276909 -1.69757960113e-13)
(1.05453096837 -0.00205805722979 -1.44812829638e-13)
(1.05510768825 -0.00234652807097 -1.27627692833e-13)
(1.05571581067 -0.00261295345699 -1.16891164753e-13)
(1.05634434607 -0.00285848721745 -1.0825374908e-13)
(1.05698412666 -0.0030842385871 -9.6050350786e-14)
(1.05762752059 -0.00329131049067 -9.54867398562e-14)
(1.05826820676 -0.00348080312335 -8.11578106548e-14)
(1.0589009971 -0.0036538143112 -8.90571385496e-14)
(1.05952170789 -0.00381143659007 -6.92085712607e-14)
(1.06012695669 -0.00395475086476 -7.9541384264e-14)
(1.06071338033 -0.00408481123591 -7.6854485636e-14)
(1.06127697415 -0.00420262198937 -8.13149918047e-14)
(1.06182154534 -0.00430921560706 -8.77779562668e-14)
(1.06239246619 -0.00440605923582 -7.91340379743e-14)
(1.06308597078 -0.00449517956763 -5.78431831988e-14)
(1.06372622706 -0.00457534744069 -6.5498136147e-14)
(1.06257812057 -0.00462799231259 -7.53310225764e-14)
(1.05381285493 -0.00459360776895 -6.28066572577e-14)
(1.02522459939 -0.00436151931842 -5.92062314431e-14)
(0.95979140463 -0.00381145914845 -6.82919896805e-14)
(0.843738488541 -0.00291404137813 -5.97820388633e-14)
(0.677905350848 -0.00182301094145 -4.53004526776e-14)
(0.481936368159 -0.000847836763141 -3.05001812717e-14)
(0.282001679737 -0.000250609889819 -1.64169261209e-14)
(0.0922358211498 -1.51502860082e-05 -5.43614934178e-15)
(1.05842793217 -0.000243669755088 -1.16130484226e-12)
(1.05857363262 -0.000574950795902 -5.29892706305e-13)
(1.05886701535 -0.00089335136152 -3.28651502488e-13)
(1.0592670067 -0.00120030734964 -2.30522635562e-13)
(1.05974834717 -0.00147775754178 -1.95205307804e-13)
(1.06029068252 -0.00173282579773 -1.67507485976e-13)
(1.06087756024 -0.00196565402907 -1.46444049379e-13)
(1.06149533857 -0.00217814672691 -1.33636370426e-13)
(1.06213269199 -0.00237199414641 -1.23014445819e-13)
(1.06278021727 -0.00254880896929 -1.10454684665e-13)
(1.06343013431 -0.00271011452955 -1.07727451065e-13)
(1.06407604833 -0.00285732093665 -9.28302363335e-14)
(1.06471276434 -0.00299172143732 -9.93496624466e-14)
(1.06533613177 -0.00311449424513 -8.12339226507e-14)
(1.06594267414 -0.00322670565126 -8.93860119498e-14)
(1.06652871191 -0.00332930864231 -8.90940457154e-14)
(1.06709231275 -0.0034231637993 -9.34836941721e-14)
(1.06765084316 -0.0035092260093 -9.66705831869e-14)
(1.06826696459 -0.00358886255072 -8.61816002057e-14)
(1.06891761719 -0.00366254602561 -6.86231861324e-14)
(1.06871748736 -0.00372201325798 -7.47082397173e-14)
(1.06399936838 -0.00373281150061 -8.15373336688e-14)
(1.04595354646 -0.00361963221838 -7.10936171035e-14)
(1.00063377935 -0.00328533931336 -6.76976569923e-14)
(0.914301203835 -0.00268030981528 -6.99367182855e-14)
(0.782707132868 -0.00187993044494 -5.94293887114e-14)
(0.616615355128 -0.00108180844252 -4.45009300184e-14)
(0.435827272026 -0.000482599416165 -3.02689342356e-14)
(0.256146575609 -0.000143785645413 -1.68556747399e-14)
(0.0842632978183 -6.14198594839e-06 -5.52553823485e-15)
(1.06474587045 -0.000197206062118 -1.21808045905e-12)
(1.0648900113 -0.000467611537621 -5.89337546683e-13)
(1.06518000965 -0.000724234606049 -3.59740933002e-13)
(1.06557530173 -0.000975919693248 -2.56883905045e-13)
(1.0660507534 -0.00120431857199 -2.15706592101e-13)
(1.06658619147 -0.00141751724505 -1.8516197519e-13)
(1.06716536659 -0.00161431554011 -1.61663155336e-13)
(1.06777481165 -0.00179634200797 -1.47258232337e-13)
(1.06840337834 -0.00196465636813 -1.34825141575e-13)
(1.06904183038 -0.00212029431117 -1.22182847414e-13)
(1.06968254134 -0.00226422502429 -1.17603207059e-13)
(1.0703192552 -0.00239734024845 -1.0346261483e-13)
(1.07094690116 -0.00252046214573 -1.06118504426e-13)
(1.07156139638 -0.0026343484002 -9.11146777438e-14)
(1.07215912856 -0.00273969374136 -9.79270141668e-14)
(1.0727366204 -0.00283713082409 -9.96059972631e-14)
(1.07329674691 -0.00292729259093 -1.02642145699e-13)
(1.07387011591 -0.00301103783179 -1.04501636759e-13)
(1.07449074476 -0.00308925657032 -9.27131642164e-14)
(1.07482349861 -0.00315932899508 -7.86762362422e-14)
(1.07290785823 -0.00320389835869 -8.27395571675e-14)
(1.06302274992 -0.00317543381101 -8.68253633213e-14)
(1.03444213754 -0.00299767760182 -7.74601653113e-14)
(0.974077450575 -0.0026071590042 -7.32966784446e-14)
(0.873599807545 -0.00201914458692 -7.03121716117e-14)
(0.736132456891 -0.00135306342024 -5.81870263674e-14)
(0.57531950155 -0.000766747222512 -4.42312344241e-14)
(0.406517900378 -0.000351735282882 -3.01113272139e-14)
(0.239620384322 -0.000110220489706 -1.69361438903e-14)
(0.0791579676494 -6.39204509583e-06 -5.52835863958e-15)
(1.07071292256 -0.000182250438464 -1.25500210003e-12)
(1.07085484384 -0.000431555340983 -6.41545056201e-13)
(1.07113989367 -0.000667199481963 -3.8498118802e-13)
(1.07152853847 -0.000900166327071 -2.80153229786e-13)
(1.07199622013 -0.0011111064142 -2.3374390196e-13)
(1.07252324909 -0.00130880200107 -2.00580180544e-13)
(1.07309374679 -0.00149118144685 -1.75099586417e-13)
(1.07369451147 -0.00166007350553 -1.5928163322e-13)
(1.07431459676 -0.001816295911 -1.45543683425e-13)
(1.07494490655 -0.00196077469803 -1.32545192575e-13)
(1.0755779079 -0.002094376276 -1.26354475824e-13)
(1.07620740391 -0.00221790707554 -1.12690012612e-13)
(1.07682835342 -0.00233212069993 -1.13100819356e-13)
(1.07743661617 -0.00243771829129 -1.00062319212e-13)
(1.07802841478 -0.00253534619706 -1.04933690202e-13)
(1.07860139774 -0.00262560649625 -1.06642753787e-13)
(1.07916521946 -0.00270916385833 -1.10245096956e-13)
(1.07975232065 -0.00278688399495 -1.09813971863e-13)
(1.08028714196 -0.00285868032181 -9.88165224309e-14)
(1.07990280935 -0.00291748845901 -8.65368417398e-14)
(1.07532795854 -0.00293664917415 -9.07200477556e-14)
(1.05907252174 -0.00286134397474 -9.15618859845e-14)
(1.01982625489 -0.00262655615785 -8.2119791681e-14)
(0.947049668146 -0.00220672574968 -7.61791461812e-14)
(0.837663443022 -0.00165786847223 -7.02370161678e-14)
(0.698859263437 -0.00109803147604 -5.75168610338e-14)
(0.543610121468 -0.000631530373625 -4.33546991832e-14)
(0.383543974246 -0.000298897182446 -2.96811328539e-14)
(0.225958048592 -9.73167070413e-05 -1.67677661457e-14)
(0.0746015594962 -6.42882416346e-06 -5.46448981257e-15)
(1.0759495957 -0.000172815124873 -1.28164173942e-12)
(1.07609154283 -0.000409230254024 -6.89607889712e-13)
(1.07637607789 -0.000632417164102 -4.12097796969e-13)
(1.07676404591 -0.000853539046271 -3.01633026742e-13)
(1.07723094885 -0.00105266864616 -2.50456025332e-13)
(1.07775715958 -0.00123936847572 -2.14748646922e-13)
(1.07832683755 -0.00141100125131 -1.8755510812e-13)
(1.0789268015 -0.00156974451578 -1.70369765094e-13)
(1.07954612472 -0.00171627792774 -1.57518018936e-13)
(1.08017572077 -0.00185155915468 -1.42067389388e-13)
(1.08080806296 -0.00197644552196 -1.34649819082e-13)
(1.08143695949 -0.00209173237711 -1.22524290864e-13)
(1.08205736043 -0.00219815859196 -1.21683971085e-13)
(1.08266503649 -0.00229640585831 -1.08332087834e-13)
(1.08325627903 -0.00238709916819 -1.14461007539e-13)
(1.08383110622 -0.00247083805898 -1.14723985387e-13)
(1.08440513937 -0.00254832474024 -1.17001112607e-13)
(1.08498564707 -0.00262021687425 -1.1529576564e-13)
(1.08527786607 -0.00268465336368 -1.04508284825e-13)
(1.08368408201 -0.00272918732142 -9.22282525608e-14)
(1.07557588234 -0.00271949627426 -9.52931222713e-14)
(1.05226247892 -0.00260041821877 -9.58768483355e-14)
(1.0030277588 -0.00232550494558 -8.59129944708e-14)
(0.92053252153 -0.00190125973868 -7.91794306831e-14)
(0.805715401379 -0.00140080392459 -7.10597869236e-14)
(0.667405337099 -0.000922221589637 -5.7547254791e-14)
(0.517039737871 -0.000532042517188 -4.22868504538e-14)
(0.363942451799 -0.000252202104028 -2.909796686e-14)
(0.214073394778 -8.16355607361e-05 -1.66705040698e-14)
(0.0705802105691 -5.05295322055e-06 -5.75822229754e-15)
(1.08077082177 -0.000161520070646 -1.29953532773e-12)
(1.08091303875 -0.000382938293453 -7.3387328804e-13)
(1.08119769438 -0.000591560428663 -4.39555798006e-13)
(1.08158584968 -0.000798922486122 -3.21534012105e-13)
(1.08205295842 -0.000985052278864 -2.65968318322e-13)
(1.08257939122 -0.00116007817349 -2.27838062671e-13)
(1.0831492993 -0.00132079405183 -1.99136332858e-13)
(1.0837494943 -0.00146961868984 -1.80561262348e-13)
(1.08436904917 -0.00160700821722 -1.61972854917e-13)
(1.08499887515 -0.00173390324043 -1.50831505385e-13)
(1.08563144595 -0.00185108624248 -1.4254787214e-13)
(1.08626057095 -0.00195929304167 -1.32964061088e-13)
(1.08688117848 -0.00205920741242 -1.27352547941e-13)
(1.08748896767 -0.00215145969618 -1.15945635298e-13)
(1.08808071306 -0.00223663249288 -1.20912947209e-13)
(1.08865966786 -0.00231531343974 -1.21619154945e-13)
(1.08924129872 -0.0023881831304 -1.23136138299e-13)
(1.08976396495 -0.00245534946859 -1.20763263333e-13)
(1.08959270367 -0.00251240644246 -1.10110595009e-13)
(1.08626641026 -0.00254136399774 -9.89366278474e-14)
(1.07394344601 -0.00250317398184 -1.00792569942e-13)
(1.04340610336 -0.00234834677126 -9.96307714266e-14)
(0.985335440724 -0.00205100011358 -8.8956852508e-14)
(0.895494603522 -0.00163977449014 -8.11391174385e-14)
(0.777491121506 -0.00118932739965 -7.17013445538e-14)
(0.640506713651 -0.000776110101939 -5.72466610795e-14)
(0.494566264432 -0.00044464999086 -4.23072790963e-14)
(0.347484548361 -0.000208916842263 -2.89388423643e-14)
(0.204215963964 -6.67801124331e-05 -1.65668747421e-14)
(0.0673095562972 -3.93540355941e-06 -5.56233651022e-15)
(1.08536311763 -0.000151847431361 -1.31014052689e-12)
(1.08550530659 -0.000360188204622 -7.7454556195e-13)
(1.08578956064 -0.000556089813102 -4.59912590417e-13)
(1.08617719744 -0.000751384652522 -3.39978353403e-13)
(1.08664368991 -0.000926257279549 -2.80416530249e-13)
(1.0871694646 -0.00109116967706 -2.40009455694e-13)
(1.08773870306 -0.00124242817073 -2.09937099533e-13)
(1.08833823972 -0.00138267436945 -1.90038861421e-13)
(1.08895716635 -0.00151215164303 -1.70126829188e-13)
(1.08958640505 -0.00163180493403 -1.58985096942e-13)
(1.09021843814 -0.00174234554001 -1.49847698826e-13)
(1.09084707756 -0.00184446312742 -1.39551743824e-13)
(1.09146722165 -0.00193879639164 -1.34289191329e-13)
(1.09207457466 -0.00202593414776 -1.22999679231e-13)
(1.09266690034 -0.00210642923236 -1.26403470496e-13)
(1.09325036143 -0.00218086468724 -1.27916823988e-13)
(1.0938271972 -0.00224981097628 -1.28630947091e-13)
(1.09420967153 -0.00231243823224 -1.24904497428e-13)
(1.09331022288 -0.00236124613904 -1.1532865637e-13)
(1.08775878108 -0.00237331791227 -1.05078112457e-13)
(1.07077596955 -0.00230819196857 -1.06313106182e-13)
(1.0332360466 -0.00212586924983 -1.02879954217e-13)
(0.967619595027 -0.00181901971674 -9.1203845532e-14)
(0.872325614672 -0.00142880036073 -8.15413154391e-14)
(0.752577785013 -0.00102383159175 -7.12453406153e-14)
(0.617350824431 -0.000663074372955 -5.68552162638e-14)
(0.475497682442 -0.000377930538271 -4.21921666135e-14)
(0.333679766691 -0.00017704701332 -2.87800680106e-14)
(0.196025373236 -5.66013067247e-05 -1.63655997112e-14)
(0.0646125682336 -3.40196073058e-06 -5.30668316843e-15)
(1.08973490107 -0.000144277493271 -1.31549813195e-12)
(1.08987707442 -0.000342259246359 -8.12227222725e-13)
(1.09016096895 -0.000528181733511 -4.83808175043e-13)
(1.09054813091 -0.000713899651296 -3.5729492552e-13)
(1.0910140586 -0.000879837416119 -2.94002917521e-13)
(1.09153923411 -0.00103664415628 -2.51447588637e-13)
(1.09210786479 -0.00118025808401 -2.20090585736e-13)
(1.09270680681 -0.00131353415283 -1.99019632059e-13)
(1.09332516872 -0.00143652870069 -1.76546436612e-13)
(1.09395388283 -0.00155021456934 -1.6666055181e-13)
(1.09458543937 -0.00165524302705 -1.56849128919e-13)
(1.09521364851 -0.00175227536051 -1.47583944473e-13)
(1.09583337918 -0.00184191747301 -1.40416593169e-13)
(1.09644048551 -0.00192472920068 -1.29627388949e-13)
(1.0970341405 -0.00200124775474 -1.32653131842e-13)
(1.09762105419 -0.00207204622125 -1.33589811917e-13)
(1.09816965362 -0.00213745155726 -1.33765014926e-13)
(1.09830128408 -0.00219531049568 -1.29779579634e-13)
(1.09638766505 -0.00223479196954 -1.20204544941e-13)
(1.08818757964 -0.00222924505021 -1.10083513795e-13)
(1.0663185446 -0.00213977825631 -1.10035290837e-13)
(1.02222489699 -0.00193746356736 -1.05585289362e-13)
(0.950280353372 -0.00162961020771 -9.31789165076e-14)
(0.850959911724 -0.00126269693328 -8.29866450723e-14)
(0.730392116422 -0.000896870114448 -7.17450246636e-14)
(0.597121142398 -0.000578032013459 -5.68481544165e-14)
(0.459009926623 -0.000328882494944 -4.21327461029e-14)
(0.32179369908 -0.000154237019355 -2.87994837457e-14)
(0.188966077699 -4.95048203867e-05 -1.65589165333e-14)
(0.0622754297032 -3.03638650747e-06 -5.69600906165e-15)
(1.09388964247 -0.000137811210356 -1.31697359035e-12)
(1.09403188271 -0.000326951445325 -8.47182689564e-13)
(1.09431560829 -0.000504435673507 -5.07686924878e-13)
(1.09470254821 -0.000681983004445 -3.73624198602e-13)
(1.09516821025 -0.000840333912498 -3.06884903859e-13)
(1.0956931143 -0.00099022381729 -2.62293552862e-13)
(1.0962614791 -0.00112731614094 -2.29752014888e-13)
(1.09686017371 -0.00125464534639 -2.07483331844e-13)
(1.0974783157 -0.00137209578974 -1.87164958485e-13)
(1.09810684243 -0.00148067491754 -1.73952608165e-13)
(1.09873824761 -0.00158097535962 -1.63652060406e-13)
(1.09936633305 -0.00167363743243 -1.53211275592e-13)
(1.09998595506 -0.00175923794141 -1.45649501462e-13)
(1.10059331304 -0.00183831397328 -1.35866750809e-13)
(1.10118905424 -0.00191139331197 -1.39760634223e-13)
(1.10177528666 -0.00197901030027 -1.39718441535e-13)
(1.10225909235 -0.00204107511281 -1.38717667747e-13)
(1.10200541762 -0.00209377938258 -1.35918655036e-13)
(1.09879131191 -0.00212305227542 -1.25010991104e-13)
(1.08760903008 -0.0021000032341 -1.15551630713e-13)
(1.06080854162 -0.00198959138356 -1.13301160491e-13)
(1.01072254913 -0.00177387241923 -1.07829572742e-13)
(0.933519989879 -0.00147061140986 -9.4662750917e-14)
(0.831236862339 -0.00112706405422 -8.32653123247e-14)
(0.710453451481 -0.000794917763507 -7.13057565147e-14)
(0.579202996753 -0.000510352730001 -5.62823163984e-14)
(0.444504585182 -0.000289936145465 -4.25237836326e-14)
(0.311352639834 -0.000135959222702 -2.89448328192e-14)
(0.182756069566 -4.36574451088e-05 -1.64981082074e-14)
(0.0602137103478 -2.67559015193e-06 -5.34373010787e-15)
(1.09785762964 -0.000132008269611 -1.31534202782e-12)
(1.09799995671 -0.000313215216494 -8.79617606795e-13)
(1.09828358406 -0.000483156261072 -5.15838431599e-13)
(1.09867039615 -0.000653355919649 -3.89077376271e-13)
(1.09913590593 -0.000804930910332 -3.19101510068e-13)
(1.09966066382 -0.000948622783758 -2.72617375535e-13)
(1.10022889482 -0.00107989210016 -2.38852784377e-13)
(1.10082747798 -0.0012019154445 -2.15481624679e-13)
(1.10144553654 -0.0013144221172 -1.93543144922e-13)
(1.10207401083 -0.00141845561371 -1.80800396621e-13)
(1.10270539524 -0.00151455053045 -1.70142928476e-13)
(1.10333347986 -0.00160333076588 -1.59704803513e-13)
(1.10395314936 -0.00168534567209 -1.51431896287e-13)
(1.1045611495 -0.00176111398623 -1.41887651026e-13)
(1.10515899457 -0.00183115387134 -1.43399906036e-13)
(1.10573577276 -0.00189591001753 -1.44957245166e-13)
(1.10610437192 -0.00195468276857 -1.43433214665e-13)
(1.10531401455 -0.00200177608499 -1.38503319134e-13)
(1.10053074253 -0.00202025347984 -1.29499109681e-13)
(1.08612913393 -0.00198051606552 -1.19906132368e-13)
(1.05449010168 -0.00185283048591 -1.17360539413e-13)
(0.999011307362 -0.00162913027154 -1.09844704296e-13)
(0.917462780812 -0.00133400238516 -9.57649902102e-14)
(0.813018107497 -0.00101295084487 -8.44409677038e-14)
(0.692426329363 -0.000710092166784 -7.08854331227e-14)
(0.563194460061 -0.00045423948513 -5.62068249362e-14)
(0.431622271271 -0.000257540552463 -4.2027244174e-14)
(0.302104643279 -0.000120626042316 -2.87329631095e-14)
(0.177263108026 -3.86950532169e-05 -1.63918943359e-14)
(0.0583923202121 -2.36314864234e-06 -5.29816012523e-15)
(1.10166648399 -0.000126826191381 -1.31129623488e-12)
(1.10180889224 -0.000300927103605 -9.09899531089e-13)
(1.10209243492 -0.000464133291364 -5.35031050965e-13)
(1.10247913488 -0.000627737659997 -4.03856396614e-13)
(1.10294451209 -0.000773267074719 -3.31196729335e-13)
(1.10346914544 -0.000911406375722 -2.82520513197e-13)
(1.10403726536 -0.0010374733231 -2.47880577134e-13)
(1.1046357607 -0.00115475384164 -2.2311933184e-13)
(1.10525375949 -0.00126284194095 -2.00491535366e-13)
(1.10588220475 -0.00136281656473 -1.87166209573e-13)
(1.1065135899 -0.00145515662214 -1.76300829872e-13)
(1.10714169534 -0.00154047382513 -1.65407450057e-13)
(1.10776149926 -0.00161929220749 -1.56970450652e-13)
(1.10837042433 -0.00169211639861 -1.4782453456e-13)
(1.10896925537 -0.00175944861446 -1.50578032818e-13)
(1.10952225784 -0.00182157449925 -1.50017283726e-13)
(1.10971229155 -0.00187699472815 -1.47868106798e-13)
(1.10822501925 -0.00191801815188 -1.42142050204e-13)
(1.10163429762 -0.00192541953641 -1.33707725947e-13)
(1.08386717436 -0.00187026227327 -1.23980223974e-13)
(1.0475776931 -0.0017288165401 -1.21418165039e-13)
(0.987295900066 -0.00150130696191 -1.11580347813e-13)
(0.902165527367 -0.00121631604934 -9.66208267355e-14)
(0.796168107077 -0.000916360248931 -8.43352826418e-14)
(0.676045805158 -0.000639049954373 -7.05117255319e-14)
(0.54879456791 -0.00040751358182 -5.59554092244e-14)
(0.420097987374 -0.000230649321454 -4.16684709097e-14)
(0.293855550803 -0.000107942240096 -2.84820128105e-14)
(0.172370963843 -3.46188874186e-05 -1.6262796772e-14)
(0.0567716518697 -2.11728374474e-06 -5.25464753866e-15)
(1.1053333102 -0.000122214115659 -1.30546214405e-12)
(1.10547579949 -0.000289971884167 -9.38223238568e-13)
(1.1057592772 -0.000447191849146 -5.58381912749e-13)
(1.10614588895 -0.000604902397139 -4.18023453251e-13)
(1.10661116286 -0.000745056710637 -3.36940591176e-13)
(1.10713570348 -0.000878236624862 -2.91958856083e-13)
(1.10770374555 -0.000999667299743 -2.55000012937e-13)
(1.10830218701 -0.00111271529623 -2.3042904731e-13)
(1.10892015964 -0.00121685908298 -2.07321591011e-13)
(1.10954860863 -0.00131321053722 -1.91706985598e-13)
(1.11018002478 -0.00140219633516 -1.8218476128e-13)
(1.11080818739 -0.00148441957163 -1.70832283749e-13)
(1.11142824916 -0.00156038135826 -1.62089695053e-13)
(1.11203826854 -0.00163057546589 -1.52750659303e-13)
(1.11263544439 -0.0016954743141 -1.55239956722e-13)
(1.11314428128 -0.00175512072744 -1.53320867191e-13)
(1.11308136844 -0.00180704852903 -1.52064849185e-13)
(1.11073575248 -0.00184159276353 -1.46594481898e-13)
(1.10213685673 -0.00183792812472 -1.37428360987e-13)
(1.08093669403 -0.00176888185246 -1.26532997044e-13)
(1.04024362776 -0.00161682962373 -1.22474057825e-13)
(0.975711825104 -0.00138859795819 -1.12926235511e-13)
(0.887633724099 -0.00111471900475 -9.75473530021e-14)
(0.780548828981 -0.000834237421751 -8.43669311078e-14)
(0.661084117966 -0.000579253222329 -7.11465972046e-14)
(0.535753179709 -0.000368442734103 -5.59987044812e-14)
(0.409708275277 -0.000208271777314 -4.15451888484e-14)
(0.286434288947 -9.74313037567e-05 -2.83447455847e-14)
(0.167972615288 -3.12549322651e-05 -1.61815771678e-14)
(0.0553143155546 -1.91600277889e-06 -5.22434776942e-15)
(1.10887121216 -0.000118068126674 -1.29821574125e-12)
(1.10901378606 -0.000280113204402 -9.64633518357e-13)
(1.10929722384 -0.000431963036571 -5.730762425e-13)
(1.10968377933 -0.000584360115788 -4.316008818e-13)
(1.11014898868 -0.000719691023877 -3.5122721406e-13)
(1.11067347877 -0.000848401238091 -3.01006239914e-13)
(1.11124148725 -0.000965663946927 -2.62750062802e-13)
(1.11183991992 -0.00107490103276 -2.37483080112e-13)
(1.11245791117 -0.00117549378 -2.13916394608e-13)
(1.11308640742 -0.00126858298665 -2.00370580915e-13)
(1.11371789573 -0.00135454697082 -1.87782883246e-13)
(1.11434617099 -0.0014339827405 -1.76035766338e-13)
(1.11496664061 -0.00150737067421 -1.67056955666e-13)
(1.11557767036 -0.00157519484549 -1.57943099977e-13)
(1.11616856923 -0.00163787557738 -1.59375390701e-13)
(1.11660656961 -0.00169512023401 -1.58021805469e-13)
(1.11620779658 -0.0017433658828 -1.56172581291e-13)
(1.11284771611 -0.00177111022781 -1.49286561233e-13)
(1.10208019698 -0.00175664568196 -1.40854378709e-13)
(1.07744377653 -0.00167536198179 -1.29484655796e-13)
(1.03262566129 -0.00151543847444 -1.25093788884e-13)
(0.964348210522 -0.00128873229911 -1.14028405956e-13)
(0.873847136342 -0.00102631861012 -9.82195122444e-14)
(0.766032610721 -0.000763693872174 -8.44497715656e-14)
(0.647350914976 -0.000528310691997 -7.08853182361e-14)
(0.523867577267 -0.000335319719518 -5.58836905653e-14)
(0.400274433303 -0.000189347397513 -4.14467171787e-14)
(0.279706563595 -8.85460331872e-05 -2.82587691911e-14)
(0.163986914245 -2.84061621932e-05 -1.61339785152e-14)
(0.0539934630922 -1.74294913705e-06 -5.20573337643e-15)
(1.11229233979 -0.000114302712407 -1.28990719987e-12)
(1.11243499947 -0.000271152002378 -9.8922018349e-13)
(1.11271841612 -0.000418132662182 -5.92707765846e-13)
(1.11310493924 -0.000565691586423 -4.44657097248e-13)
(1.11357011314 -0.000696649631559 -3.61816964838e-13)
(1.11409458422 -0.000821291807336 -3.09757689912e-13)
(1.11466259213 -0.00093477165651 -2.70810046735e-13)
(1.11526104954 -0.00104054453339 -2.44306282974e-13)
(1.11587909257 -0.00113791120003 -2.20275866818e-13)
(1.116507668 -0.00122803655931 -2.05223144597e-13)
(1.11713925956 -0.00131125464676 -1.93132106585e-13)
(1.11776770282 -0.00138815804486 -1.81083064221e-13)
(1.11838871386 -0.00145920832069 -1.71925840376e-13)
(1.11900023138 -0.00152487833022 -1.62982047493e-13)
(1.11957784083 -0.00158550587261 -1.65141250035e-13)
(1.11991220621 -0.00164036810822 -1.62999581777e-13)
(1.11908891665 -0.00168472210047 -1.60172190557e-13)
(1.11456863287 -0.0017054559278 -1.53545297749e-13)
(1.10151180821 -0.00168066209863 -1.44131805429e-13)
(1.07348615746 -0.00158880293125 -1.32699709871e-13)
(1.02483420782 -0.00142332053491 -1.27084751273e-13)
(0.953263787897 -0.0011997480322 -1.15216028872e-13)
(0.860774377914 -0.000948775325186 -9.87147411823e-14)
(0.752507284378 -0.000702482492298 -8.41425462536e-14)
(0.634690330814 -0.000484403751781 -7.04288175785e-14)
(0.512976834443 -0.000306873650875 -5.55560516075e-14)
(0.391657828173 -0.000173116553113 -4.1240210265e-14)
(0.273570578082 -8.0923424529e-05 -2.81273187459e-14)
(0.160353640769 -2.59587742891e-05 -1.60671627587e-14)
(0.0527895213531 -1.59339839811e-06 -5.18230674879e-15)
(1.11560738288 -0.000110863920647 -1.28085330933e-12)
(1.11575012735 -0.000262961341807 -1.01212314676e-12)
(1.11603353558 -0.000405500631486 -6.02669306945e-13)
(1.11642004227 -0.000548630110112 -4.57235262429e-13)
(1.11688520027 -0.000675600669743 -3.7211072203e-13)
(1.11740967329 -0.000796519759989 -3.18187667448e-13)
(1.11797770254 -0.000906546979188 -2.77096706821e-13)
(1.11857620681 -0.00100915277533 -2.50885435971e-13)
(1.11919432329 -0.00110357233236 -2.26415127977e-13)
(1.11982299849 -0.00119098963378 -2.08813136496e-13)
(1.12045471542 -0.00127169865066 -1.98284733637e-13)
(1.1210833819 -0.00134628863766 -1.85985932067e-13)
(1.12170501649 -0.00141520398952 -1.76695355112e-13)
(1.12231588111 -0.00147890178131 -1.67963716935e-13)
(1.12287050424 -0.00153759991877 -1.67487771428e-13)
(1.12306280892 -0.00159005530689 -1.68069695251e-13)
(1.12172342565 -0.00163031221617 -1.6379866373e-13)
(1.11591114538 -0.00164393979516 -1.58272931208e-13)
(1.10048139731 -0.00160943440886 -1.47214496561e-13)
(1.06915107319 -0.00150859335989 -1.35611376648e-13)
(1.01695626348 -0.00133946578021 -1.28687747655e-13)
(0.942495139322 -0.00112014702984 -1.16247263521e-13)
(0.848378093826 -0.000880353831054 -9.93597630768e-14)
(0.739874046213 -0.00064898007831 -8.47066855429e-14)
(0.6229727715 -0.000446252021377 -7.11785242946e-14)
(0.502950437573 -0.000282237350356 -5.53429530378e-14)
(0.383747364863 -0.000159081797214 -4.10981643082e-14)
(0.267944897359 -7.43365451123e-05 -2.80359024304e-14)
(0.157024206416 -2.38446573398e-05 -1.60239166238e-14)
(0.0516863975742 -1.46443828706e-06 -5.16776094756e-15)
(1.11882533462 -0.000107710199168 -1.27121793185e-12)
(1.11896816242 -0.00025544401651 -1.03360016714e-12)
(1.11925157258 -0.000393914673432 -6.19403003825e-13)
(1.11963807572 -0.000532972852052 -4.69418512353e-13)
(1.12010323363 -0.000656291527857 -3.81887863771e-13)
(1.12062772548 -0.000773789079976 -3.26305615498e-13)