# Region        : all region0
# Cells         : 13056
# Volume        : 2.33333000e+00
# Time          	none(U)
0.000120005     
0.000264017     
0.000436833     
0.000644211     
0.000893055     
0.00119165      
0.0015499       
0.00197972      
0.00249549      
0.00311429      
0.00385657      
0.00472354      
0.00571288      
0.00682257      
0.00800916      
0.00917896      
0.0103338       
0.0114753       
0.0126024       
0.0137169       
0.0148201       
0.0159135       
0.0169973       
0.0180728       
0.019139        
0.0201959       
0.0212461       
0.0222884       
0.0233241       
0.0243544       
0.0253781       
0.0263966       
0.0274086       
0.0284154       
0.0294181       
0.0304156       
0.0314091       
0.0323984       
0.0333838       
0.0343651       
0.0353434       
0.0363178       
0.0372893       
0.0382569       
0.0392215       
0.0401832       
0.0411421       
0.042099        
0.0430531       
0.0440053       
0.0449556       
0.0459031       
0.0468486       
0.0477924       
0.0487342       
0.0496742       
0.0506123       
0.0515495       
0.0524849       
0.0534184       
0.054351        
0.0552817       
0.0562116       
0.0571405       
0.0580685       
0.0589947       
0.05992         
0.0608444       
0.0617678       
0.0626904       
0.063612        
0.0645336       
0.0654544       
0.0663742       
0.0672931       
0.068212        
0.0691301       
0.0700481       
0.0709652       
0.0718823       
0.0727985       
0.0737147       
0.07463         
0.0755453       
0.0764597       
0.0773741       
0.0782885       
0.079202        
0.0801155       
0.081029        
0.0819416       
0.0828542       
0.0837667       
0.0846793       
0.0855919       
0.0865036       
0.0874152       
0.0883269       
0.0892386       
0.0901503       
0.0910619       
0.0919736       
0.0928853       
0.093797        
0.0947086       
0.0956194       
0.0965301       
0.0974409       
0.0983517       
0.0992624       
0.100173        
0.101084        
0.101995        
0.102905        
0.103816        
0.104728        
0.105639        
0.106548        
0.107457        
0.108366        
0.109274        
0.110181        
0.111087        
0.111994        
0.112899        
0.113803        
0.114707        
0.115611        
0.116514        
0.117416        
0.118318        
0.11922         
0.12012         
0.121021        
0.12192         
0.12282         
0.123719        
0.124618        
0.125515        
0.126413        
0.12731         
0.128207        
0.129103        
0.129999        
0.130894        
0.131789        
0.132683        
0.133577        
0.134471        
0.135364        
0.136256        
0.137148        
0.138041        
0.138932        
0.139823        
0.140714        
0.141604        
0.142495        
0.143384        
0.144274        
0.145162        
0.146051        
0.14694         
0.147827        
0.148715        
0.149602        
0.150489        
0.151375        
0.152261        
0.153147        
0.154033        
0.154918        
0.155803        
0.156688        
0.157571        
0.158455        
0.159339        
0.160222        
0.161106        
0.161989        
0.162871        
0.163753        
0.164635        
0.165516        
0.166397        
0.167278        
0.168159        
0.169039        
0.169919        
0.170799        
0.171678        
0.172557        
0.173436        
0.174314        
0.175192        
0.17607         
0.176947        
0.177825        
0.178702        
0.179579        
0.180455        
0.181332        
0.182207        
0.183083        
0.183959        
0.184834        
0.185709        
0.186583        
0.187458        
0.188332        
0.189205        
0.190079        
0.190953        
0.191826        
0.192698        
0.193571        
0.194443        
0.195315        
0.196187        
0.197058        
0.197929        
0.1988          
0.199671        
0.200542        
0.201412        
0.202282        
0.203152        
0.204021        
0.20489         
0.205759        
0.206627        
0.207496        
0.208364        
0.209232        
0.2101          
0.210967        
0.211834        
0.212701        
0.213568        
0.214434        
0.2153          
0.216166        
0.217032        
0.217897        
0.218763        
0.219628        
0.220493        
0.221357        
0.222221        
0.223086        
0.22395         
0.224813        
0.225676        
0.226539        
0.227403        
0.228265        
0.229127        
0.22999         
0.230852        
0.231713        
0.232574        
0.233436        
0.234297        
0.235158        
0.236019        
0.236879        
0.237739        
0.2386          
0.239459        
0.240318        
0.241178        
0.242037        
0.242896        
0.243754        
0.244612        
0.245471        
0.246328        
0.247186        
0.248043        
0.2489          
0.249758        
0.250614        
0.251471        
0.252327        
0.253184        
0.254039        
0.254895        
0.25575         
0.256605        
0.257461        
0.258315        
0.25917         
0.260024        
0.260879        
0.261732        
0.262586        
0.263439        
0.264293        
0.265146        
0.265999        
0.266851        
0.267704        
0.268556        
0.269409        
0.27026         
0.271112        
0.271963        
0.272815        
0.273665        
0.274516        
0.275366        
0.276217        
0.277067        
0.277917        
0.278766        
0.279616        
0.280465        
0.281315        
0.282163        
0.283012        
0.28386         
0.284709        
0.285557        
0.286405        
0.287252        
0.2881          
0.288947        
0.289795        
0.290641        
0.291488        
0.292334        
0.293181        
0.294027        
0.294873        
0.295718        
0.296564        
0.297409        
0.298255        
0.299099        
0.299944        
0.300788        
0.301633        
0.302477        
0.30332         
0.304164        
0.305007        
0.305851        
0.306694        
0.307537        
0.308379        
0.309221        
0.310064        
0.310906        
0.311749        
0.31259         
0.313431        
0.314273        
0.315114        
0.315956        
0.316796        
0.317636        
0.318477        
0.319317        
0.320157        
0.320997        
0.321836        
0.322675        
0.323515        
0.324354        
0.325193        
0.326031        
0.32687         
0.327708        
0.328546        
0.329385        
0.330222        
0.331059        
0.331896        
0.332733        
0.333571        
0.334408        
0.335244        
0.33608         
0.336916        
0.337753        
0.338589        
0.339424        
0.340259        
0.341094        
0.341929        
0.342764        
0.343599        
0.344433        
0.345268        
0.346102        
0.346936        
0.34777         
0.348604        
0.349437        
0.35027         
0.351103        
0.351936        
0.352769        
0.353602        
0.354434        
0.355266        
0.356097        
0.356929        
0.357761        
0.358593        
0.359424        
0.360255        
0.361086        
0.361917        
0.362747        
0.363578        
0.364408        
0.365238        
0.366067        
0.366897        
0.367727        
0.368557        
0.369385        
0.370214        
0.371043        
0.371871        
0.3727          
0.373529        
0.374356        
0.375184        
0.376011        
0.376839        
0.377667        
0.378494        
0.379322        
0.380148        
0.380975        
0.381801        
0.382628        
0.383454        
0.384281        
0.385106        
0.385931        
0.386757        
0.387582        
0.388407        
0.389233        
0.390058        
0.390882        
0.391707        
0.392531        
0.393355        
0.394179        
0.395004        
0.395828        
0.396651        
0.397474        
0.398297        
0.39912         
0.399943        
0.400767        
0.40159         
0.402412        
0.403234        
0.404056        
0.404878        
0.4057          
0.406522        
0.407344        
0.408164        
0.408985        
0.409806        
0.410627        
0.411448        
0.412269        
0.41309         
0.413909        
0.414729        
0.415549        
0.416368        
0.417188        
0.418008        
0.418828        
0.419646        
0.420465        
0.421283        
0.422102        
0.42292         
0.423739        
0.424557        
0.425375        
0.426192        
0.42701         
0.427827        
0.428644        
0.429462        
0.430279        
0.431097        
0.431913        
0.432729        
0.433545        
0.434361        
0.435178        
0.435994        
0.43681         
0.437626        
0.438441        
0.439256        
0.440071        
0.440886        
0.441701        
0.442516        
0.443331        
0.444147        
0.44496         
0.445774        
0.446588        
0.447402        
0.448216        
0.44903         
0.449843        
0.450657        
0.45147         
0.452283        
0.453095        
0.453908        
0.45472         
0.455533        
0.456346        
0.457158        
0.45797         
0.458781        
0.459593        
0.460404        
0.461215        
0.462027        
0.462838        
0.46365         
0.464461        
0.465271        
0.466082        
0.466892        
0.467702        
0.468512        
0.469322        
0.470133        
0.470943        
0.471752        
0.472561        
0.47337         
0.474179        
0.474987        
0.475796        
0.476605        
0.477414        
0.478223        
0.479031        
0.479839        
0.480646        
0.481454        
0.482262        
0.48307         
0.483877        
0.484685        
0.485493        
0.486299        
0.487106        
0.487912        
0.488718        
0.489525        
0.490331        
0.491138        
0.491944        
0.492751        
0.493557        
0.494362        
0.495167        
0.495973        
0.496778        
0.497583        
0.498388        
0.499193        
0.499998        
0.500803        
0.501607        
0.502411        
0.503215        
0.504019        
0.504823        
0.505627        
0.50643         
0.507234        
0.508038        
0.508842        
0.509645        
0.510447        
0.51125         
0.512052        
0.512855        
0.513657        
0.51446         
0.515262        
0.516065        
0.516867        
0.517669        
0.51847         
0.519271        
0.520072        
0.520874        
0.521675        
0.522476        
0.523277        
0.524078        
0.52488         
0.525679        
0.526479        
0.527279        
0.528079        
0.528879        
0.529679        
0.530479        
0.531279        
0.532078        
0.532878        
0.533678        
0.534477        
0.535275        
0.536074        
0.536872        
0.537671        
0.538469        
0.539268        
0.540066        
0.540865        
0.541663        
0.542462        
0.543259        
0.544056        
0.544853        
0.54565         
0.546447        
0.547244        
0.548041        
0.548838        
0.549636        
0.550433        
0.55123         
0.552027        
0.552823        
0.553618        
0.554414        
0.55521         
0.556005        
0.556801        
0.557597        
0.558392        
0.559188        
0.559984        
0.560779        
0.561575        
0.562369        
0.563164        
0.563958        
0.564752        
0.565546        
0.566341        
0.567135        
0.567929        
0.568723        
0.569518        
0.570312        
0.571106        
0.571899        
0.572692        
0.573484        
0.574277        
0.57507         
0.575863        
0.576656        
0.577448        
0.578241        
0.579034        
0.579827        
0.580619        
0.581412        
0.582204        
0.582995        
0.583786        
0.584577        
0.585369        
0.58616         
0.586951        
0.587743        
0.588534        
0.589325        
0.590116        
0.590908        
0.591699        
0.59249         
0.59328         
0.59407         
0.594859        
0.595649        
0.596439        
0.597229        
0.598018        
0.598808        
0.599598        
0.600388        
0.601177        
0.601967        
0.602757        
0.603547        
0.604335        
0.605123        
0.605911        
0.606699        
0.607488        
0.608276        
0.609064        
0.609852        
0.61064         
0.611428        
0.612217        
0.613005        
0.613793        
0.614581        
0.615369        
0.616156        
0.616942        
0.617729        
0.618516        
0.619302        
0.620089        
0.620875        
0.621662        
0.622448        
0.623235        
0.624022        
0.624808        
0.625595        
0.626381        
0.627168        
0.627954        
0.628739        
0.629524        
0.630309        
0.631094        
0.631879        
0.632664        
0.633449        
0.634234        
0.635019        
0.635803        
0.636588        
0.637373        
0.638158        
0.638943        
0.639728        
0.640513        
0.641296        
0.642079        
0.642862        
0.643646        
0.644429        
0.645212        
0.645995        
0.646778        
0.647562        
0.648345        
0.649128        
0.649911        
0.650694        
0.651478        
0.652261        
0.653044        
0.653827        
0.65461         
0.655392        
0.656173        
0.656955        
0.657736        
0.658518        
0.659299        
0.66008         
0.660862        
0.661643        
0.662425        
0.663206        
0.663988        
0.664769        
0.66555         
0.666332        
0.667113        
0.667895        
0.668676        
0.669457        
0.670237        
0.671017        
0.671796        
0.672576        
0.673355        
0.674135        
0.674915        
0.675694        
0.676474        
0.677253        
0.678033        
0.678812        
0.679592        
0.680372        
0.681151        
0.681931        
0.68271         
0.68349         
0.68427         
0.685049        
0.685829        
0.686606        
0.687384        
0.688162        
0.688939        
0.689717        
0.690495        
0.691272        
0.69205         
0.692828        
0.693605        
0.694383        
0.695161        
0.695938        
0.696716        
0.697493        
0.698271        
0.699049        
0.699826        
0.700604        
0.701382        
0.702159        
0.702937        
0.703713        
0.704488        
0.705264        
0.70604         
0.706815        
0.707591        
0.708366        
0.709142        
0.709918        
0.710693        
0.711469        
0.712244        
0.71302         
0.713796        
0.714571        
0.715347        
0.716123        
0.716898        
0.717674        
0.718449        
0.719225        
0.720001        
0.720776        
0.721552        
0.722328        
0.723101        
0.723874        
0.724648        
0.725421        
0.726195        
0.726968        
0.727742        
0.728515        
0.729289        
0.730062        
0.730836        
0.731609        
0.732383        
0.733156        
0.733929        
0.734703        
0.735476        
0.73625         
0.737023        
0.737797        
0.73857         
0.739344        
0.740117        
0.740891        
0.741664        
0.742438        
0.743211        
0.743984        
0.744756        
0.745527        
0.746298        
0.747069        
0.74784         
0.748611        
0.749382        
0.750154        
0.750925        
0.751696        
0.752467        
0.753238        
0.754009        
0.75478         
0.755551        
0.756323        
0.757094        
0.757865        
0.758636        
0.759407        
0.760178        
0.760949        
0.76172         
0.762492        
0.763263        
0.764034        
0.764805        
0.765576        
0.766347        
0.767118        
0.76789         
0.768661        
0.769429        
0.770198        
0.770966        
0.771735        
0.772504        
0.773272        
0.774041        
0.774809        
0.775578        
0.776346        
0.777115        
0.777883        
0.778652        
0.779421        
0.780189        
0.780958        
0.781726        
0.782495        
0.783263        
0.784032        
0.784801        
0.785569        
0.786338        
0.787106        
0.787875        
0.788643        
0.789412        
0.790181        
0.790949        
0.791718        
0.792486        
0.793255        
0.794023        
0.794792        
0.795561        
0.796329        
0.797098        
0.797863        
0.798629        
0.799395        
0.80016         
0.800926        
0.801692        
0.802457        
0.803223        
0.803989        
0.804754        
0.80552         
0.806286        
0.807051        
0.807817        
0.808583        
0.809348        
0.810114        
0.81088         
0.811645        
0.812411        
0.813177        
0.813942        
0.814708        
0.815474        
0.816239        
0.817005        
0.817771        
0.818536        
0.819302        
0.820068        
0.820833        
0.821599        
0.822365        
0.82313         
0.823896        
0.824662        
0.825427        
0.826193        
0.826959        
0.827724        
0.82849         
0.829256        
0.830021        
0.830787        
0.831553        
0.832318        
0.833084        
0.83385         
0.834612        
0.835374        
0.836136        
0.836898        
0.837661        
0.838423        
0.839185        
0.839947        
0.840709        
0.841471        
0.842234        
0.842996        
0.843758        
0.84452         
0.845282        
0.846044        
0.846806        
0.847569        
0.848331        
0.849093        
0.849855        
0.850617        
0.851379        
0.852142        
0.852904        
0.853666        
0.854428        
0.85519         
0.855952        
0.856715        
0.857477        
0.858239        
0.859001        
0.859763        
0.860525        
0.861287        
0.86205         
0.862812        
0.863574        
0.864336        
0.865098        
0.86586         
0.866623        
0.867385        
0.868147        
0.868909        
0.869671        
0.870433        
0.871196        
0.871958        
0.87272         
0.873482        
0.874244        
0.875006        
0.875768        
0.876531        
0.877293        
0.878055        
0.878817        
0.879579        
0.880341        
0.881104        
0.881866        
0.882628        
0.88339         
0.884152        
0.884914        
0.885676        
0.886439        
0.887201        
0.887958        
0.888715        
0.889472        
0.890229        
0.890986        
0.891743        
0.8925          
0.893257        
0.894014        
0.894771        
0.895528        
0.896285        
0.897042        
0.897799        
0.898556        
0.899313        
0.900071        
0.900828        
0.901585        
0.902342        
0.903099        
0.903856        
0.904613        
0.90537         
0.906127        
0.906884        
0.907641        
0.908398        
0.909155        
0.909912        
0.910669        
0.911426        
0.912183        
0.91294         
0.913697        
0.914454        
0.915211        
0.915968        
0.916725        
0.917482        
0.91824         
0.918997        
0.919754        
0.920511        
0.921268        
0.922025        
0.922782        
0.923539        
0.924296        
0.925053        
0.92581         
0.926567        
0.927324        
0.928081        
0.928838        
0.929595        
0.930352        
0.931109        
0.931866        
0.932623        
0.93338         
0.934137        
0.934894        
0.935651        
0.936409        
0.937166        
0.937923        
0.93868         
0.939437        
0.940194        
0.940951        
0.941708        
0.942465        
0.943222        
0.943979        
0.944736        
0.945493        
0.94625         
0.947007        
0.947764        
0.948521        
0.949278        
0.950035        
0.950792        
0.951549        
0.952306        
0.953063        
0.95382         
0.954578        
0.955335        
0.956092        
0.956849        
0.957606        
0.958363        
0.95912         
0.959877        
0.960634        
0.961391        
0.962148        
0.962905        
0.963662        
0.964419        
0.965176        
0.965933        
0.96669         
0.967447        
0.968204        
0.968961        
0.969718        
0.970475        
0.971232        
0.971989        
0.972747        
0.973504        
0.974261        
0.975018        
0.975775        
0.976532        
0.977289        
0.978046        
0.978803        
0.97956         
0.980317        
0.981074        
0.981831        
0.982588        
0.983345        
0.984102        
0.984859        
0.985616        
0.986373        
0.98713         
0.987887        
0.988644        
0.989401        
0.990158        
0.990916        
0.991673        
0.99243         
0.993187        
0.993944        
0.994701        
0.995458        
0.996215        
0.996972        
0.997729        
0.998486        
0.999243        
1               
1.00075         
1.0015          
1.00226         
1.00301         
1.00376         
1.00451         
1.00526         
1.00602         
1.00677         
1.00752         
1.00827         
1.00902         
1.00977         
1.01052         
1.01128         
1.01203         
1.01278         
1.01353         
1.01428         
1.01503         
1.01578         
1.01653         
1.01729         
1.01804         
1.01879         
1.01954         
1.02029         
1.02104         
1.02179         
1.02254         
1.02329         
1.02404         
1.02479         
1.02554         
1.02629         
1.02705         
1.0278          
1.02855         
1.0293          
1.03005         
1.0308          
1.03155         
1.0323          
1.03305         
1.0338          
1.03455         
1.0353          
1.03605         
1.0368          
1.03755         
1.0383          
1.03905         
1.0398          
1.04055         
1.0413          
1.04205         
1.0428          
1.04355         
1.04429         
1.04504         
1.04579         
1.04654         
1.04729         
1.04804         
1.04879         
1.04954         
1.05029         
1.05104         
1.05179         
1.05254         
1.05329         
1.05404         
1.05478         
1.05553         
1.05628         
1.05703         
1.05778         
1.05853         
1.05928         
1.06003         
1.06078         
1.06153         
1.06227         
1.06302         
1.06377         
1.06452         
1.06527         
1.06602         
1.06676         
1.06751         
1.06826         
1.06901         
1.06976         
1.07051         
1.07125         
1.072           
1.07275         
1.0735          
1.07425         
1.07499         
1.07574         
1.07649         
1.07724         
1.07799         
1.07873         
1.07948         
1.08023         
1.08098         
1.08172         
1.08247         
1.08322         
1.08397         
1.08472         
1.08546         
1.08621         
1.08696         
1.0877          
1.08845         
1.0892          
1.08995         
1.09069         
1.09144         
1.09219         
1.09293         
1.09368         
1.09443         
1.09518         
1.09592         
1.09667         
1.09742         
1.09817         
1.09891         
1.09966         
1.10041         
1.10115         
1.1019          
1.10264         
1.10339         
1.10414         
1.10488         
1.10563         
1.10638         
1.10712         
1.10787         
1.10862         
1.10936         
1.11011         
1.11086         
1.1116          
1.11235         
1.1131          
1.11384         
1.11459         
1.11533         
1.11608         
1.11683         
1.11757         
1.11832         
1.11906         
1.11981         
1.12056         
1.1213          
1.12205         
1.12279         
1.12354         
1.12428         
1.12503         
1.12578         
1.12652         
1.12727         
1.12801         
1.12876         
1.1295          
1.13025         
1.131           
1.13174         
1.13249         
1.13323         
1.13398         
1.13472         
1.13547         
1.13621         
1.13696         
1.1377          
1.13845         
1.13919         
1.13994         
1.14068         
1.14143         
1.14217         
1.14292         
1.14366         
1.14441         
1.14515         
1.1459          
1.14664         
1.14739         
1.14813         
1.14888         
1.14962         
1.15037         
1.15111         
1.15186         
1.1526          
1.15334         
1.15409         
1.15483         
1.15558         
1.15632         
1.15707         
1.15781         
1.15856         
1.1593          
1.16005         
1.16079         
1.16153         
1.16228         
1.16302         
1.16376         
1.16451         
1.16525         
1.166           
1.16674         
1.16748         
1.16823         
1.16897         
1.16972         
1.17046         
1.1712          
1.17195         
1.17269         
1.17344         
1.17418         
1.17492         
1.17567         
1.17641         
1.17716         
1.1779          
1.17864         
1.17939         
1.18013         
1.18087         
1.18162         
1.18236         
1.1831          
1.18385         
1.18459         
1.18533         
1.18608         
1.18682         
1.18756         
1.18831         
1.18905         
1.18979         
1.19054         
1.19128         
1.19202         
1.19277         
1.19351         
1.19425         
1.195           
1.19574         
1.19648         
1.19722         
1.19797         
1.19871         
1.19945         
1.20019         
1.20094         
1.20168         
1.20242         
1.20316         
1.20391         
1.20465         
1.20539         
1.20613         
1.20688         
1.20762         
1.20836         
1.20911         
1.20985         
1.21059         
1.21133         
1.21208         
1.21282         
1.21356         
1.2143          
1.21505         
1.21579         
1.21653         
1.21727         
1.21801         
1.21876         
1.2195          
1.22024         
1.22098         
1.22172         
1.22247         
1.22321         
1.22395         
1.22469         
1.22543         
1.22618         
1.22692         
1.22766         
1.2284          
1.22914         
1.22988         
1.23063         
1.23137         
1.23211         
1.23285         
1.23359         
1.23434         
1.23508         
1.23582         
1.23656         
1.2373          
1.23804         
1.23879         
1.23953         
1.24027         
1.24101         
1.24175         
1.24249         
1.24323         
1.24397         
1.24472         
1.24546         
1.2462          
1.24694         
1.24768         
1.24842         
1.24916         
1.2499          
1.25064         
1.25139         
1.25213         
1.25287         
1.25361         
1.25435         
1.25509         
1.25583         
1.25657         
1.25732         
1.25806         
1.2588          
1.25954         
1.26028         
1.26102         
1.26176         
1.2625          
1.26324         
1.26398         
1.26472         
1.26546         
1.2662          
1.26694         
1.26769         
1.26843         
1.26917         
1.26991         
1.27065         
1.27139         
1.27213         
1.27287         
1.27361         
1.27435         
1.27509         
1.27583         
1.27657         
1.27731         
1.27805         
1.27879         
1.27953         
1.28027         
1.28101         
1.28175         
1.28249         
1.28323         
1.28398         
1.28472         
1.28546         
1.2862          
1.28694         
1.28768         
1.28842         
1.28916         
1.28989         
1.29063         
1.29137         
1.29211         
1.29285         
1.29359         
1.29433         
1.29507         
1.29581         
1.29655         
1.29729         
1.29803         
1.29877         
1.29951         
1.30025         
1.30099         
1.30173         
1.30247         
1.30321         
1.30395         
1.30469         
1.30543         
1.30617         
1.30691         
1.30765         
1.30839         
1.30913         
1.30987         
1.31061         
1.31135         
1.31209         
1.31283         
1.31357         
1.3143          
1.31504         
1.31578         
1.31652         
1.31726         
1.318           
1.31874         
1.31948         
1.32022         
1.32096         
1.3217          
1.32243         
1.32317         
1.32391         
1.32465         
1.32539         
1.32613         
1.32687         
1.32761         
1.32835         
1.32908         
1.32982         
1.33056         
1.3313          
1.33204         
1.33278         
1.33352         
1.33426         
1.335           
1.33573         
1.33647         
1.33721         
1.33795         
1.33869         
1.33943         
1.34017         
1.34091         
1.34165         
1.34238         
1.34312         
1.34386         
1.3446          
1.34534         
1.34608         
1.34682         
1.34756         
1.3483          
1.34903         
1.34977         
1.35051         
1.35125         
1.35199         
1.35273         
1.35346         
1.3542          
1.35494         
1.35568         
1.35642         
1.35715         
1.35789         
1.35863         
1.35937         
1.36011         
1.36084         
1.36158         
1.36232         
1.36306         
1.3638          
1.36453         
1.36527         
1.36601         
1.36675         
1.36749         
1.36822         
1.36896         
1.3697          
1.37044         
1.37118         
1.37192         
1.37265         
1.37339         
1.37413         
1.37487         
1.37561         
1.37634         
1.37708         
1.37782         
1.37856         
1.3793          
1.38003         
1.38077         
1.38151         
1.38225         
1.38299         
1.38372         
1.38446         
1.3852          
1.38594         
1.38668         
1.38741         
1.38815         
1.38889         
1.38963         
1.39037         
1.3911          
1.39184         
1.39258         
1.39331         