# Wall shear stress
# Time          	patch           	min             	max             
2000            	bottom	(-3.15904068e-02 -1.48361700e-03 0.00000000e+00)	(-2.25535699e-03 4.50953126e-07 0.00000000e+00)
