/*--------------------------------*- C++ -*----------------------------------*\
| =========                 |                                                 |
| \\      /  F ield         | OpenFOAM: The Open Source CFD Toolbox           |
|  \\    /   O peration     | Version:  2206                                  |
|   \\  /    A nd           | Website:  www.openfoam.com                      |
|    \\/     M anipulation  |                                                 |
\*---------------------------------------------------------------------------*/
FoamFile
{
    version     2.0;
    format      ascii;
    arch        "LSB;label=32;scalar=64";
    class       volScalarField;
    location    "2000";
    object      epsilon;
}
// * * * * * * * * * * * * * * * * * * * * * * * * * * * * * * * * * * * * * //

dimensions      [0 2 -3 0 0 0 0];

internalField   nonuniform List<scalar> 
7480
(
5.7752507
15.519682
18.082728
15.981141
12.861818
10.364728
8.6793445
7.5272342
6.6807672
6.0162204
5.4770209
5.0351078
4.6715209
4.3712424
4.1220533
3.9136641
3.7384444
3.590553
3.4649183
3.3574915
3.2641675
3.182098
3.1089521
3.0428977
2.9826945
2.9273521
2.8761645
2.8284684
2.7836708
2.7412818
2.7010163
2.6626837
2.6260816
2.5910416
2.5573824
2.5249918
2.4936591
2.4633179
2.4338795
2.4052493
2.3773608
2.3501527
2.3235766
2.2975992
2.2721821
2.247298
2.2229104
2.1989816
2.1754894
2.1524104
2.1297259
2.1074226
2.0854846
2.0639024
2.042661
2.0217493
2.0011575
1.9808721
1.9608797
1.9411707
1.9217421
1.9025893
1.8837049
1.8650828
1.8467176
1.8286043
1.8107352
1.7931039
1.7757064
1.7585386
1.7415959
1.7248737
1.708368
1.6920758
1.6759928
1.6601144
1.6444365
1.6289553
1.6136669
1.5985676
1.5836535
1.5689204
1.5543647
1.5399818
1.5257673
1.5117159
1.4978227
1.48408
1.4704827
1.4570158
1.4436801
1.4304308
1.4173091
1.4041438
1.3911776
1.3777419
1.3647779
1.3500281
1.3382699
1.3157304
0.34643283
1.599597
2.841091
3.2972868
3.1720918
2.8642092
2.5638436
2.3199981
2.1217726
1.9520413
1.8039016
1.6757995
1.5663771
1.4734753
1.3946776
1.3273004
1.2695437
1.2200477
1.1774851
1.1405814
1.1082097
1.0794735
1.0536369
1.0301577
1.0086734
0.98887648
0.97054791
0.95344784
0.93737597
0.92217413
0.90774632
0.894025
0.88094016
0.86843136
0.85642876
0.84489629
0.83375462
0.82298182
0.81254839
0.80241994
0.79256971
0.7829765
0.77362264
0.76449397
0.75557687
0.74686022
0.73832988
0.72997279
0.72177945
0.71374153
0.70585221
0.6981057
0.69049611
0.68301898
0.67566876
0.66844128
0.6613324
0.65433701
0.64745001
0.64066793
0.63398913
0.62741168
0.62093268
0.6145496
0.60826036
0.60206289
0.59595425
0.58993202
0.58399459
0.57814033
0.57236746
0.56667413
0.56105882
0.55552031
0.55005692
0.54466693
0.53934878
0.53410106
0.52892231
0.52381112
0.51876607
0.51378569
0.50886859
0.5040132
0.499218
0.49448122
0.48980114
0.48517545
0.48060222
0.47607751
0.47160017
0.46715993
0.46276281
0.45837228
0.45403275
0.44960508
0.44526732
0.44053296
0.43650738
0.42921744
0.010449754
0.063722335
0.16400858
0.28170417
0.38488733
0.47623861
0.55973335
0.63122918
0.68709033
0.72860995
0.7573602
0.77409255
0.78010488
0.77761057
0.76918492
0.75721321
0.74336455
0.72864119
0.71362453
0.69865668
0.68395239
0.66964629
0.65579599
0.64245629
0.62967001
0.61742881
0.60577953
0.59465654
0.58401295
0.57380872
0.5640301
0.55466013
0.54567345
0.53704643
0.52874282
0.5207509
0.51302681
0.50556427
0.49834658
0.49135405
0.48457026
0.47798226
0.47157889
0.4653498
0.45928545
0.45337741
0.44761545
0.44199081
0.43649621
0.43112535
0.42587296
0.42073384
0.41570311
0.4107765
0.40594944
0.40121832
0.39657929
0.39202828
0.3875613
0.3831755
0.3788688
0.37463904
0.37048362
0.36640017
0.36238672
0.35844126
0.35456137
0.35074504
0.3469907
0.3432968
0.33966172
0.33608386
0.33256182
0.32909439
0.32568012
0.32231759
0.31900551
0.31574265
0.31252783
0.30935986
0.3062376
0.3031599
0.30012565
0.29713369
0.29418288
0.291272
0.28839979
0.28556485
0.28276576
0.28000051
0.27726763
0.274563
0.27188659
0.26922592
0.26659069
0.26393626
0.26130728
0.25853341
0.25606138
0.25174593
0.00038909186
0.0025468423
0.0091525769
0.019368076
0.032207986
0.047314483
0.066863416
0.091067704
0.12650364
0.17016653
0.21727795
0.26314426
0.30637823
0.3459488
0.3805978
0.40919956
0.43125777
0.44703707
0.45737566
0.46332901
0.46587336
0.46580555
0.4637507
0.46020112
0.45556472
0.45015122
0.44422416
0.43797001
0.43151894
0.42497282
0.41840945
0.41188812
0.40544959
0.39912549
0.39292741
0.3868733
0.38094493
0.3751633
0.36952552
0.36403089
0.35867692
0.35346083
0.34837961
0.34342953
0.33860667
0.33390701
0.32932453
0.32485465
0.32049303
0.3162357
0.31207909
0.30801946
0.30405325
0.30017707
0.29638727
0.29268086
0.28905458
0.28550514
0.28202935
0.27862472
0.27528919
0.27202065
0.26881676
0.26567535
0.26259452
0.25957235
0.2566067
0.25369574
0.25083796
0.24803182
0.2452758
0.24256839
0.23990825
0.23729413
0.23472468
0.2321986
0.22971468
0.22727176
0.22486875
0.22250454
0.22017808
0.21788834
0.21563429
0.21341494
0.21122926
0.20907625
0.20695485
0.20486395
0.20280238
0.20076882
0.19876183
0.19677939
0.19481981
0.19287859
0.19095493
0.18903519
0.18712325
0.18515458
0.18334615
0.18027159
4.1888846e-05
0.0001532952
0.0005501012
0.001446965
0.0029546429
0.0049922724
0.0075576734
0.010797239
0.015324965
0.022013706
0.031507731
0.046281279
0.066509552
0.090982644
0.11836744
0.147471
0.17739173
0.20695156
0.23471217
0.2593239
0.27991183
0.29624217
0.30859928
0.31752077
0.323587
0.32731109
0.32914245
0.32946917
0.32861998
0.32686105
0.32440354
0.32141785
0.31804039
0.31437849
0.31051559
0.30652357
0.30243998
0.29831034
0.29416689
0.29003265
0.28592544
0.2818601
0.27784793
0.27389705
0.27001363
0.26620215
0.26246424
0.25880067
0.25521172
0.25169759
0.24825827
0.24489305
0.24160087
0.23838048
0.23523021
0.23214856
0.22913367
0.22618352
0.22329598
0.22046938
0.21770227
0.21499311
0.21234014
0.2097417
0.20719623
0.20470212
0.20225765
0.19986131
0.19751177
0.19520771
0.19294777
0.19073065
0.18855512
0.18642005
0.18432423
0.1822665
0.18024578
0.178261
0.17631116
0.17439527
0.17251237
0.17066152
0.16884181
0.16705232
0.16529217
0.16356046
0.16185628
0.16017871
0.15852674
0.15689939
0.15529536
0.15371359
0.15215192
0.15060925
0.14908105
0.14756647
0.14605459
0.14452542
0.14309862
0.14070451
1.6217752e-05
3.1165937e-05
6.986037e-05
0.00015221201
0.00030645454
0.00055981235
0.0009377103
0.0014618008
0.002166333
0.0031252129
0.0044295383
0.0063335187
0.009149155
0.013196586
0.019305011
0.028576655
0.04105413
0.05675486
0.075203878
0.095849291
0.11795832
0.14048201
0.1621541
0.18182129
0.19874313
0.21267667
0.22375782
0.23230473
0.23867408
0.24320089
0.2461891
0.24791176
0.24860586
0.2484694
0.2476662
0.24633649
0.24458555
0.24250468
0.2401693
0.23763957
0.23496429
0.23218331
0.22932919
0.22642839
0.22350222
0.22056789
0.21763908
0.21472622
0.21183755
0.20897974
0.20615814
0.20337671
0.20063853
0.19794588
0.19530027
0.19270297
0.19015427
0.18765408
0.18520201
0.18279781
0.18044114
0.17813149
0.17586807
0.17365001
0.17147648
0.16934652
0.167259
0.16521291
0.16320732
0.16124126
0.15931373
0.15742367
0.15557016
0.15375228
0.15196905
0.1502195
0.14850272
0.14681782
0.14516394
0.14354022
0.14194583
0.14037996
0.1388418
0.13733058
0.13584549
0.13438578
0.13295064
0.13153931
0.13015093
0.12878473
0.12743957
0.12611487
0.12480846
0.1235208
0.12224621
0.12098933
0.11973439
0.11848105
0.1173059
0.11534063
1.1403775e-05
1.5747589e-05
2.4158424e-05
3.8804447e-05
6.2814307e-05
0.00010019375
0.00015620728
0.00023745125
0.00035216649
0.00051257501
0.00073369341
0.0010414607
0.001475675
0.0020866257
0.0029612281
0.0042659656
0.0061909022
0.0089569579
0.013238528
0.01971317
0.028632162
0.040192285
0.05409278
0.069976033
0.087194312
0.10481541
0.12178949
0.13723964
0.15065861
0.16191137
0.17110249
0.17843512
0.18413329
0.18841757
0.19149831
0.19357077
0.19480158
0.1953341
0.19529181
0.19477881
0.19388235
0.19267538
0.19121884
0.18956374
0.18775246
0.1858201
0.18379601
0.18170413
0.17956406
0.17739206
0.1752015
0.17300343
0.17080687
0.16861917
0.16644635
0.16429334
0.16216398
0.16006118
0.15798713
0.15594359
0.15393197
0.15195335
0.15000832
0.14809726
0.14622043
0.14437784
0.14256916
0.1407941
0.13905237
0.13734356
0.13566716
0.13402259
0.13240926
0.1308266
0.12927396
0.12775065
0.12625602
0.12478939
0.12335012
0.12193752
0.12055096
0.11918975
0.11785326
0.11654083
0.11525181
0.11398556
0.11274141
0.11151872
0.11031678
0.10913498
0.10797234
0.10682857
0.10570166
0.10459278
0.1034962
0.10241872
0.10134399
0.10027981
0.099284173
0.0976149
9.8632717e-06
1.1772307e-05
1.4892254e-05
1.9556824e-05
2.6254888e-05
3.561837e-05
4.84725e-05
6.5914705e-05
8.9384131e-05
0.00012092764
0.00016332902
0.00022065088
0.00029911126
0.00040736182
0.00055789428
0.00077169458
0.0010795481
0.0015191844
0.0021652362
0.00314375
0.0046178709
0.0067759948
0.010240305
0.015452337
0.022699566
0.032103906
0.04346264
0.056415392
0.07033156
0.08437371
0.09772041
0.10978183
0.12027701
0.12916663
0.13653798
0.14252736
0.14728571
0.15096774
0.15372311
0.15568816
0.15698373
0.15771554
0.15797511
0.15784115
0.15738087
0.15665129
0.15570103
0.15457106
0.1532958
0.15190416
0.15042038
0.14886491
0.14725486
0.14560459
0.14392619
0.14222973
0.14052368
0.13881498
0.13710932
0.1354114
0.13372514
0.13205379
0.13039994
0.12876564
0.12715257
0.12556207
0.12399505
0.12245221
0.12093409
0.11944106
0.11797331
0.11653088
0.11511369
0.11372165
0.11235453
0.11101202
0.10969382
0.10839955
0.10712884
0.10588125
0.10465637
0.10345372
0.10227284
0.10111326
0.09997447
0.09885599
0.097757296
0.096677891
0.095617194
0.094574753
0.093549754
0.09254208
0.091549975
0.090574887
0.089611526
0.088667267
0.08772698
0.08680107
0.085940395
0.084489076
9.1512568e-06
1.024437e-05
1.1781703e-05
1.3853137e-05
1.6576571e-05
2.0105485e-05
2.4620084e-05
3.0338219e-05
3.7545338e-05
4.6622489e-05
5.8085076e-05
7.264333e-05
9.1333347e-05
0.00011561816
0.00014758646
0.00019039908
0.00024894362
0.00032992254
0.00044380462
0.00060796446
0.00084949557
0.0012020095
0.0017397438
0.0025767673
0.0038582159
0.0058461509
0.0090466919
0.013766046
0.020271677
0.028518993
0.038329961
0.049285971
0.060747303
0.072006707
0.082489866
0.091863797
0.1000121
0.1069476
0.11274214
0.11749402
0.1213146
0.12431736
0.12660968
0.12828984
0.12944618
0.13015663
0.13048959
0.13050442
0.13025222
0.12977685
0.12911571
0.12830078
0.12735934
0.12631459
0.12518633
0.12399133
0.1227439
0.12145616
0.12013834
0.11879903
0.11744549
0.1160839
0.11471941
0.1133563
0.1119982
0.11064816
0.10930865
0.10798172
0.10666904
0.105372
0.10409169
0.10282897
0.10158447
0.10035868
0.099151956
0.097964494
0.096796412
0.095647744
0.094518451
0.093408432
0.092317533
0.091245557
0.090192264
0.089157388
0.088140629
0.087141673
0.086160168
0.085195773
0.084248063
0.083316732
0.082401143
0.081501307
0.080615749
0.079745994
0.078887394
0.078047122
0.077211996
0.076392327
0.075637148
0.07435435
8.7081175e-06
9.4448462e-06
1.0366521e-05
1.1492348e-05
1.2865309e-05
1.4542977e-05
1.6580542e-05
1.9063001e-05
2.2067372e-05
2.56859e-05
3.0039056e-05
3.5285448e-05
4.164789e-05
4.9397442e-05
5.894105e-05
7.0852965e-05
8.5979166e-05
0.00010551013
0.00013117888
0.00016564543
0.00021319569
0.00027969537
0.00037516959
0.00051667335
0.00072961656
0.0010539622
0.0015684288
0.0023881192
0.0036506761
0.0057439973
0.0089989526
0.013680904
0.019874337
0.027487517
0.03623628
0.045627478
0.055069464
0.064047752
0.072234881
0.079486064
0.085773459
0.091128401
0.095612846
0.099305845
0.10229265
0.10465699
0.1064779
0.10782794
0.10877237
0.10936911
0.10966894
0.10971624
0.10954958
0.10920231
0.10870327
0.10807721
0.10734551
0.10652656
0.10563611
0.10468765
0.10369266
0.10266097
0.101601
0.1005199
0.099423731
0.098317735
0.097206359
0.096093332
0.094981817
0.093874495
0.09277362
0.091681066
0.090598373
0.08952682
0.088467458
0.08742113
0.086388506
0.085370117
0.084366367
0.083377551
0.08240387
0.081445445
0.080502324
0.079574499
0.078661906
0.077764444
0.07688196
0.076014294
0.075161199
0.074322523
0.073497817
0.072687209
0.071889511
0.071106235
0.070333437
0.069577745
0.068828114
0.068093523
0.067423455
0.066276104
8.371364e-06
8.9169103e-06
9.5453068e-06
1.0250067e-05
1.1050178e-05
1.1977897e-05
1.3065868e-05
1.435102e-05
1.5865548e-05
1.76398e-05
1.9707872e-05
2.2111307e-05
2.4899769e-05
2.8170157e-05
3.2022832e-05
3.6590958e-05
4.206282e-05
4.8699731e-05
5.6852732e-05
6.6999267e-05
7.9902796e-05
9.6636866e-05
0.00011883031
0.00014911613
0.0001916031
0.00025254939
0.00034299366
0.00048191967
0.00069519525
0.0010376524
0.0015985442
0.0024915039
0.0039751832
0.0063690634
0.0099263163
0.014774481
0.020874874
0.028021761
0.035817703
0.043765951
0.051423332
0.058497224
0.064844865
0.070421542
0.075235722
0.079326331
0.082750193
0.085571744
0.087856455
0.089667564
0.09106405
0.092099788
0.092823208
0.09327733
0.093500143
0.093524906
0.093380734
0.09309304
0.092683931
0.09217254
0.091575378
0.090906711
0.090178859
0.089402434
0.088586566
0.087739148
0.086867009
0.085975988
0.085071084
0.084156595
0.083236202
0.08231305
0.081389805
0.080468728
0.079551749
0.078640491
0.077736319
0.076840375
0.075953613
0.075076816
0.07421062
0.073355538
0.072511968
0.071680216
0.070860504
0.070052986
0.069257745
0.068474832
0.067704205
0.066945886
0.066199628
0.065465683
0.064743151
0.064033503
0.063333492
0.062649081
0.061971305
0.061307332
0.060707843
0.059672918
8.0900799e-06
8.5134041e-06
8.9786452e-06
9.4684393e-06
9.988443e-06
1.0557735e-05
1.1200081e-05
1.1939383e-05
1.2795413e-05
1.378406e-05
1.491984e-05
1.6218001e-05
1.7694275e-05
1.9375703e-05
2.1294708e-05
2.3490285e-05
2.6012523e-05
2.8925792e-05
3.2324702e-05
3.6354942e-05
4.1191589e-05
4.7074977e-05
5.4350333e-05
6.3508812e-05
7.5283287e-05
9.0787583e-05
0.00011178179
0.00014126481
0.00018360184
0.00024652949
0.00034407867
0.00049701767
0.00074529017
0.0011606248
0.0018398542
0.0029833087
0.0048731344
0.0077423228
0.011718938
0.016789794
0.022787387
0.029371354
0.036119026
0.042658412
0.048744006
0.054250677
0.059131506
0.063384515
0.067035401
0.070126205
0.072706402
0.074827635
0.076540644
0.077893388
0.078930167
0.079691167
0.080212513
0.080526422
0.080661437
0.080642679
0.080492137
0.080229032
0.079870139
0.079430071
0.07892152
0.078355536
0.077741749
0.0770885
0.076403002
0.075691499
0.074959401
0.074211384
0.073451478
0.072683147
0.071909384
0.071132762
0.070355487
0.06957945
0.068806267
0.068037314
0.067273758
0.066516581
0.065766606
0.065024517
0.064290876
0.063566145
0.062850684
0.062144794
0.061448668
0.060762531
0.060086356
0.059420535
0.058764461
0.058119568
0.057483273
0.056860868
0.056245303
0.055641859
0.055102401
0.054163421
7.8471055e-06
8.1821332e-06
8.5427202e-06
8.9088284e-06
9.2780626e-06
9.6600312e-06
1.0070998e-05
1.0528605e-05
1.1047899e-05
1.1640603e-05
1.2316149e-05
1.3082782e-05
1.3947911e-05
1.492104e-05
1.6014227e-05
1.7242004e-05
1.8621991e-05
2.0175634e-05
2.1931329e-05
2.3931352e-05
2.6228116e-05
2.8887913e-05
3.1993826e-05
3.5681082e-05
4.0149766e-05
4.5651802e-05
5.2553028e-05
6.14272e-05
7.3067936e-05
8.8772552e-05
0.00011078887
0.00014258267
0.00019007123
0.00026433748
0.00038267372
0.00057758419
0.00091032007
0.0014660705
0.0024219084
0.0040225161
0.0064787695
0.0098967206
0.01426829
0.01943679
0.025093575
0.030875853
0.036479244
0.041708221
0.046461342
0.050697201
0.054411109
0.057621895
0.060361937
0.062670106
0.064587639
0.066155492
0.067412835
0.06839619
0.069139036
0.069671658
0.070021176
0.070211731
0.070264704
0.070198971
0.070031122
0.069775724
0.069445567
0.069051842
0.068604312
0.068111496
0.067580824
0.067018776
0.06643099
0.065822358
0.065197142
0.064559042
0.063911267
0.063256602
0.062597456
0.061935913
0.06127377
0.060612575
0.059953653
0.05929814
0.058647002
0.058001062
0.05736101
0.05672744
0.056100816
0.055481601
0.054870013
0.054266607
0.053671077
0.053084841
0.05250594
0.051939053
0.051378838
0.05082882
0.050341672
0.049486631
7.6344045e-06
7.9018475e-06
8.1875877e-06
8.4734217e-06
8.7531491e-06
9.029976e-06
9.3136411e-06
9.6165103e-06
9.9502077e-06
1.0324389e-05
1.0746844e-05
1.1223846e-05
1.1760491e-05
1.2361687e-05
1.3032942e-05
1.3780706e-05
1.4612511e-05
1.5537268e-05
1.6565891e-05
1.7713298e-05
1.8998586e-05
2.0445578e-05
2.2082391e-05
2.3948423e-05
2.6100955e-05
2.8612797e-05
3.1576231e-05
3.5130135e-05
3.950923e-05
4.5001486e-05
5.2063715e-05
6.1367409e-05
7.3928749e-05
9.1570762e-05
0.00011720289
0.00015576368
0.00021675067
0.000315313
0.00048077604
0.00076898832
0.0012579149
0.0021211773
0.0035705552
0.0057925669
0.008859599
0.012753286
0.01730807
0.02223673
0.027230693
0.032048708
0.036541778
0.040632211
0.044287544
0.047504525
0.050298607
0.052695872
0.054727806
0.056427976
0.05782992
0.058965866
0.059865999
0.060558119
0.061067498
0.06141692
0.061626763
0.061715166
0.061698228
0.06159019
0.061403605
0.061149517
0.060837634
0.060476483
0.060073543
0.059635355
0.05916765
0.058675439
0.058163106
0.057634478
0.057092899
0.056541283
0.055982171
0.055417771
0.054850004
0.054280536
0.053710807
0.053142067
0.052575389
0.05201171
0.051451811
0.050896426
0.050346052
0.049801437
0.049262587
0.04873094
0.04820512
0.047689277
0.04717957
0.046678002
0.046237523
0.045457614
7.4460648e-06
7.6608678e-06
7.8898278e-06
8.1182065e-06
8.3388947e-06
8.5515099e-06
8.7610314e-06
8.9752972e-06
9.2026074e-06
9.4505786e-06
9.7258236e-06
1.0033818e-05
1.0378981e-05
1.0765021e-05
1.1195412e-05
1.1673753e-05
1.2203924e-05
1.2790292e-05
1.3437935e-05
1.415323e-05
1.4944235e-05
1.5820999e-05
1.6795411e-05
1.7882371e-05
1.9102077e-05
2.04807e-05
2.2050346e-05
2.3852619e-05
2.5953349e-05
2.8436284e-05
3.1412192e-05
3.5058294e-05
3.9648754e-05
4.5569488e-05
5.3424785e-05
6.4080486e-05
7.9134577e-05
0.00010117301
0.0001346949
0.0001885279
0.00027672525
0.00042839909
0.00069757499
0.0011608257
0.0019983809
0.0033936555
0.0054934208
0.0083493195
0.011910541
0.015991653
0.020326266
0.024660729
0.028812442
0.032672517
0.036184158
0.039324579
0.042093645
0.044505306
0.046581561
0.048348579
0.049834128
0.051065948
0.052070724
0.052873535
0.053497531
0.053963827
0.054291521
0.054497778
0.054597941
0.054605666
0.054533079
0.05439092
0.054188685
0.053934748
0.053636488
0.053300403
0.05293221
0.052536934
0.052118988
0.051682248
0.051230112
0.050765559
0.050291195
0.049809304
0.04932188
0.048830665
0.048337178
0.047842756
0.04734854
0.046855585
0.046364697
0.045876857
0.045392396
0.044912817
0.04443729
0.043969534
0.043507017
0.043050497
0.042652629
0.041941424
7.276962e-06
7.4506391e-06
7.6355277e-06
7.8203378e-06
7.9985007e-06
8.1680456e-06
8.3310416e-06
8.492009e-06
8.6563472e-06
8.829532e-06
9.0167751e-06
9.2227316e-06
9.4513736e-06
9.7060341e-06
9.9895958e-06
1.0304712e-05
1.0653929e-05
1.1039856e-05
1.1465321e-05
1.193358e-05
1.2448537e-05
1.3014956e-05
1.363851e-05
1.4325992e-05
1.508599e-05
1.5929478e-05
1.6869998e-05
1.7923953e-05
1.911429e-05
2.0471194e-05
2.2032195e-05
2.3850003e-05
2.6002681e-05
2.8596024e-05
3.1769554e-05
3.5782831e-05
4.0994138e-05
4.7952466e-05
5.7486241e-05
7.109776e-05
9.1223222e-05
0.00012233179
0.00017323517
0.00025793499
0.00040814869
0.00067677272
0.0011585492
0.0020228247
0.0034319726
0.005489184
0.0082179031
0.011527066
0.015214817
0.019043272
0.022813807
0.026394271
0.029707882
0.032715437
0.035403191
0.03777418
0.039841719
0.041625055
0.043146432
0.044429179
0.045496458
0.046370501
0.047072188
0.04762083
0.048034089
0.048327982
0.048516941
0.04861391
0.048630457
0.04857688
0.048462328
0.048294914
0.048081824
0.047829411
0.047543291
0.047228421
0.046889172
0.046529398
0.046152492
0.045761442
0.045358875
0.044947104
0.044528157
0.044103829
0.043675678
0.043245123
0.042813324
0.042381533
0.041950427
0.041521618
0.041094804
0.040673367
0.040255916
0.039842247
0.039484167
0.038837075
7.1227546e-06
7.2642394e-06
7.4146578e-06
7.5655513e-06
7.7113651e-06
7.8496473e-06
7.980914e-06
8.1075902e-06
8.2329502e-06
8.360606e-06
8.4942957e-06
8.6376452e-06
8.7939949e-06
8.9663144e-06
9.1572134e-06
9.3690144e-06
9.6038012e-06
9.8635247e-06
1.0150119e-05
1.0465609e-05
1.0812224e-05
1.1192534e-05
1.1609534e-05
1.2066728e-05
1.2568322e-05
1.311952e-05
1.3726718e-05
1.4397549e-05
1.5141782e-05
1.5972096e-05
1.6904184e-05
1.7958209e-05
1.916184e-05
2.0552471e-05
2.2175618e-05
2.4105039e-05
2.6443074e-05
2.9327581e-05
3.2982726e-05
3.7775477e-05
4.4235784e-05
5.3199837e-05
6.619498e-05
8.5649773e-05
0.00011650141
0.00016766646
0.00025575178
0.00041630426
0.00070377898
0.0012383685
0.0021742752
0.0036453871
0.0057148921
0.0083631014
0.011456779
0.01479272
0.018173223
0.021452098
0.024537391
0.027376841
0.029945521
0.032237162
0.034257476
0.036019487
0.037540351
0.038839216
0.039935825
0.040849637
0.041599274
0.042202209
0.042674607
0.043031264
0.043285624
0.043449825
0.043534774
0.043550238
0.043504941
0.043406653
0.043262288
0.043077986
0.042859192
0.042610733
0.042336881
0.042041417
0.041727683
0.041398635
0.041056882
0.040704738
0.040344235
0.039977209
0.039605214
0.039229819
0.038852075
0.038473753
0.038095056
0.037719136
0.037345591
0.036973535
0.036653414
0.036067311
6.9799464e-06
7.0961168e-06
7.2194457e-06
7.3436309e-06
7.4641476e-06
7.5785598e-06
7.6866212e-06
7.7895492e-06
7.8892605e-06
7.9880158e-06
8.0883042e-06
8.1927102e-06
8.3037941e-06
8.4239982e-06
8.5555914e-06
8.7006522e-06
8.8610473e-06
9.0384684e-06
9.2344985e-06
9.4506694e-06
9.6885248e-06
9.949698e-06
1.0235989e-05
1.0549422e-05
1.0892321e-05
1.1267442e-05
1.1678104e-05
1.2128238e-05
1.2622634e-05
1.3167302e-05
1.3769653e-05
1.4438852e-05
1.5186699e-05
1.6028812e-05
1.698411e-05
1.8079042e-05
1.9350167e-05
2.0844537e-05
2.2629589e-05
2.4808446e-05
2.7521556e-05
3.0984592e-05
3.5584425e-05
4.1854008e-05
5.0717416e-05
6.3755705e-05
8.3729134e-05
0.00011640718
0.00017145238
0.00027025464
0.00045236789
0.00078849073
0.0014127458
0.002461748
0.0040256168
0.0061310558
0.0087050354
0.011586364
0.014590503
0.017566071
0.020411053
0.023063603
0.025490206
0.027677063
0.029623477
0.031337063
0.032830439
0.034118979
0.035219294
0.036148236
0.036922267
0.037557061
0.038067291
0.038466515
0.038767147
0.038980467
0.039116678
0.039184962
0.039193561
0.03914985
0.039060419
0.03893114
0.038767243
0.038573378
0.038353678
0.038111814
0.037851043
0.037574263
0.037284035
0.036982666
0.036672151
0.036354425
0.036030939
0.035703676
0.035373338
0.03504294
0.034712949
0.034382056
0.034098885
0.033571852
6.8458186e-06
6.9419456e-06
7.0438559e-06
7.1468487e-06
7.2472961e-06
7.3429657e-06
7.4332533e-06
7.5186943e-06
7.6003944e-06
7.6797496e-06
7.7583598e-06
7.8379595e-06
7.9203605e-06
8.0074006e-06
8.1008962e-06
8.2026012e-06
8.3141548e-06
8.4370692e-06
8.5727491e-06
8.7225109e-06
8.88761e-06
9.0692814e-06
9.2687902e-06
9.4874765e-06
9.7267982e-06
9.9883957e-06
1.0274169e-05
1.0586327e-05
1.0927476e-05
1.1300769e-05
1.1710041e-05
1.2159939e-05
1.265621e-05
1.3206207e-05
1.3818903e-05
1.4505836e-05
1.5282396e-05
1.6168233e-05
1.7189173e-05
1.8381835e-05
1.9795186e-05
2.1495927e-05
2.3592892e-05
2.6230383e-05
2.9643488e-05
3.4238513e-05
4.0603336e-05
4.9816992e-05
6.36118e-05
8.5488152e-05
0.00012213471
0.00018607825
0.00030537659
0.00052475213
0.00094605194
0.0016965163
0.0028835731
0.0045588813
0.0066951615
0.0091726746
0.011827747
0.014511602
0.017117176
0.019576221
0.021848969
0.023915811
0.025770891
0.027417327
0.028863878
0.030122617
0.031207352
0.032132555
0.032912673
0.033561676
0.034092796
0.034518373
0.034849795
0.03509748
0.035270903
0.035378641
0.035428422
0.035427196
0.035381192
0.035295983
0.035176552
0.035027347
0.03485233
0.034655043
0.034438633
0.03420593
0.033959417
0.033701441
0.03343389
0.033159009
0.032877999
0.032593826
0.032307729
0.032018217
0.031771676
0.031302821
6.7182946e-06
6.7984243e-06
6.8832709e-06
6.9693179e-06
7.0536789e-06
7.1343837e-06
7.2106733e-06
7.2826862e-06
7.3510399e-06
7.4166018e-06
7.4804029e-06
7.5435848e-06
7.6073724e-06
7.6730585e-06
7.7419858e-06
7.8155212e-06
7.8950095e-06
7.9817438e-06
8.076958e-06
8.1818195e-06
8.29743e-06
8.4248377e-06
8.5650637e-06
8.7191297e-06
8.8880844e-06
9.0730404e-06
9.2752191e-06
9.4959885e-06
9.7369079e-06
9.9997975e-06
1.0286811e-05
1.0600514e-05
1.094399e-05
1.1321052e-05
1.1736345e-05
1.2195602e-05
1.2706159e-05
1.3277292e-05
1.392072e-05
1.4652027e-05
1.5491749e-05
1.6466192e-05
1.7613981e-05
1.8986232e-05
2.0655238e-05
2.2737764e-05
2.5388036e-05
2.888683e-05
3.3669167e-05
4.0459416e-05
5.050231e-05
6.5964628e-05
9.1555341e-05
0.00013528267
0.00021590548
0.00036742932
0.0006584777
0.0012025073
0.002110872
0.0034503831
0.005226556
0.0073555388
0.0096968072
0.012109319
0.014485193
0.01675272
0.018868029
0.02080733
0.022560822
0.02412805
0.025514586
0.026729703
0.02778476
0.02869211
0.029464364
0.030113915
0.030652638
0.031091715
0.03144154
0.031711688
0.031910915
0.032047182
0.032127698
0.032158969
0.03214685
0.032096601
0.032012938
0.031900089
0.031761836
0.031601581
0.03142234
0.031226917
0.031017671
0.030797158
0.030567088
0.030330461
0.030089209
0.029841873
0.029632239
0.029221558
6.595798e-06
6.663055e-06
6.7341956e-06
6.8065796e-06
6.8779229e-06
6.946526e-06
7.0115837e-06
7.0729975e-06
7.1310761e-06
7.1863544e-06
7.2395083e-06
7.2913e-06
7.3425533e-06
7.3941499e-06
7.4470309e-06
7.5021916e-06
7.5606565e-06
7.6234569e-06
7.6916173e-06
7.7661383e-06
7.8479831e-06
7.938072e-06
8.037289e-06
8.1464926e-06
8.2665296e-06
8.3982548e-06
8.5425574e-06
8.7003857e-06
8.8727749e-06
9.0608839e-06
9.2660359e-06
9.4897644e-06
9.7338663e-06
1.0000494e-05
1.029223e-05
1.0612196e-05
1.0964244e-05
1.1353165e-05
1.178489e-05
1.2266959e-05
1.2809096e-05
1.3423469e-05
1.4126552e-05
1.4940016e-05
1.5892208e-05
1.7025175e-05
1.8393141e-05
2.0080686e-05
2.2215231e-05
2.4975793e-05
2.8706002e-05
3.3905381e-05
4.1524875e-05
5.30313e-05
7.1614378e-05
0.00010318751
0.00016019813
0.00026867162
0.00047595065
0.00087871577
0.0015836837
0.0026652714
0.0041505394
0.0059850694
0.0080508167
0.010217208
0.01237864
0.014462387
0.016422402
0.018232223
0.019879253
0.021360317
0.022678447
0.023840593
0.024856031
0.025735259
0.026489254
0.027128976
0.027665054
0.028107586
0.02846603
0.02874915
0.028965004
0.029120952
0.029223687
0.029279275
0.029293193
0.029270385
0.029215293
0.029131929
0.02902388
0.028894446
0.028746491
0.02858293
0.028405988
0.028218779
0.028023866
0.027820021
0.027648091
0.027296371
6.4771333e-06
6.5339508e-06
6.5939927e-06
6.6552693e-06
6.7159805e-06
6.7746846e-06
6.8305933e-06
6.8834698e-06
6.9334197e-06
6.980756e-06
7.0259233e-06
7.0694419e-06
7.1118784e-06
7.1538384e-06
7.1959705e-06
7.2389721e-06
7.2835814e-06
7.3305688e-06
7.3807298e-06
7.4348717e-06
7.4937977e-06
7.558295e-06
7.6291299e-06
7.7070471e-06
7.7927718e-06
7.887018e-06
7.9905019e-06
8.1039556e-06
8.2281441e-06
8.3638865e-06
8.5120796e-06
8.6737248e-06
8.8499595e-06
9.0421012e-06
9.2516949e-06
9.4805673e-06
9.7309115e-06
1.0005394e-05
1.0307262e-05
1.0640526e-05
1.1010224e-05
1.142259e-05
1.1885628e-05
1.2409684e-05
1.3007835e-05
1.3698113e-05
1.4503678e-05
1.5456772e-05
1.6604136e-05
1.800642e-05
1.9766201e-05
2.202653e-05
2.5021699e-05
2.9156741e-05
3.5116189e-05
4.4052371e-05
5.8153449e-05
8.195996e-05
0.00012401697
0.00020452672
0.0003573893
0.00066281271
0.0012185137
0.0021046016
0.003359129
0.0049493991
0.0067773753
0.0087242648
0.010689092
0.012600128
0.014410736
0.016093045
0.017632643
0.0190244
0.02026939
0.021372695
0.022341847
0.023185756
0.023913968
0.024536167
0.025061851
0.025500123
0.025859567
0.026148186
0.026373373
0.026541913
0.026660002
0.026733276
0.026766843
0.026765339
0.026732939
0.026673472
0.026590331
0.026486829
0.026365719
0.026230296
0.026083706
0.025925127
0.025792164
0.025500907
6.3613946e-06
6.4096835e-06
6.4606693e-06
6.5128457e-06
6.5647985e-06
6.6153211e-06
6.6636783e-06
6.7095599e-06
6.752939e-06
6.7939744e-06
6.8329499e-06
6.8702233e-06
6.9061939e-06
6.9412893e-06
6.975964e-06
7.0107051e-06
7.0460313e-06
7.0824941e-06
7.1206782e-06
7.1611963e-06
7.2046794e-06
7.2517657e-06
7.3030938e-06
7.3592961e-06
7.4209952e-06
7.4888037e-06
7.5633287e-06
7.6451775e-06
7.7349656e-06
7.8333292e-06
7.9409375e-06
8.0585089e-06
8.1868304e-06
8.3267804e-06
8.4793571e-06
8.6457103e-06
8.8271827e-06
9.0253656e-06
9.2421612e-06
9.4798631e-06
9.741285e-06
1.0029864e-05
1.0349873e-05
1.0706706e-05
1.1107068e-05
1.1559723e-05
1.2075842e-05
1.2670011e-05
1.3362431e-05
1.4178718e-05
1.5157048e-05
1.634992e-05
1.783278e-05
1.972633e-05
2.2211478e-05
2.5597551e-05
3.040892e-05
3.7596434e-05
4.8716052e-05
6.7344097e-05
9.9705463e-05
0.00016130583
0.00027990373
0.0005181106
0.00096555784
0.0017030844
0.0027752446
0.0041647035
0.0057898491
0.0075434253
0.009330424
0.011081604
0.012750997
0.014310355
0.015744288
0.017046361
0.018216212
0.019257455
0.020176203
0.020980023
0.021677228
0.022276378
0.022785957
0.023214165
0.023568787
0.023857117
0.024085928
0.024261463
0.024389444
0.024475104
0.024523201
0.024538102
0.024523735
0.024483846
0.024421718
0.024340885
0.02424504
0.024133922
0.024041596
0.023812942
6.2478964e-06
6.2891704e-06
6.3327142e-06
6.377382e-06
6.4220652e-06
6.4657642e-06
6.5078159e-06
6.5478808e-06
6.5858485e-06
6.621771e-06
6.6558159e-06
6.6882247e-06
6.7192813e-06
6.749295e-06
6.7785942e-06
6.8075269e-06
6.8364608e-06
6.8657861e-06
6.8959199e-06
6.9273075e-06
6.9604187e-06
6.995743e-06
7.033784e-06
7.0750544e-06
7.1200703e-06
7.1693479e-06
7.2234027e-06
7.2827498e-06
7.3479063e-06
7.4193968e-06
7.497759e-06
7.5835526e-06
7.6773702e-06
7.7798501e-06
7.8916929e-06
8.0136798e-06
8.1466967e-06
8.2917627e-06
8.4500669e-06
8.623011e-06
8.812272e-06
9.0198671e-06
9.248245e-06
9.5004281e-06
9.780122e-06
1.0091996e-05
1.0441924e-05
1.0837312e-05
1.1287978e-05
1.1806281e-05
1.2409119e-05
1.311928e-05
1.3967359e-05
1.4998217e-05
1.6274953e-05
1.789462e-05
2.0007087e-05
2.285216e-05
2.6853748e-05
3.2791905e-05
4.1884618e-05
5.6899988e-05
8.2900806e-05
0.00013190031
0.00022701373
0.00041876729
0.00078810637
0.0014134754
0.0023425928
0.0035683559
0.005021997
0.0066068425
0.0082345161
0.0098393116
0.011376891
0.012819458
0.014151313
0.015365274
0.016459979
0.017437932
0.018304108