/*--------------------------------*- C++ -*----------------------------------*\
| =========                 |                                                 |
| \\      /  F ield         | OpenFOAM: The Open Source CFD Toolbox           |
|  \\    /   O peration     | Version:  2206                                  |
|   \\  /    A nd           | Website:  www.openfoam.com                      |
|    \\/     M anipulation  |                                                 |
\*---------------------------------------------------------------------------*/
FoamFile
{
    version     2.0;
    format      ascii;
    arch        "LSB;label=32;scalar=64";
    class       volScalarField;
    location    "2000";
    object      k;
}
// * * * * * * * * * * * * * * * * * * * * * * * * * * * * * * * * * * * * * //

dimensions      [0 2 -2 0 0 0 0];

internalField   nonuniform List<scalar> 
7480
(
0.032183716
0.062207696
0.068880826
0.063434807
0.054885475
0.047529278
0.042226068
0.038401338
0.035465575
0.033072877
0.031066031
0.029371674
0.027940129
0.026729622
0.025703877
0.024830108
0.024083348
0.023443934
0.022893821
0.022418139
0.022000771
0.021630438
0.021297681
0.020994934
0.020717092
0.020460029
0.020220819
0.019996645
0.019784943
0.019583576
0.019391333
0.019207428
0.019031001
0.018861333
0.018697629
0.018539416
0.018385725
0.018236283
0.0180907
0.017948549
0.017809539
0.017673394
0.017539904
0.017408928
0.017280299
0.017153901
0.017029572
0.01690714
0.016786509
0.016667576
0.01655026
0.01643451
0.016320256
0.016207464
0.016096069
0.015986024
0.015877292
0.015769812
0.015663526
0.015558391
0.015454404
0.01535155
0.015249798
0.015149126
0.015049514
0.014950945
0.014853385
0.014756809
0.014661202
0.014566551
0.014472839
0.014380047
0.014288163
0.014197176
0.014107071
0.014017829
0.013929435
0.013841873
0.013755129
0.013669189
0.013584036
0.013499655
0.01341603
0.01333314
0.013250967
0.013169486
0.013088673
0.01300849
0.012928911
0.012849854
0.012771326
0.012693066
0.012615323
0.012537079
0.012459779
0.012379427
0.012301648
0.012212854
0.012141839
0.012005122
0.00254084
0.0095662265
0.016659257
0.020687709
0.021734962
0.021467276
0.020835131
0.020189161
0.019558754
0.018931835
0.018324306
0.017761276
0.017256863
0.016813261
0.016427249
0.016086027
0.015788485
0.015533116
0.015314309
0.0151239
0.014955284
0.014802861
0.014661983
0.014530066
0.014405984
0.014288473
0.014177148
0.014070086
0.013966027
0.013864192
0.013764623
0.01366735
0.013572154
0.013478909
0.013387118
0.013296883
0.013207385
0.013118931
0.013031408
0.012944628
0.012858487
0.012772939
0.012687981
0.012603603
0.012519795
0.01243657
0.012353844
0.012271576
0.012189757
0.012108377
0.012027456
0.011947002
0.01186702
0.011787528
0.011708512
0.011629991
0.011551964
0.011474414
0.011397318
0.011320685
0.011244542
0.011168906
0.011093778
0.011019159
0.01094506
0.010871485
0.010798424
0.010725873
0.010653841
0.010582333
0.010511351
0.010440891
0.010370958
0.010301558
0.010232687
0.010164342
0.010096521
0.010029222
0.0099624446
0.0098961852
0.0098304407
0.009765207
0.0097004797
0.0096362527
0.009572519
0.0095092695
0.0094464936
0.0093841768
0.0093223023
0.0092608445
0.0091997779
0.0091390445
0.0090786191
0.0090183213
0.0089582255
0.0088976424
0.0088370933
0.0087736173
0.0087173017
0.0086150807
0.00023175767
0.00058201229
0.0013162792
0.0026361647
0.0042089601
0.0058222412
0.0072747714
0.0085089721
0.0095739984
0.010503498
0.011301769
0.011963936
0.012493867
0.012908659
0.013231639
0.013490747
0.013701265
0.0138716
0.014007684
0.014114184
0.01419537
0.014254704
0.014294307
0.014317783
0.014328128
0.014326742
0.014318396
0.014301606
0.014277361
0.014246296
0.014210081
0.014169656
0.014125561
0.014078437
0.014028123
0.013975557
0.013919863
0.013862299
0.013802803
0.013741467
0.013678448
0.013613934
0.013548126
0.013481183
0.013413252
0.013344491
0.013274895
0.013204546
0.01313353
0.013061929
0.012989852
0.012917374
0.012844571
0.01277152
0.012698257
0.012624854
0.012551352
0.012477768
0.012404111
0.012330432
0.012256794
0.012183246
0.01210981
0.012036517
0.011963402
0.01189049
0.011817785
0.011745305
0.011673078
0.011601126
0.011529464
0.011458103
0.011387061
0.011316359
0.011246003
0.011176
0.011106359
0.011037089
0.010968197
0.010899689
0.010831571
0.010763846
0.010696518
0.010629587
0.010563054
0.010496918
0.010431173
0.010365816
0.010300832
0.010236215
0.010171927
0.01010797
0.010044235
0.0099807757
0.0099172677
0.0098539343
0.0097898339
0.0097249452
0.0096645208
0.0095588266
0.00017319789
0.0001858821
0.00021649618
0.00029625745
0.0004606061
0.00070404171
0.0011563284
0.0017923606
0.002615527
0.0035354732
0.0044932571
0.0054736785
0.006464207
0.0074419479
0.0083754842
0.0092359257
0.010004907
0.010677054
0.011257429
0.011755835
0.012182136
0.012545043
0.01285279
0.013112027
0.013329355
0.013509863
0.013659054
0.013781582
0.013880847
0.013960499
0.014023135
0.014071143
0.014106477
0.014131158
0.014146151
0.01415305
0.014150495
0.014141675
0.014126167
0.014104927
0.014078533
0.014047534
0.014012444
0.013973693
0.013931684
0.013886791
0.013839135
0.013789015
0.013736657
0.013682278
0.013626113
0.013568344
0.013509149
0.013448697
0.01338709
0.013324482
0.013260972
0.01319663
0.013131516
0.013065733
0.012999397
0.012932595
0.012865386
0.012797837
0.012730016
0.012661977
0.012593748
0.012525371
0.012456901
0.012388381
0.012319844
0.01225132
0.012182844
0.012114456
0.012046175
0.011978021
0.011910017
0.011842184
0.011774541
0.011707105
0.011639892
0.011572915
0.011506186
0.011439716
0.011373513
0.011307584
0.011241932
0.011176562
0.011111466
0.01104665
0.010982078
0.010917781
0.010853623
0.010789769
0.010725727
0.010662148
0.010597451
0.010533079
0.010471578
0.010366675
0.00017723072
0.00018019871
0.00018249766
0.00018498748
0.00019123273
0.00020322521
0.00023265912
0.00029589453
0.00040206192
0.00060250097
0.00091737129
0.0013532368
0.0019229218
0.0025908475
0.0033469129
0.0041828871
0.0050816132
0.006013132
0.0069392439
0.0078229491
0.0086376178
0.0093708485
0.0100219
0.010595656
0.011098649
0.011537154
0.01191777
0.0122472
0.012532129
0.012778072
0.012989625
0.01317098
0.013325859
0.013457162
0.013567912
0.013661012
0.013737499
0.013799743
0.013849365
0.013887483
0.013915227
0.013933777
0.013944118
0.013947082
0.013943468
0.013933988
0.013919138
0.013899324
0.013874948
0.013846445
0.013814252
0.013778703
0.013740114
0.013698787
0.013654964
0.01360893
0.013560861
0.013510913
0.013459214
0.013405952
0.013351313
0.013295442
0.01323845
0.013180458
0.013121582
0.013061914
0.013001515
0.012940467
0.012878858
0.012816759
0.012754233
0.012691332
0.012628118
0.012564653
0.012500977
0.012437127
0.012373145
0.012309069
0.012244933
0.012180768
0.012116603
0.012052467
0.011988382
0.01192437
0.011860451
0.011796643
0.011732959
0.011669412
0.011606007
0.01154276
0.011479642
0.011416708
0.011353811
0.01129119
0.011228266
0.011165951
0.011102321
0.011039741
0.010979041
0.010876968
0.0001800633
0.00018553211
0.00018814464
0.0001889952
0.0001891771
0.00018917273
0.00018931435
0.00019060517
0.00019483274
0.0002068296
0.00023416336
0.00028625592
0.00037071227
0.00052122775
0.0007535351
0.0010895282
0.0015395493
0.0020956462
0.0027574922
0.0035183843
0.0043585847
0.0052447695
0.0061362465
0.0069954104
0.007796466
0.0085273418
0.0091860058
0.0097752466
0.010299621
0.01076428
0.011174684
0.011536355
0.011854513
0.012133736
0.012378277
0.012592272
0.012778725
0.012940673
0.013080844
0.013201523
0.01330477
0.013392306
0.013465718
0.013526434
0.013575663
0.013614479
0.01364401
0.013665137
0.013678665
0.013685294
0.013685635
0.013680222
0.013669584
0.013654195
0.013634495
0.013610953
0.013583838
0.013553428
0.013519999
0.013483842
0.0134452
0.013404294
0.01336131
0.013316426
0.013269838
0.013221699
0.013172119
0.013121233
0.013069176
0.013016056
0.012961972
0.012907011
0.012851271
0.012794844
0.012737793
0.012680184
0.01262208
0.012563542
0.012504624
0.012445376
0.012385847
0.012326079
0.012266112
0.012205984
0.012145726
0.012085371
0.012024944
0.011964472
0.01190397
0.011843468
0.011782947
0.011722484
0.01166193
0.011601576
0.011540807
0.01148069
0.011419138
0.011359093
0.011300305
0.011202191
0.00018035795
0.00018769792
0.00019233697
0.0001945969
0.00019525232
0.00019514538
0.00019457412
0.00019373111
0.00019291499
0.00019221057
0.00019250899
0.00019419825
0.00019895962
0.00021049319
0.000233842
0.00027694568
0.00034618228
0.00046854658
0.00066326171
0.0009526065
0.0013531788
0.0018644581
0.0024878939
0.0032143914
0.0040200002
0.0048680684
0.0057177983
0.0065351277
0.0072991275
0.0080011666
0.0086399709
0.0092173602
0.009736474
0.010201276
0.010616245
0.010986099
0.011315045
0.011607043
0.01186582
0.012094718
0.012296751
0.012474581
0.012630597
0.012766955
0.012885562
0.0129881
0.013076161
0.013151141
0.013214283
0.013266688
0.013309327
0.013343112
0.013368813
0.013387126
0.013398708
0.013404085
0.013403851
0.013398503
0.013388499
0.013374214
0.013356007
0.013334208
0.013309097
0.01328096
0.013250078
0.013216676
0.013180918
0.013143017
0.013103154
0.013061503
0.013018218
0.012973446
0.012927303
0.01287991
0.012831376
0.012781802
0.012731281
0.012679901
0.012627745
0.012574886
0.012521394
0.012467334
0.012412766
0.012357746
0.012302323
0.012246545
0.012190454
0.012134092
0.012077488
0.012020688
0.011963686
0.011906576
0.011849221
0.011791942
0.011734128
0.011676924
0.011618205
0.011561249
0.011505133
0.011411805
0.00017901287
0.00018707544
0.00019292377
0.00019625395
0.00019777465
0.00019841455
0.00019824639
0.00019779203
0.00019708129
0.0001961712
0.00019525004
0.00019438398
0.00019375303
0.00019336693
0.00019384052
0.00019584673
0.00020081189
0.0002116803
0.00023302475
0.00027227297
0.00033697775
0.0004522844
0.0006400534
0.00092245008
0.0013159335
0.0018234099
0.0024435227
0.0031611596
0.0039461506
0.0047591943
0.0055628295
0.0063303027
0.0070475091
0.0077092583
0.0083147611
0.0088653647
0.0093636635
0.0098130896
0.010217441
0.010580488
0.010905867
0.011196995
0.011457023
0.011688854
0.011895127
0.012078215
0.012240306
0.012383381
0.012509218
0.012619412
0.01271538
0.012798416
0.01286967
0.012930168
0.012980853
0.013022544
0.013056033
0.013082035
0.013101201
0.0131141
0.01312125
0.013123125
0.013120173
0.013112768
0.013101246
0.013085946
0.013067202
0.013045274
0.013020415
0.012992863
0.012962835
0.012930536
0.012896137
0.012859815
0.012821715
0.012781982
0.012740749
0.01269814
0.012654268
0.012609239
0.012563152
0.012516097
0.012468158
0.012419414
0.012369938
0.012319796
0.01226905
0.012217759
0.012165971
0.012113748
0.0120611
0.012008139
0.011954748
0.011901266
0.011847107
0.01179345
0.011738205
0.011684831
0.011631978
0.011544147
0.00017656699
0.00018459168
0.00019104339
0.00019516593
0.00019733173
0.00019837781
0.00019841113
0.00019826552
0.00019791426
0.00019741825
0.00019680748
0.00019609614
0.00019530308
0.00019451673
0.00019378865
0.00019315861
0.00019264147
0.00019251842
0.00019326476
0.00019584419
0.00020141519
0.00021301374
0.00023569174
0.0002768532
0.00034843937
0.00047460994
0.00068018534
0.00098647157
0.0014041808
0.0019366691
0.0025756308
0.0032969237
0.0040643117
0.0048396585
0.0055931133
0.0063070142
0.0069732806
0.0075890462
0.0081540514
0.0086696911
0.0091384805
0.0095634702
0.0099478543
0.010294835
0.010607518
0.010888823
0.011141495
0.01136808
0.011570915
0.011752131
0.011913648
0.012057218
0.012184422
0.012296686
0.012395307
0.012481441
0.012556159
0.012620441
0.012675181
0.012721178
0.012759155
0.012789766
0.012813621
0.012831255
0.012843149
0.012849758
0.01285152
0.012848811
0.01284198
0.012831349
0.012817215
0.012799853
0.012779513
0.012756411
0.012730769
0.012702777
0.012672617
0.012640456
0.012606448
0.012570738
0.012533457
0.012494731
0.012454672
0.012413388
0.012370977
0.01232753
0.012283133
0.012237866
0.012191797
0.012145008
0.012097531
0.012049493
0.012000801
0.011951808
0.011901971
0.011852467
0.011801296
0.011751991
0.011702907
0.011621247
0.00017354279
0.00018100614
0.00018752945
0.00019218227
0.00019496803
0.0001964432
0.00019697802
0.00019703508
0.00019684676
0.00019651595
0.00019609044
0.00019559086
0.0001950287
0.00019441907
0.00019377449
0.0001930921
0.00019242161
0.00019175654
0.00019113566
0.00019064271
0.00019039488
0.00019067167
0.00019203967
0.00019550084
0.00020271808
0.00021722243
0.00024534334
0.00029504569
0.00038616777
0.00054290655
0.00078973517
0.0011440055
0.001611616
0.0021888041
0.0028558461
0.0035793214
0.0043217735
0.0050524497
0.0057520549
0.0064108111
0.007024411
0.0075914516
0.0081124113
0.0085890315
0.0090237177
0.0094191553
0.0097781528
0.010103509
0.010397923
0.01066395
0.010903965
0.011120171
0.011314595
0.011489089
0.011645347
0.0117849
0.011909154
0.0120194
0.012116821
0.012202487
0.012277365
0.012342334
0.012398201
0.012445694
0.012485467
0.012518125
0.01254424
0.012564323
0.01257884
0.01258822
0.012592857
0.012593116
0.012589329
0.012581793
0.012570793
0.012556586
0.012539412
0.012519491
0.01249703
0.012472216
0.012445226
0.012416222
0.012385356
0.012352768
0.012318587
0.012282936
0.012245925
0.012207662
0.012168239
0.012127762
0.012086284
0.012043953
0.012000704
0.011956899
0.011912049
0.011867311
0.011820804
0.011776071
0.011731231
0.011656418
0.00017039086
0.00017699084
0.00018314881
0.00018798755
0.00019126507
0.00019322718
0.00019423069
0.00019463425
0.00019468688
0.00019453256
0.00019425162
0.00019388932
0.00019346494
0.00019299448
0.00019248853
0.00019194969
0.0001913887
0.00019080656
0.00019019792
0.00018958195
0.00018897977
0.00018841856
0.00018796565
0.00018771593
0.00018784795
0.00018873199
0.00019117626
0.00019633354
0.00020686765
0.0002277803
0.00026656506
0.00033786392
0.00046578946
0.00067595621
0.0009888455
0.0014126034
0.0019460977
0.0025719381
0.0032583758
0.0039690348
0.004673736
0.0053531685
0.0059970058
0.0066001731
0.0071605634
0.007678059
0.0081538565
0.0085898718
0.0089883933
0.0093518904
0.0096828596
0.0099837477
0.010256898
0.010504516
0.01072866
0.010931229
0.011113979
0.011278537
0.011426399
0.011558937
0.011677398
0.01178292
0.011876544
0.011959219
0.012031804
0.012095087
0.012149802
0.012196619
0.012236145
0.012268938
0.012295511
0.012316335
0.012331843
0.012342427
0.012348452
0.012350254
0.012348144
0.012342407
0.012333308
0.012321093
0.012305988
0.012288203
0.012267934
0.01224536
0.012220649
0.012193958
0.012165431
0.012135205
0.012103403
0.012070154
0.012035542
0.011999734
0.0119627
0.011924808
0.011885632
0.011846295
0.011805056
0.011765433
0.011725308
0.011658039
0.00016741847
0.00017304346
0.00017855316
0.00018323379
0.00018675439
0.00018913505
0.00019059245
0.00019139497
0.00019176376
0.00019185193
0.00019175944
0.00019154889
0.00019125699
0.00019090654
0.00019051299
0.00019008586
0.00018963229
0.00018915666
0.00018865878
0.00018814153
0.00018760838
0.0001870623
0.00018650486
0.00018596544
0.00018547206
0.00018506844
0.00018485428
0.00018495881
0.00018567701
0.00018763763
0.00019188993
0.0002004978
0.00021772964
0.00025066046
0.00031174789
0.00042459858
0.00061513743
0.00090484858
0.0013033421
0.0018101662
0.002408113
0.0030658041
0.0037481083
0.0044265641
0.0050830649
0.0057076084
0.0062949525
0.0068427264
0.0073505252
0.0078192032
0.0082503281
0.0086458772
0.0090080304
0.0093390232
0.0096410695
0.0099163013
0.010166749
0.010394328
0.010600836
0.01078794
0.010957176
0.011109959
0.011247588
0.011371258
0.011482058
0.011580986
0.011668969
0.011746855
0.011815418
0.011875367
0.011927354
0.011971981
0.012009797
0.012041303
0.012066966
0.012087212
0.012102436
0.012113002
0.012119247
0.012121481
0.012119991
0.012115045
0.012106889
0.012095752
0.012081845
0.012065366
0.012046498
0.012025415
0.012002272
0.011977229
0.011950403
0.011921984
0.011891979
0.011860766
0.011827985
0.011794723
0.011759384
0.011725449
0.011690527
0.011631539
0.0001647836
0.00016945938
0.00017419728
0.000178466
0.00018195385
0.00018456578
0.00018638035
0.00018756001
0.00018826983
0.00018864494
0.00018878721
0.00018876823
0.00018863614
0.00018842279
0.00018815004
0.00018783314
0.00018748226
0.00018710441
0.00018670356
0.00018628249
0.00018584332
0.00018538761
0.00018491485
0.00018442946
0.00018393738
0.00018344371
0.00018296282
0.00018253057
0.00018218696
0.00018202252
0.00018216472
0.00018286706
0.00018466975
0.00018856512
0.00019636006
0.00021204492
0.00024246648
0.00029985396
0.00040746656
0.00059158904
0.00087317058
0.0012622729
0.0017571354
0.0023387273
0.0029750562
0.0036326148
0.0042856367
0.0049180629
0.0055207902
0.006088858
0.0066199889
0.0071137338
0.0075707711
0.0079924442
0.0083804907
0.0087368448
0.00906352
0.0093625298
0.0096358397
0.0098853318
0.010112784
0.010319862
0.010508118
0.010678995
0.010833822
0.010973827
0.011100143
0.011213819
0.011315816
0.011407015
0.011488228
0.011560203
0.011623628
0.011679132
0.011727295
0.011768652
0.011803698
0.011832886
0.011856638
0.011875341
0.011889355
0.011899012
0.011904619
0.011906462
0.011904805
0.011899893
0.011891955
0.011881206
0.01186784
0.011852054
0.011834
0.011813897
0.011791794
0.011768077
0.011742461
0.011715991
0.011687226
0.011659603
0.011630405
0.011580483
0.00016253089
0.00016636231
0.0001703293
0.00017405525
0.00017729272
0.00017991821
0.00018192566
0.00018338598
0.00018439738
0.00018505755
0.00018545258
0.00018565118
0.00018570497
0.00018565147
0.00018551793
0.00018532438
0.00018508483
0.00018480924
0.00018450463
0.00018417586
0.00018382629
0.00018345825
0.00018307282
0.00018267125
0.00018225525
0.00018182619
0.00018138611
0.0001809421
0.00018050227
0.0001800771
0.00017970498
0.00017942855
0.00017933081
0.00017954982
0.00018032215
0.00018217041
0.00018607356
0.00019383582
0.00020951177
0.00023999351
0.00029880296
0.0004092962
0.00059828477
0.00088469357
0.0012778005
0.0017725298
0.0023463424
0.0029665162
0.0036019807
0.004230433
0.0048382834
0.0054176685
0.0059642509
0.0064760787
0.0069527832
0.0073949736
0.0078038667
0.0081810354
0.008528241
0.008847323
0.0091401249
0.0094084489
0.009654026
0.0098785006
0.010083418
0.010270222
0.010440259
0.01059478
0.010734942
0.010861815
0.010976387
0.011079567
0.011172198
0.011255052
0.011328843
0.011394227
0.011451812
0.011502158
0.011545782
0.011583162
0.01161474
0.011640924
0.011662094
0.011678599
0.011690764
0.011698892
0.011703263
0.011704139
0.011701762
0.011696368
0.011688152
0.011677365
0.011664101
0.011648761
0.011631135
0.011612233
0.011590761
0.011570129
0.011547217
0.011507209
0.00016063919
0.00016376084
0.00016703233
0.000170191
0.00017305579
0.00017551899
0.0001775435
0.00017914422
0.00018036369
0.00018125712
0.0001818835
0.00018229743
0.00018254525
0.0001826642
0.00018268354
0.00018262608
0.00018250876
0.00018234413
0.00018214167
0.00018190835
0.0001816492
0.00018136781
0.00018106659
0.00018074726
0.00018041113
0.00018005921
0.0001796923
0.00017931218
0.00017892117
0.00017852112
0.00017812005
0.00017772835
0.00017735941
0.00017704834
0.00017684389
0.0001768323
0.00017716197
0.00017808026
0.00018015031
0.00018437883
0.00019279804
0.00020985095
0.00024282856
0.00030797514
0.00042932415
0.00063383533
0.00093683167
0.0013450252
0.001847902
0.0024187888
0.0030252242
0.0036398054
0.0042441549
0.0048271536
0.0053822616
0.0059059356
0.0063966723
0.006854277
0.0072793839
0.0076731473
0.0080370278
0.0083726511
0.0086817098
0.0089659023
0.0092268889
0.0094662644
0.0096855455
0.0098861649
0.010069466
0.010236702
0.010389039
0.010527561
0.010653272
0.010767102
0.010869908
0.010962485
0.011045566
0.01111983
0.011185904
0.011244367
0.011295756
0.011340568
0.011379261
0.011412261
0.011439963
0.011462733
0.011480912
0.011494818
0.011504744
0.011510974
0.01151375
0.011513361
0.011509952
0.011503941
0.011495196
0.011484699
0.011471298
0.011458396
0.011442382
0.011413208
0.00015905968
0.00016160399
0.00016428558
0.00016691986
0.000169377
0.00017157605
0.00017347997
0.00017508165
0.00017639107
0.00017743016
0.00017822997
0.00017882529
0.00017925028
0.0001795359
0.00017970891
0.0001797918
0.00017980244
0.00017975481
0.00017965995
0.00017952643
0.00017936074
0.00017916769
0.00017895085
0.00017871283
0.00017845549
0.0001781802
0.00017788795
0.00017757972
0.00017725659
0.0001769193
0.00017656987
0.00017621157
0.00017584774
0.00017548656
0.00017514037
0.0001748259
0.00017457984
0.00017445701
0.00017455686
0.00017504046
0.00017619528
0.00017868325
0.000183591
0.00019343628
0.00021343158
0.00025178434
0.00032885475
0.00047021098
0.00069910935
0.0010290893
0.0014607273
0.0019763167
0.0025458156
0.0031388849
0.0037327975
0.0043130649
0.0048708746
0.005401053
0.0059009064
0.0063693914
0.0068065302
0.0072130343
0.007590041
0.0079389391
0.0082612478
0.0085585353
0.0088323668
0.0090842727
0.0093157263
0.0095281304
0.0097228105
0.0099010121
0.010063901
0.010212565
0.010348013
0.010471184
0.01058295
0.010684116
0.010775432
0.01085759
0.010931232
0.010996952
0.011055302
0.011106791
0.011151895
0.011191052
0.011224671
0.011253133
0.011276791
0.011295984
0.011311006
0.011322189
0.011329735
0.011334085
0.011335188
0.011334
0.011329513
0.011325142
0.011316696
0.011299357
0.00015773865
0.00015982073
0.00016201922
0.00016420179
0.00016627353
0.0001681755
0.00016988049
0.00017137921
0.00017266997
0.0001737569
0.00017465102
0.00017536889
0.0001759303
0.00017635618
0.00017666693
0.00017688147
0.0001770161
0.00017708442
0.00017709775
0.00017706534
0.00017699452
0.00017689099
0.00017675917
0.00017660243
0.0001764233
0.00017622368
0.00017600499
0.00017576833
0.00017551468
0.00017524473
0.00017495933
0.00017465979
0.00017434742
0.0001740246
0.00017369537
0.00017336448
0.00017304134
0.00017274035
0.00017248278
0.00017231041
0.00017228616
0.00017253446
0.00017323357
0.00017474909
0.00017790803
0.00018397438
0.00019629425
0.00022100158
0.000270345
0.00036667978
0.00053723761
0.00080049167
0.0011656782
0.0016246926
0.0021527204
0.0027189337
0.0032972294
0.0038698418
0.0044256539
0.0049578788
0.0054626488
0.0059380777
0.0063835757
0.0067994015
0.0071863553
0.0075455705
0.0078783734
0.0081861893
0.0084704791
0.0087326957
0.0089742561
0.009196523
0.0094007953
0.0095883006
0.0097601929
0.0099175535
0.010061392
0.01019265
0.010312203
0.010420866
0.010519395
0.010608491
0.010688808
0.01076095
0.010825479
0.010882916
0.010933747
0.010978425
0.011017368
0.011050977
0.011079606
0.011103637
0.011123332
0.011139162
0.01115116
0.011160266
0.011165607
0.011170638
0.011170493
0.011166081
0.00015662779
0.00015834148
0.00016015087
0.00016195907
0.00016369422
0.00016531174
0.00016679286
0.00016813239
0.00016932852
0.00017038039
0.00017128963
0.00017206113
0.00017270304
0.00017322614
0.0001736429
0.00017396648
0.00017420943
0.00017438314
0.00017449773
0.00017456196
0.00017458314
0.00017456722
0.000174519
0.00017444233
0.00017434019
0.00017421491
0.00017406829
0.00017390175
0.00017371643
0.00017351318
0.00017329275
0.00017305594
0.00017280353
0.00017253648
0.00017225642
0.00017196519
0.00017166585
0.00017136326
0.00017106389
0.00017077937
0.00017052659
0.00017033357
0.0001702504
0.00017035293
0.00017080436
0.0001718101
0.00017388518
0.00017799629
0.00018611269
0.00020266892
0.00023520735
0.00030181631
0.00042779824
0.00063681514
0.00094364549
0.0013488381
0.001834255
0.0023706636
0.0029298568
0.0034911933
0.004041362
0.00457205
0.0050782777
0.0055573422
0.0060080535
0.00643022
0.0068243019
0.0071911762
0.0075319759
0.0078479798
0.0081405372
0.0084110161
0.0086607697
0.0088911131
0.0091033086
0.0092985571
0.0094779946
0.0096426901
0.0097936462
0.0099318005
0.010058029
0.010173146
0.010277914
0.010373038
0.010459176
0.010536942
0.010606903
0.010669594
0.010725505
0.010775106
0.010818819
0.010857082
0.010890222
0.010918746
0.010942775
0.010963241
0.010979402
0.010994783
0.011003742
0.011013449
0.00015568727
0.0001571067
0.00015860413
0.00016010749
0.00016156069
0.00016292787
0.00016419475
0.00016535946
0.00016642312
0.00016738626
0.00016824895
0.00016901167
0.00016967618
0.00017024609
0.00017072696
0.00017112597
0.00017145096
0.00017170986
0.00017191037
0.00017205967
0.00017216411
0.00017222916
0.00017225942
0.00017225873
0.0001722302
0.00017217634
0.00017209917
0.00017200032
0.00017188109
0.00017174251
0.00017158544
0.0001714106
0.00017121865
0.00017101023
0.00017078616
0.00017054737
0.00017029514
0.00017003139
0.0001697587
0.00016948111
0.00016920455
0.00016893776
0.00016869558
0.00016849853
0.00016838422
0.00016841457
0.00016869465
0.00016940992
0.00017087856
0.00017384457
0.00017950615
0.00019096935
0.00021410899
0.00026123816
0.00035457687
0.00052101845
0.0007786413
0.0011350937
0.0015791989
0.0020848025
0.0026228941
0.0031705467
0.0037124485
0.0042388672
0.0047437939
0.0052237642
0.0056770226
0.0061029521
0.006501692
0.0068738741
0.0072204428
0.0075425308
0.0078413738
0.0081182516
0.0083744481
0.008611224
0.0088297999
0.0090313452
0.0092169721
0.0093877319
0.0095446149
0.0096885501
0.0098204077
0.0099410011
0.01005109
0.010151382
0.01024254
0.01032518
0.010399878
0.010467176
0.01052757
0.010581562
0.01062955
0.010672085
0.010709377
0.01074236
0.010770418
0.010797176
0.010816116
0.010841245
0.00015488543
0.00015606845
0.0001573152
0.00015857148
0.00015979278
0.00016094884
0.00016202714
0.00016302663
0.00016395029
0.00016480109
0.00016558092
0.00016629049
0.00016692996
0.00016749978
0.00016800137
0.00016843743
0.00016881162
0.00016912827
0.00016939216
0.00016960819
0.00016978106
0.00016991509
0.00017001411
0.00017008145
0.00017011996
0.000170132
0.00017011956
0.00017008427
0.00017002747
0.00016995029
0.00016985363
0.00016973825
0.00016960479
0.00016945383
0.00016928593
0.00016910171
0.00016890184
0.00016868723
0.00016845908
0.00016821909
0.00016796973
0.00016771443
0.00016745864
0.00016720978
0.00016697967
0.00016678716
0.0001666609
0.00016664748
0.00016682897
0.00016736468
0.00016847366
0.00017067586
0.00017494155
0.00018336374
0.00020052469
0.00023482304
0.00030561316
0.00043891543
0.00065636369
0.00097059705
0.0013767373
0.0018524043
0.0023688325
0.0029014955
0.0034333955
0.0039535465
0.0044550251
0.0049336867
0.0053872689
0.005814772
0.0062160412
0.0065914804
0.0069418554
0.0072681581
0.0075715126
0.0078531092
0.0081141605
0.0083558708
0.008579416
0.0087859301
0.0089764975
0.0091521481
0.0093138554
0.0094625365
0.0095990526
0.0097242115
0.0098387696
0.0099434356
0.010038871
0.0101257
0.010204498
0.010275834
0.010340187
0.010398154
0.010450042
0.010496794
0.010537916
0.010577164
0.010607041
0.010649014
0.00015419737
0.00015518912
0.00015623326
0.00015728881
0.00015832015
0.0001593013
0.00016022026
0.00016107524
0.00016186914
0.00016260617
0.00016329008
0.00016392338
0.00016450724
0.00016504198
0.00016552778
0.00016596514
0.00016635513
0.00016669936
0.00016700003
0.00016725976
0.00016748137
0.00016766763
0.00016782123
0.00016794463
0.00016804001
0.0001681093
0.00016815415
0.00016817599
0.00016817602
0.00016815527
0.00016811461
0.00016805475
0.00016797632
0.00016787985
0.00016776583
0.0001676347
0.00016748693
0.00016732304
0.00016714367
0.00016694965
0.00016674212
0.00016652264
0.00016629354
0.00016605801
0.00016582073
0.00016558875
0.00016537249
0.00016518717
0.00016505666
0.00016502393
0.00016515012
0.00016555719
0.00016644553
0.00016818283
0.00017158198
0.00017804884
0.0001912063
0.00021766454
0.00027284801
0.00038112766
0.00056647568
0.00084513844
0.0012175948
0.0016654047
0.0021607173
0.0026779963
0.0031989023
0.0037114044
0.0042078142
0.0046834119
0.0051355003
0.0055627453
0.0059647316
0.0063416577
0.0066941257
0.0070229956
0.0073292847
0.007614097
0.0078785752
0.0081238667
0.0083511011
0.0085613751
0.0087557428
0.0089352099
0.009100731
0.0092532085
0.0093934926
0.0095223844
0.0096406345
0.0097489531
0.0098479977
0.0099384137
0.010020761
0.010095693
0.010163615
0.010225487
0.010280936
0.010333876
0.01037573
0.010436095
0.00015360352
0.00015443939
0.00015531863
0.00015621013
0.00015708539
0.00015792207
0.00015870851
0.00015944164
0.00016012322
0.00016075715
0.00016134791
0.00016189935
0.0001624142
0.00016289401
0.0001633395
0.00016375097
0.00016412862
0.00016447272
0.00016478387
0.00016506301
0.00016531133
0.00016553017
0.00016572097
0.00016588514
0.00016602403
0.00016613886
0.00016623078
0.00016630079
0.00016634976
0.00016637847
0.00016638762
0.00016637777
0.00016634943
0.00016630306
0.00016623903
0.0001661577
0.00016605941
0.00016594449
0.00016581332
0.00016566636
0.00016550416
0.00016532751
0.0001651375
0.00016493562
0.00016472401
0.00016450572
0.00016428522
0.00016406878
0.00016386526
0.00016368982
0.00016356265
0.00016351933
0.00016361181
0.00016394045
0.00016469002
0.00016613004
0.00016891497
0.00017417432
0.00018473478
0.00020614869
0.00025062284
0.00034026563
0.00050069551
0.00075034705
0.0010939878
0.0015168368
0.0019923492
0.0024945084
0.0030040034
0.0035079858
0.0039981582
0.0044693379
0.0049184706
0.0053439431
0.0057451181
0.0061220152
0.0064750906
0.006805085
0.0071129177
0.0073996117
0.0076662425
0.0079139019
0.0081436736
0.0083566162
0.0085537527
0.0087360637
0.0089044834
0.0090598988
0.0092031479
0.0093350256
0.009456275
0.0095676189
0.0096697037
0.0097632419
0.0098487392
0.0099271862
0.0099983208
0.01006625
0.010121207
0.010201646
0.00015308839
0.00015379631
0.00015454039
0.00015529691
0.00015604313
0.00015675997
0.0001574363
0.000158068
0.00015865531
0.00015920106
0.00015970929
0.00016018423
0.00016062954
0.00016104799
0.0001614414
0.00016181089
0.00016215698
0.00016247985
0.00016277957
0.00016305629
0.00016331025
0.00016354176
0.00016375127
0.00016393926
0.00016410624
0.00016425272
0.00016437921
0.00016448617
0.00016457405
0.00016464325
0.00016469414
0.00016472706
0.00016474231
0.00016474016
0.00016472085
0.00016468461
0.00016463163
0.00016456213
0.00016447631
0.00016437441
0.00016425672
0.00016412361
0.00016397563
0.00016381349
0.00016363822
0.00016345127
0.00016325473
0.00016305152
0.00016284557
0.00016264321
0.00016245279
0.00016228761
0.00016216598
0.0001621185
0.00016219862
0.00016248114
0.00016312826
0.00016437545
0.00016675572
0.00017125106
0.00018012512
0.00019811325
0.00023516132
0.00031145311
0.00045290857
0.00067949715
0.00099928454
0.0014005702
0.0018581859
0.0023460216
0.0028441537
0.0033391591
0.0038222967
0.0042880385