/*--------------------------------*- C++ -*----------------------------------*\
| =========                 |                                                 |
| \\      /  F ield         | OpenFOAM: The Open Source CFD Toolbox           |
|  \\    /   O peration     | Version:  2206                                  |
|   \\  /    A nd           | Website:  www.openfoam.com                      |
|    \\/     M anipulation  |                                                 |
\*---------------------------------------------------------------------------*/
FoamFile
{
    version     2.0;
    format      ascii;
    arch        "LSB;label=32;scalar=64";
    class       volScalarField;
    location    "2000";
    object      nut;
}
// * * * * * * * * * * * * * * * * * * * * * * * * * * * * * * * * * * * * * //

dimensions      [0 2 -1 0 0 0 0];

internalField   nonuniform List<scalar> 
7480
(
1.6141505e-05
2.2441295e-05
2.361431e-05
2.2661569e-05
2.1079243e-05
1.9615846e-05
1.8489146e-05
1.7631928e-05
1.6944556e-05
1.6362992e-05
1.5858776e-05
1.5420241e-05
1.5039764e-05
1.4710359e-05
1.4425344e-05
1.4178039e-05
1.3963211e-05
1.3776603e-05
1.361401e-05
1.3471833e-05
1.3345839e-05
1.3233039e-05
1.3130857e-05
1.3037196e-05
1.2950643e-05
1.2870044e-05
1.2794587e-05
1.2723466e-05
1.2655936e-05
1.2591365e-05
1.252941e-05
1.2469854e-05
1.2412451e-05
1.2356995e-05
1.2303252e-05
1.2251087e-05
1.22002e-05
1.2150515e-05
1.2101917e-05
1.2054276e-05
1.2007504e-05
1.1961519e-05
1.1916259e-05
1.1871683e-05
1.1827743e-05
1.1784405e-05
1.1741621e-05
1.1699336e-05
1.1657523e-05
1.1616152e-05
1.1575199e-05
1.1534649e-05
1.1494484e-05
1.1454694e-05
1.1415261e-05
1.1376172e-05
1.1337417e-05
1.1298977e-05
1.1260835e-05
1.122298e-05
1.1185411e-05
1.1148127e-05
1.111112e-05
1.1074383e-05
1.1037914e-05
1.1001707e-05
1.0965753e-05
1.0930045e-05
1.089458e-05
1.0859356e-05
1.0824368e-05
1.0789612e-05
1.0755086e-05
1.0720787e-05
1.0686712e-05
1.0652855e-05
1.0619214e-05
1.0585785e-05
1.0552563e-05
1.0519546e-05
1.0486729e-05
1.0454107e-05
1.0421677e-05
1.0389432e-05
1.0357367e-05
1.0325473e-05
1.0293744e-05
1.0262165e-05
1.0230727e-05
1.01994e-05
1.0168186e-05
1.0136984e-05
1.0105892e-05
1.0074504e-05
1.0043397e-05
1.001096e-05
9.9794608e-06
9.94338e-06
9.9144288e-06
9.8584527e-06
1.6771739e-06
5.1488858e-06
8.7916144e-06
1.1681822e-05
1.3403386e-05
1.448077e-05
1.5238543e-05
1.5812167e-05
1.6226545e-05
1.6524904e-05
1.6752696e-05
1.6942159e-05
1.7110784e-05
1.7266471e-05
1.7413993e-05
1.7545707e-05
1.7671596e-05
1.7798479e-05
1.7925939e-05
1.8048614e-05
1.8163932e-05
1.8269296e-05
1.8362719e-05
1.84448e-05
1.8517304e-05
1.858113e-05
1.8638169e-05
1.8686979e-05
1.8727269e-05
1.8759389e-05
1.8784804e-05
1.8804487e-05
1.8818876e-05
1.8828535e-05
1.8833257e-05
1.8833837e-05
1.8829463e-05
1.8821281e-05
1.8809443e-05
1.879403e-05
1.8775208e-05
1.8753203e-05
1.8728301e-05
1.8700702e-05
1.8670602e-05
1.8638221e-05
1.860357e-05
1.8566777e-05
1.852798e-05
1.8487297e-05
1.84449e-05
1.8400905e-05
1.8355433e-05
1.8308602e-05
1.8260476e-05
1.8211178e-05
1.8160775e-05
1.8109316e-05
1.8056834e-05
1.8003416e-05
1.7949164e-05
1.7894155e-05
1.7838441e-05
1.7782075e-05
1.7725123e-05
1.7667635e-05
1.7609634e-05
1.7551159e-05
1.7492267e-05
1.7432999e-05
1.7373392e-05
1.7313476e-05
1.7253288e-05
1.7192869e-05
1.7132244e-05
1.7071435e-05
1.7010469e-05
1.6949371e-05
1.6888165e-05
1.6826873e-05
1.6765516e-05
1.6704113e-05
1.6642681e-05
1.6581238e-05
1.6519799e-05
1.6458377e-05
1.6396985e-05
1.6335636e-05
1.6274329e-05
1.6213099e-05
1.6151886e-05
1.6090833e-05
1.6029636e-05
1.5968921e-05
1.5907404e-05
1.5847516e-05
1.5784854e-05
1.5726116e-05
1.5668055e-05
1.5562661e-05
4.6259901e-07
4.7842641e-07
9.5076241e-07
2.2202113e-06
4.1424618e-06
6.4061676e-06
8.5094213e-06
1.0323088e-05
1.2006471e-05
1.3627474e-05
1.5178641e-05
1.6641703e-05
1.8008739e-05
1.9286019e-05
2.0485145e-05
2.1631983e-05
2.2728041e-05
2.3767413e-05
2.4746021e-05
2.5661983e-05
2.6516127e-05
2.730948e-05
2.8041419e-05
2.8717755e-05
2.9343265e-05
2.9919234e-05
3.0459069e-05
3.0956078e-05
3.1413468e-05
3.1833125e-05
3.2220578e-05
3.2578731e-05
3.2909484e-05
3.3215407e-05
3.3496324e-05
3.3755982e-05
3.399166e-05
3.4208708e-05
3.4406904e-05
3.4587103e-05
3.475037e-05
3.4897798e-05
3.5030522e-05
3.5149484e-05
3.5255592e-05
3.5349777e-05
3.5432323e-05
3.5503911e-05
3.5565178e-05
3.5616694e-05
3.5659138e-05
3.5693038e-05
3.571893e-05
3.5737332e-05
3.5748579e-05
3.5753167e-05
3.5751435e-05
3.574365e-05
3.5730034e-05
3.5710945e-05
3.5686787e-05
3.5657876e-05
3.5624451e-05
3.5586765e-05
3.5545089e-05
3.5499644e-05
3.5450574e-05
3.5398069e-05
3.5342354e-05
3.5283614e-05
3.5222012e-05
3.515769e-05
3.5090815e-05
3.5021558e-05
3.4950039e-05
3.4876373e-05
3.4800684e-05
3.472309e-05
3.4643704e-05
3.4562631e-05
3.4479971e-05
3.4395824e-05
3.4310276e-05
3.4223417e-05
3.4135331e-05
3.4046099e-05
3.3955794e-05
3.3864506e-05
3.3772276e-05
3.3679254e-05
3.3585347e-05
3.349102e-05
3.3395537e-05
3.3300766e-05
3.3203327e-05
3.3110274e-05
3.3009705e-05
3.2923057e-05
3.2829108e-05
3.2665493e-05
6.9386592e-06
1.2209998e-06
4.6089247e-07
4.0784448e-07
5.9284113e-07
9.428556e-07
1.7997672e-06
3.1748914e-06
4.8669616e-06
6.6109439e-06
8.3627554e-06
1.0247246e-05
1.227482e-05
1.4408008e-05
1.6588079e-05
1.8761528e-05
2.0889677e-05
2.2951012e-05
2.4937211e-05
2.6844787e-05
2.8669591e-05
3.0407601e-05
3.2059207e-05
3.3622848e-05
3.5100291e-05
3.6491017e-05
3.7799108e-05
3.9029794e-05
4.018598e-05
4.1274633e-05
4.2299111e-05
4.3263533e-05
4.4171562e-05
4.5028608e-05
4.5836005e-05
4.6598702e-05
4.7306803e-05
4.7975984e-05
4.8601171e-05
4.9186507e-05
4.9734055e-05
5.0245987e-05
5.0724477e-05
5.1171397e-05
5.1588659e-05
5.1978142e-05
5.2340314e-05
5.2676862e-05
5.2989037e-05
5.3278063e-05
5.3545359e-05
5.3792042e-05
5.401929e-05
5.4228229e-05
5.4419593e-05
5.45945e-05
5.4753683e-05
5.4897765e-05
5.5027268e-05
5.5143007e-05
5.5245864e-05
5.5336536e-05
5.541557e-05
5.5483566e-05
5.5541133e-05
5.5588779e-05
5.5626854e-05
5.5655813e-05
5.5676163e-05
5.5688329e-05
5.5692692e-05
5.5689593e-05
5.5679423e-05
5.5662581e-05
5.5639351e-05
5.561002e-05
5.557488e-05
5.5534217e-05
5.5488297e-05
5.5437379e-05
5.5381705e-05
5.5321511e-05
5.5257019e-05
5.5188445e-05
5.5115996e-05
5.5039874e-05
5.4960267e-05
5.4877385e-05
5.4791371e-05
5.4702529e-05
5.46108e-05
5.4516966e-05
5.4420036e-05
5.4322883e-05
5.4220694e-05
5.4123923e-05
5.4015396e-05
5.3928545e-05
5.3826357e-05
5.3653026e-05
6.7487308e-05
1.9064144e-05
5.4489715e-06
2.128478e-06
1.1139404e-06
7.4455944e-07
6.4460631e-07
7.2979968e-07
9.4935558e-07
1.4841057e-06
2.403896e-06
3.561105e-06
5.0035901e-06
6.6399936e-06
8.517244e-06
1.0677958e-05
1.3101238e-05
1.5724443e-05
1.8464231e-05
2.1239337e-05
2.3988839e-05
2.6678011e-05
2.929191e-05
3.1821895e-05
3.4260341e-05
3.6599838e-05
3.8837261e-05
4.0973337e-05
4.3012852e-05
4.4958312e-05
4.6811239e-05
4.8574538e-05
5.0251688e-05
5.1843778e-05
5.3356227e-05
5.479544e-05
5.615891e-05
5.745346e-05
5.8682479e-05
5.9847044e-05
6.0949523e-05
6.1993568e-05
6.2982146e-05
6.3917804e-05
6.4803494e-05
6.5642e-05
6.6435017e-05
6.7183782e-05
6.7889815e-05
6.8555139e-05
6.9182062e-05
6.9772253e-05
7.0327425e-05
7.0849374e-05
7.1339574e-05
7.180001e-05
7.2231752e-05
7.2635835e-05
7.3013133e-05
7.3365104e-05
7.3693212e-05
7.39986e-05
7.4282187e-05
7.4545041e-05
7.4788202e-05
7.5012533e-05
7.521864e-05
7.5407347e-05
7.5579538e-05
7.5735939e-05
7.587722e-05
7.6003994e-05
7.6116963e-05
7.6216837e-05
7.6304116e-05
7.6379323e-05
7.6442988e-05
7.6495624e-05
7.6537717e-05
7.6569732e-05
7.6592113e-05
7.6605292e-05
7.6609676e-05
7.6605662e-05
7.6593629e-05
7.6573951e-05
7.6546977e-05
7.6513084e-05
7.6472564e-05
7.6425904e-05
7.637315e-05
7.6315377e-05
7.6251497e-05
7.6185141e-05
7.6110648e-05
7.6040724e-05
7.5954735e-05
7.58955e-05
7.5811636e-05
7.5674605e-05
0.00017992945
9.940323e-05
4.5603199e-05
2.1120058e-05
1.0510262e-05
5.7533013e-06
3.4398609e-06
2.2367821e-06
1.5770343e-06
1.2319364e-06
1.1140943e-06
1.1644113e-06
1.3518716e-06
1.8528317e-06
2.6471554e-06
3.7385923e-06
5.1960448e-06
6.9642666e-06
9.0997791e-06
1.1623587e-05
1.4494556e-05
1.7622788e-05
2.0898743e-05
2.4222791e-05
2.7526182e-05
3.0771594e-05
3.394046e-05
3.7020298e-05
4.0001819e-05
4.287926e-05
4.5650355e-05
4.8315072e-05
5.0874312e-05
5.3328414e-05
5.5679605e-05
5.793246e-05
6.008786e-05
6.2149285e-05
6.4120447e-05
6.6004244e-05
6.7804012e-05
6.9522002e-05
7.1161024e-05
7.2724081e-05
7.4213474e-05
7.5631426e-05
7.698209e-05
7.826821e-05
7.9492653e-05
8.0657834e-05
8.1765848e-05
8.2818547e-05
8.3818282e-05
8.4767284e-05
8.566783e-05
8.6522926e-05
8.7333618e-05
8.8101406e-05
8.8828044e-05
8.9515622e-05
9.0165724e-05
9.0779905e-05
9.1359477e-05
9.1905832e-05
9.2420682e-05
9.2905367e-05
9.3360744e-05
9.3788118e-05
9.4188802e-05
9.4563846e-05
9.4914263e-05
9.5240978e-05
9.5545092e-05
9.5827675e-05
9.6089461e-05
9.6331275e-05
9.6553935e-05
9.675823e-05
9.6944911e-05
9.7114702e-05
9.7268293e-05
9.7406357e-05
9.7529533e-05
9.7638442e-05
9.7733682e-05
9.7815837e-05
9.7885462e-05
9.7943137e-05
9.7989345e-05
9.8024787e-05
9.8049662e-05
9.8065332e-05
9.8070721e-05
9.8070046e-05
9.8057197e-05
9.8046343e-05
9.8014481e-05
9.8012385e-05
9.7972226e-05
9.791882e-05
0.00025672279
0.00020134803
0.00013781594
8.7827971e-05
5.46231e-05
3.4207271e-05
2.1812798e-05
1.4225475e-05
9.5110048e-06
6.4869361e-06
4.5460053e-06
3.2590439e-06
2.4142469e-06
1.9110587e-06
1.6619413e-06
1.6181335e-06
1.7422009e-06
2.2059087e-06
2.9906987e-06
4.1429828e-06
5.7557075e-06
7.7840397e-06
1.0298333e-05
1.3288952e-05
1.6680402e-05
2.0348421e-05
2.4159634e-05
2.8007291e-05
3.1826616e-05
3.5585394e-05
3.9265464e-05
4.2852414e-05
4.6335474e-05
4.9708433e-05
5.2968718e-05
5.6116395e-05
5.9151073e-05
6.2073704e-05
6.4886443e-05
6.7591531e-05
7.0191571e-05
7.2688926e-05
7.5086108e-05
7.7385911e-05
7.9590935e-05
8.1703575e-05
8.3727276e-05
8.5665236e-05
8.75206e-05
8.9296279e-05
9.0994866e-05
9.2619418e-05
9.417224e-05
9.5655573e-05
9.7072014e-05
9.8423065e-05
9.9711975e-05
0.00010094134
0.00010211383
0.00010323134
0.00010429583
0.00010530929
0.00010627335
0.00010719003
0.00010806159
0.00010888961
0.00010967515
0.00011042011
0.00011112603
0.00011179452
0.00011242707
0.00011302518
0.00011358997
0.00011412272
0.00011462463
0.00011509688
0.0001155406
0.0001159569
0.00011634682
0.00011671138
0.00011705156
0.0001173683
0.0001176625
0.00011793505
0.0001181868
0.00011841858
0.00011863117
0.0001188254
0.00011900198
0.00011916184
0.00011930538
0.00011943424
0.00011954744
0.00011964967
0.00011973463
0.00011981746
0.00011987333
0.00011996058
0.0001199902
0.00012007016
0.00029240852
0.00026755588
0.0002249332
0.00017724786
0.00013408296
9.9475358e-05
7.2972242e-05
5.3416787e-05
3.9108655e-05
2.8640951e-05
2.1006873e-05
1.5411956e-05
1.1295534e-05
8.2608857e-06
6.0614948e-06
4.4733172e-06
3.3618581e-06
2.6545621e-06
2.2570508e-06
2.1222843e-06
2.2131109e-06
2.7170189e-06
3.6004935e-06
4.9560319e-06
6.8658262e-06
9.3208013e-06
1.2364004e-05
1.5941814e-05
1.9926892e-05
2.4160295e-05
2.8500254e-05
3.2851939e-05
3.7164747e-05
4.1411157e-05
4.5571004e-05
4.9629224e-05
5.3576395e-05
5.7407666e-05
6.1120601e-05
6.4714011e-05
6.8188048e-05
7.1543628e-05
7.4782063e-05
7.7905149e-05
8.0914948e-05
8.3813512e-05
8.6603534e-05
8.9287942e-05
9.1869768e-05
9.4351997e-05
9.6737416e-05
9.9029055e-05
0.00010122964
0.00010334174
0.00010536811
0.00010731089
0.00010917305
0.00011095752
0.00011266726
0.00011430474
0.00011587237
0.00011737245
0.0001188076
0.00012017975
0.00012149058
0.00012274231
0.00012393768
0.0001250784
0.00012616632
0.00012720335
0.00012819136
0.00012913219
0.00013002738
0.00013087865
0.00013168739
0.00013245517
0.00013318346
0.00013387369
0.00013452722
0.00013514538
0.00013572945
0.00013628066
0.00013680022
0.00013728929
0.00013774899
0.00013818043
0.00013858467
0.00013896277
0.0001393157
0.00013964466
0.00013995026
0.00014023445
0.00014049638
0.00014074113
0.0001409624
0.00014117601
0.0001413555
0.0001415671
0.00014169427
0.00014195989
0.00030660609
0.00029935155
0.00027880366
0.0002474585
0.00021141786
0.00017616278
0.00014390803
0.00011661296
9.3894613e-05
7.5235297e-05
6.0015186e-05
4.7641439e-05
3.7586452e-05
2.9453056e-05
2.2900906e-05
1.7636232e-05
1.3416557e-05
1.0110557e-05
7.5745357e-06
5.6778733e-06
4.2979941e-06
3.3974247e-06
2.8737298e-06
2.6771111e-06
2.832112e-06
3.467737e-06
4.6026426e-06
6.3621288e-06
8.7538456e-06
1.1836387e-05
1.5576553e-05
1.9848925e-05
2.447313e-05
2.9275141e-05
3.4131011e-05
3.8971376e-05
4.3758683e-05
4.8466967e-05
5.3076604e-05
5.7575006e-05
6.1955151e-05
6.6212767e-05
7.0345196e-05
7.4351377e-05
7.8231354e-05
8.1985695e-05
8.5615724e-05
8.9123355e-05
9.2510883e-05
9.5780817e-05
9.8935681e-05
0.00010197822
0.00010491114
0.00010773707
0.00011045877
0.00011307867
0.00011559957
0.00011802446
0.00012035641
0.00012259826
0.0001247527
0.00012682233
0.00012880993
0.00013071792
0.00013254841
0.00013430377
0.00013598685
0.00013759992
0.00013914516
0.0001406248
0.00014204101
0.00014339598
0.00014469176
0.00014593
0.0001471128
0.00014824197
0.00014931928
0.00015034648
0.00015132525
0.00015225724
0.00015314404
0.00015398719
0.00015478819
0.0001555485
0.00015626954
0.00015695269
0.00015759929
0.00015821069
0.00015878812
0.00015933306
0.00015984636
0.00016033025
0.0001607841
0.00016121331
0.00016161166
0.00016199557
0.00016233686
0.00016271052
0.00016296519
0.00016347134
0.00031126577
0.00031220095
0.00030531521
0.00028924133
0.00026591884
0.00023881587
0.00021061016
0.00018328982
0.00015803323
0.00013531419
0.0001152044
9.7576222e-05
8.2195221e-05
6.886773e-05
5.7334741e-05
4.7360196e-05
3.875761e-05
3.1365249e-05
2.5064674e-05
1.9747105e-05
1.5302931e-05
1.1698483e-05
8.8470151e-06
6.6576919e-06
5.0691224e-06
4.029274e-06
3.454031e-06
3.280689e-06
3.6763874e-06
4.6182607e-06
6.2375422e-06
8.6096186e-06
1.1761779e-05
1.5686309e-05
2.0256691e-05
2.527071e-05
3.0524999e-05
3.5870929e-05
4.122319e-05
4.653476e-05
5.1773726e-05
5.691653e-05
6.1947843e-05
6.6858416e-05
7.1642228e-05
7.6295368e-05
8.0815875e-05
8.5203159e-05
8.9457577e-05
9.3580215e-05
9.7572571e-05
0.00010143656
0.00010517435
0.00010878822
0.00011228061
0.00011565386
0.00011891056
0.00012205349
0.00012508565
0.00012800995
0.00013082924
0.00013354626
0.00013616387
0.00013868476
0.00014111138
0.00014344625
0.00014569228
0.00014785208
0.00014992816
0.000151923
0.00015383904
0.00015567873
0.00015744443
0.0001591382
0.00016076233
0.00016231896
0.00016381018
0.00016523803
0.00016660451
0.00016791157
0.00016916109
0.00017035492
0.00017149486
0.00017258267
0.00017362004
0.00017460867
0.00017555017
0.00017644617
0.00017729819
0.00017810797
0.00017887665
0.00017960672
0.0001802978
0.00018095557
0.00018157399
0.00018216997
0.00018271351
0.00018328949
0.00018370403
0.00018450825
0.0003121324
0.00031617657
0.00031627206
0.00031029444
0.00029795082
0.0002805423
0.00025986031
0.00023757366
0.00021501106
0.00019307829
0.00017231858
0.00015301565
0.00013528565
0.00011899892
0.00010413399
9.0624074e-05
7.8374846e-05
6.728257e-05
5.7266773e-05
4.8279908e-05
4.02264e-05
3.3063364e-05
2.6759147e-05
2.1267682e-05
1.6574976e-05
1.2693671e-05
9.5901262e-06
7.198746e-06
5.5401419e-06
4.5001081e-06
4.0005922e-06
4.1234864e-06
4.9120716e-06
6.4566027e-06
8.8656644e-06
1.2155442e-05
1.6328561e-05
2.1245556e-05
2.6677623e-05
3.2394849e-05
3.823056e-05
4.4088881e-05
4.991555e-05
5.5673386e-05
6.1335626e-05
6.6884892e-05
7.231021e-05
7.7604248e-05
8.2762379e-05
8.7782099e-05
9.2662246e-05
9.7402718e-05
0.0001020042
0.00010646785
0.00011079526
0.00011498818
0.00011904863
0.00012297896
0.00012678177
0.00013045981
0.00013401579
0.00013745243
0.00014077254
0.00014397888
0.00014707407
0.00015006073
0.00015294175
0.00015571995
0.00015839803
0.00016097865
0.00016346447
0.00016585814
0.00016816224
0.00017037917
0.0001725114
0.00017456135
0.00017653137
0.00017842378
0.00018024086
0.00018198481
0.00018365782
0.00018526201
0.00018679947
0.00018827224
0.0001896823
0.00019103161
0.00019232208
0.00019355562
0.00019473403
0.00019585932
0.0001969329
0.00019795755
0.00019893312
0.0001998656
0.00020074911
0.0002016011
0.0002023895
0.0002032104
0.00020381973
0.00020498226
0.0003118146
0.00031655534
0.00031957057
0.00031913558
0.000314258
0.00030494096
0.0002918991
0.00027613514
0.00025865525
0.0002403243
0.00022181548
0.00020361252
0.0001860563
0.00016928819
0.00015339811
0.00013843753
0.0001244184
0.000111327
9.9097346e-05
8.7629106e-05
7.6902145e-05
6.6899816e-05
5.759975e-05
4.9008682e-05
4.112453e-05
3.3953206e-05
2.7512527e-05
2.1795085e-05
1.6899807e-05
1.2853266e-05
9.6313937e-06
7.2793047e-06
5.7246933e-06
4.8721687e-06
4.7540764e-06
5.4387789e-06
6.9884109e-06
9.5175038e-06
1.3045812e-05
1.7564428e-05
2.2903493e-05
2.8800986e-05
3.5005054e-05
4.1340082e-05
4.7705955e-05
5.4043775e-05
6.031266e-05
6.6484084e-05
7.2539581e-05
7.8467023e-05
8.4258222e-05
8.9908058e-05
9.5413556e-05
0.00010077315
0.00010598635
0.00011105337
0.00011597505
0.00012075274
0.00012538824
0.00012988368
0.00013424137
0.00013846368
0.00014255317
0.00014651247
0.00015034414
0.00015405079
0.0001576352
0.00016110022
0.00016444862
0.00016768316
0.0001708066
0.0001738217
0.00017673122
0.00017953775
0.00018224394
0.00018485241
0.00018736572
0.00018978641
0.00019211699
0.00019435991
0.0001965176
0.00019859243
0.00020058674
0.00020250283
0.00020434295
0.00020610932
0.00020780412
0.00020942953
0.00021098761
0.00021248065
0.00021391032
0.00021527968
0.00021658883
0.000217844
0.00021903957
0.0002201935
0.00022127147
0.0002223821
0.00022322363
0.00022480748
0.00031143039
0.00031586912
0.00031969002
0.00032176062
0.00032114983
0.00031737036
0.0003104347
0.00030071296
0.00028875151
0.00027514228
0.000260443
0.00024513212
0.00022960596
0.00021414616
0.00019895057
0.00018416165
0.00016987786
0.00015616488
0.00014304832
0.00013050266
0.00011851391
0.00010707492
9.618778e-05
8.5795615e-05
7.5840201e-05
6.6342252e-05
5.7328482e-05
4.8814969e-05
4.0883706e-05
3.3590313e-05
2.695721e-05
2.1107982e-05
1.614796e-05
1.2106162e-05
9.0681812e-06
7.0062066e-06
5.8123506e-06
5.5195953e-06
6.1697668e-06
7.8304181e-06
1.0591273e-05
1.4489643e-05
1.947516e-05
2.5326616e-05
3.1744633e-05
3.846469e-05
4.5313477e-05
5.2192608e-05
5.9040938e-05
6.5815809e-05
7.2488556e-05
7.9040592e-05
8.5459347e-05
9.1736318e-05
9.7866036e-05
0.00010384506
0.00010967148
0.00011534454
0.00012086438
0.00012623182
0.00013144817
0.00013651507
0.00014143444
0.00014620846
0.00015083941
0.00015532964
0.0001596817
0.00016389826
0.00016798203
0.00017193571
0.00017576205
0.00017946384
0.00018304387
0.00018650488
0.00018984958
0.00019308072
0.00019620102
0.00019921317
0.00020211984
0.00020492369
0.00020762732
0.00021023333
0.00021274427
0.00021516265
0.00021749097
0.00021973169
0.0002218872
0.00022395996
0.00022595226
0.00022786666
0.00022970507
0.00023147081
0.00023316425
0.00023479184
0.00023634819
0.00023785187
0.00023926606
0.00024071325
0.00024182687
0.00024389785
0.00031141475
0.00031522726
0.00031890789
0.00032177918
0.00032319153
0.00032263104
0.00031982391
0.00031474385
0.00030755291
0.0002985326
0.00028802312
0.00027637339
0.00026391502
0.00025093519
0.0002376686
0.00022430355
0.00021098875
0.00019784051
0.00018494485
0.0001723489
0.00016007978
0.00014815545
0.00013659794
0.00012540244
0.0001145371
0.00010399083
9.3775687e-05
8.3876818e-05
7.4218004e-05
6.4853386e-05
5.5824854e-05
4.7215851e-05
3.915065e-05
3.1685139e-05
2.4969068e-05
1.9174851e-05
1.4376442e-05
1.0724294e-05
8.2170618e-06
6.7409602e-06
6.387943e-06
7.1078945e-06
9.022412e-06
1.2160661e-05
1.6586491e-05
2.2172135e-05
2.8627052e-05
3.561763e-05
4.2881165e-05
5.0257586e-05
5.7654795e-05
6.5012508e-05
7.2289085e-05
7.9456927e-05
8.6497574e-05
9.3398343e-05
0.00010015074
0.00010674919
0.00011319021
0.00011947185
0.00012559332
0.00013155465
0.00013735653
0.00014300016
0.0001484871
0.00015381911
0.00015899826
0.0001640268
0.00016890716
0.00017364182
0.00017823336
0.00018268445
0.00018699781
0.00019117617
0.00019522224
0.00019913881
0.00020292865
0.00020659452
0.00021013922
0.0002135655
0.00021687612
0.00022007382
0.00022316131
0.00022614129
0.00022901643
0.00023178939
0.0002344628
0.0002370393
0.00023952141
0.00024191192
0.00024421299
0.00024642815
0.00024855804
0.0002506093
0.00025257683
0.00025447976
0.00025627864
0.0002581111
0.000259539
0.00026216573
0.00031190239
0.00031505376
0.0003182556
0.0003211113
0.00032322599
0.00032422605
0.00032381489
0.0003218098
0.00031814846
0.00031287744
0.00030612777
0.00029808312
0.00028895411
0.00027895523
0.00026828802
0.00025713288
0.00024564642
0.00023396217
0.00022219209
0.00021042251
0.00019871736
0.00018712379
0.0001756825
0.00016442234
0.00015335168
0.00014247163
0.00013179109
0.00012131821
0.00011101268
0.00010086694
9.0901252e-05
8.1089601e-05
7.1403819e-05
6.1908758e-05
5.2684137e-05
4.3917731e-05
3.569581e-05
2.8210409e-05
2.1685098e-05
1.6228896e-05
1.2089239e-05
9.2515784e-06
7.6076608e-06
7.3537152e-06
8.3010852e-06
1.0654367e-05
1.4378804e-05
1.9500794e-05
2.5802922e-05
3.292646e-05
4.0522854e-05
4.8349605e-05
5.6265852e-05
6.4186272e-05
7.2053261e-05
7.9828108e-05
8.7485117e-05
9.5006653e-05
0.00010238061
0.00010959882
0.00011665587
0.00012354839
0.0001302745
0.00013683342
0.00014322517
0.00014945038
0.00015551012
0.0001614059
0.0001671395
0.00017271295
0.00017812843
0.00018338829
0.00018849504
0.00019345123
0.00019825946
0.00020292242
0.00020744284
0.00021182348
0.00021606713
0.0002201766
0.00022415469
0.00022800424
0.00023172806
0.00023532897
0.00023880978
0.00024217329
0.00024542229
0.0002485596
0.00025158793
0.00025451025
0.00025732896
0.00026004774
0.00026266753
0.0002651951
0.00026762565
0.00026997892
0.00027221265
0.0002744808
0.00027626736
0.00027952121
0.00031290508
0.00031546641
0.00031812833
0.0003206513
0.0003228069
0.00032436776
0.00032511863
0.0003248728
0.00032349013
0.00032089259
0.00031706824
0.00031206194
0.00030596185
0.00029888444
0.00029096035
0.00028232311
0.00027310139
0.00026341478
0.00025337212
0.00024306842
0.00023258353
0.00022198273
0.00021132122
0.00020064542
0.00018998903
0.00017937415
0.00016881869
0.00015834175
0.00014794119
0.00013760992
0.00012735557
0.00011717175
0.00010702814
9.6922495e-05
8.6896831e-05
7.6873975e-05
6.6912756e-05
5.712266e-05
4.770374e-05
3.878497e-05
3.0628493e-05
2.3489344e-05
1.7510931e-05
1.3055939e-05
1.0044804e-05
8.4305732e-06
8.4011017e-06
9.8371616e-06
1.2817075e-05
1.7363642e-05
2.3367905e-05
3.0495574e-05
3.8338021e-05
4.6564156e-05
5.4968465e-05
6.3431478e-05
7.1876136e-05
8.0250301e-05
8.8519215e-05
9.6659231e-05
0.00010465404
0.00011249253
0.00012016718
0.00012767303
0.00013500698
0.00014216727
0.00014915311
0.00015596454
0.00016260219
0.00016906715
0.00017536089
0.00018148517
0.00018744199
0.00019323355
0.00019886216
0.00020433027
0.00020964043
0.00021479525
0.00021979744
0.00022464975
0.00022935496
0.00023391589
0.00023833539
0.00024261633
0.00024676159
0.00025077406
0.00025465664
0.00025841228
0.00026204383
0.00026555439
0.00026894656
0.00027222416
0.00027538839
0.00027844611
0.00028139285
0.00028424892
0.00028696921
0.00028972504
0.00029191664
0.00029587171
0.00031439146
0.00031645981
0.0003186284
0.0003207434
0.00032266916
0.00032427827
0.00032544446
0.00032603709
0.00032592725
0.00032500412
0.00032318962
0.00032044408
0.00031676531
0.00031218346
0.00030675361
0.00030054762
0.00029364654
0.00028613505
0.00027809773
0.00026961566
0.00026076368
0.00025160863
0.00024220974
0.00023261961
0.00022288307
0.00021303606
0.0002031074
0.00019312355
0.00018310172
0.00017304957
0.00016297557
0.00015288517
0.00014276981
0.00013261716
0.00012244562
0.00011221604
0.00010191317
9.1570131e-05
8.1179699e-05
7.0738456e-05
6.0390631e-05
5.0359789e-05
4.0802012e-05
3.2088257e-05
2.4451327e-05
1.8168164e-05
1.3559354e-05
1.0558991e-05
9.3463684e-06
9.771619e-06
1.1947054e-05
1.5820219e-05
2.139892e-05
2.8406489e-05
3.6404512e-05
4.4977127e-05
5.3840472e-05
6.2828857e-05
7.1840446e-05
8.0807372e-05
8.968446e-05
9.8441327e-05
0.00010705703
0.00011551712
0.00012381166
0.00013193385
0.00013987914
0.00014764471
0.00015522895
0.00016263124
0.0001698517
0.000176891
0.00018375029
0.00019043105
0.00019693505
0.00020326428
0.00020942093
0.00021540731
0.00022122589
0.00022687923
0.00023236998
0.00023770087
0.00024287467
0.00024789422
0.0002527624
0.00025748211
0.00026205631
0.00026648799
0.0002707801
0.00027493585
0.00027895796
0.00028285035
0.00028661447
0.0002902572
0.00029377444
0.00029718703
0.00030044696
0.00030374387
0.00030638873
0.00031112169
0.00031632102
0.00031798832
0.00031974021
0.0003214713
0.00032309405
0.00032453626
0.00032573312
0.0003266126
0.00032708938
0.00032707159
0.00032647293
0.00032522239
0.00032327036
0.00032059082
0.00031718053
0.00031305587
0.00030824837
0.00030280054
0.00029676232
0.0002901878
0.00028313232
0.00027565
0.00026779233
0.00025960772
0.00025114069
0.0002424308
0.00023351217
0.00022441544
0.00021516631
0.00020578354
0.00019628192
0.00018667358
0.00017696376
0.00016714872
0.00015723548
0.00014721369
0.0001370647
0.0001267902
0.00011638112
0.00010580684
9.5094139e-05
8.4274698e-05
7.3309257e-05
6.2402889e-05
5.1770608e-05
4.1669746e-05
3.2500574e-05
2.4495406e-05
1.8182389e-05
1.3678663e-05
1.1006583e-05
1.0397558e-05
1.1658871e-05
1.4826057e-05
1.9908008e-05
2.6707112e-05
3.4784949e-05
4.3655121e-05
5.2949885e-05
6.2447587e-05
7.2016595e-05
8.1571284e-05
9.1054634e-05
0.00010042846
0.00010966652
0.00011875062
0.00012766807
0.00013641004
0.00014497052
0.00015334554
0.00016153264
0.0001695305
0.0001773387
0.0001849575
0.00019238765
0.00019963036
0.00020668714
0.0002135598
0.00022025035
0.00022676101
0.00023309413
0.00023925222
0.00024523787
0.00025105378
0.00025670272
0.00026218754
0.00026751115
0.00027267655
0.00027768671
0.00028254487
0.00028725383
0.00029181757
0.00029623773
0.00030052118
0.00030466419
0.00030868812
0.000312542
0.00031643463
0.0003195826
0.00032517258
0.00031865691
0.00032000055
0.00032141123
0.00032281313
0.00032414395
0.00032535819
0.00032642403
0.00032730917
0.00032796969
0.00032834852
0.00032838048
0.00032799929
0.00032714426
0.0003257656
0.00032382745
0.00032130891
0.00031820299
0.00031451499
0.00031026055
0.00030546339
0.00030015307
0.00029436286
0.00028812799
0.00028148438
0.00027446769
0.00026711219
0.00025944982
0.00025151028
0.00024332059
0.00023490384
0.00022627937
0.00021746353
0.00020846875
0.00019930059
0.0001899653
0.00018046368
0.00017078729
0.00016093043
0.00015088692
0.00014063591
0.00013016882
0.00011949226
0.00010855973
9.741596e-05
8.6082725e-05
7.4556742e-05
6.3078798e-05
5.1849277e-05
4.131236e-05
3.1816971e-05
2.3744447e-05
1.763901e-05
1.351066e-05
1.1704733e-05
1.1960473e-05
1.4400935e-05
1.8922844e-05
2.5435933e-05
3.3523945e-05
4.2645808e-05
5.2348231e-05
6.2344112e-05
7.2465497e-05
8.2606318e-05
9.2696467e-05
0.00010268914
0.00011255228
0.00012226364
0.00013180765
0.00014117343
0.0001503534
0.00015934243
0.00016813715
0.00017673554
0.0001851366
0.00019334011
0.00020134646
0.00020915655
0.00021677164
0.00022419335
0.00023142353
0.00023846426
0.00024531782
0.00025198661
0.00025847321
0.00026478028
0.00027091061
0.0002768671
0.00028265266
0.00028827049
0.00029372343
0.00029901542
0.0003041483
0.00030912883
0.00031395367
0.00031864462
0.00032314781
0.00032769192
0.0003313943
0.00033792271
0.00032136944
0.00032245156
0.00032358547
0.00032471505
0.00032579255
0.00032678474
0.00032767418
0.00032844907
0.00032909258
0.0003295776
0.00032986641
0.00032991311
0.00032966773
0.00032908077
0.00032810724
0.00032670952
0.00032485873
0.00032253522
0.00031972846
0.00031643626
0.00031266367
0.00030842166
0.0003037259
0.00029859552
0.00029305213
0.00028711883
0.00028081922
0.00027417675
0.00026721427
0.00025995318
0.00025241282
0.00024461044
0.00023656095
0.00022827507
0.0002197614
0.00021102566
0.00020206773
0.00019288453
0.00018347194
0.00017381825
0.00016390948
0.00015374117
0.0001432848
0.00013253394
0.00012148972
0.00011010828
9.8464767e-05
8.652471e-05
7.4396595e-05
6.2308961e-05
5.0581914e-05
3.9744366e-05
3.0084637e-05
2.2368006e-05
1.6761565e-05
1.3506727e-05
1.2765726e-05
1.4418381e-05
1.8368331e-05
2.4572714e-05
3.2638414e-05
4.1985523e-05
5.2081376e-05
6.2570067e-05
7.324296e-05
8.3971301e-05
9.4670852e-05
0.00010528568
0.0001157777
0.0001261205
0.00013629557
0.00014628989
0.00015609428
0.00016570239
0.00017510992
0.0001843141
0.00019331335
0.00020210696
0.00021069496
0.00021907793
0.0002272569
0.00023523327
0.00024300873
0.00025058526
0.00025796502
0.00026515038
0.00027214387
0.00027894819
0.00028556609
0.00029200065
0.00029825466
0.00030433196
0.00031023451
0.00031596892
0.00032153223
0.00032694663
0.00033215535
0.00033740762
0.00034171694
0.00034926731
0.00032443603
0.00032530568
0.00032621489
0.00032712159
0.00032798773
0.00032878614
0.00032950443
0.00033013879
0.00033068583
0.00033113717
0.00033147674
0.00033168005
0.00033171524
0.00033154549
0.00033113197
0.00033043659
0.00032942414
0.0003280639
0.00032633071
0.00032420548
0.0003216751
0.0003187322
0.00031537462
0.00031160476
0.00030742891
0.00030285653
0.00029789951
0.00029257148
0.00028688721
0.00028086195
0.00027451079
0.00026784815
0.0002608875
0.00025364029
0.0002461161
0.00023832252
0.00023026379
0.00022194074
0.00021335207
0.00020449214
0.00019535054
0.00018591924
0.0001761802
0.00016611586
0.00015571697
0.00014494813
0.00013381757
0.00012229722
0.00011037171
9.8133448e-05
8.5512098e-05
7.2756193e-05
6.0045219e-05
4.8003572e-05
3.6998631e-05
2.7649908e-05
2.0539481e-05
1.58707e-05
1.4077391e-05
1.4877674e-05
1.8236295e-05
2.411886e-05
3.2147229e-05
4.1707378e-05
5.2191341e-05
6.3172818e-05
7.4399755e-05
8.5719393e-05
9.7032881e-05
0.00010827485
0.000119401
0.00013038065
0.0001411923
0.00015182072
0.00016225513
0.00017248795
0.00018251391
0.00019232951
0.00020193256
0.00021132192
0.00022049721
0.00022945871
0.00023820721
0.00024674392
0.00025507039
0.00026318848
0.00027110029
0.00027880817
0.00028631461
0.00029362243
0.00030073427
0.0003076538
0.00031438305
0.00032092834
0.00032728716
0.00033348194
0.00033945309