/*--------------------------------*- C++ -*----------------------------------*\
| =========                 |                                                 |
| \\      /  F ield         | OpenFOAM: The Open Source CFD Toolbox           |
|  \\    /   O peration     | Version:  2206                                  |
|   \\  /    A nd           | Website:  www.openfoam.com                      |
|    \\/     M anipulation  |                                                 |
\*---------------------------------------------------------------------------*/
FoamFile
{
    version     2.0;
    format      ascii;
    arch        "LSB;label=32;scalar=64";
    class       volScalarField;
    location    "2000";
    object      p;
}
// * * * * * * * * * * * * * * * * * * * * * * * * * * * * * * * * * * * * * //

dimensions      [0 2 -2 0 0 0 0];

internalField   nonuniform List<scalar> 
7480
(
0.063036777
0.052151289
0.036752968
0.027359176
0.022032075
0.018819785
0.016784741
0.015225617
0.013858961
0.012720064
0.011816064
0.011104883
0.01056522
0.010170093
0.0098880156
0.0096969891
0.0095760264
0.0095099427
0.0094828527
0.009476043
0.0094923122
0.0095124095
0.0095266929
0.009536809
0.0095399716
0.0095370034
0.0095275124
0.0095111664
0.0094869703
0.0094554692
0.0094179179
0.0093748304
0.0093266303
0.0092741273
0.0092173838
0.0091564291
0.0090915885
0.0090228601
0.0089504483
0.0088748194
0.0087960837
0.0087141416
0.0086295294
0.008542327
0.0084525303
0.0083605231
0.0082661177
0.0081694388
0.0080706774
0.0079696064
0.007866551
0.0077614761
0.0076544077
0.0075454961
0.0074345309
0.0073217252
0.0072069853
0.007090327
0.00697173
0.0068511583
0.0067287135
0.0066042686
0.006477924
0.0063495722
0.006219247
0.0060868982
0.0059524982
0.0058160142
0.0056774216
0.005536715
0.0053938499
0.0052488241
0.0051015936
0.0049521704
0.0048005051
0.0046466108
0.0044904474
0.0043320493
0.0041713896
0.0040085235
0.0038434488
0.0036762448
0.003506972
0.0033357098
0.0031626368
0.0029878758
0.0028117638
0.0026344966
0.0024567782
0.0022787357
0.0021022871
0.0019262446
0.0017577853
0.0015871621
0.0014455402
0.0012797597
0.0012235281
0.0010186017
0.0018367588
-0.0018412602
0.059348473
0.051150379
0.038818457
0.029501916
0.023153111
0.019317911
0.017029428
0.015377783
0.013974208
0.012819724
0.011904839
0.011183994
0.010636124
0.010233179
0.0099435374
0.0097456752
0.0096188294
0.0095476692
0.0095166527
0.0095115541
0.0095221047
0.0095354006
0.0095472962
0.0095553306
0.0095574029
0.0095526153
0.0095413664
0.0095238358
0.0094985823
0.0094661542
0.0094277911
0.0093839739
0.0093351172
0.0092820217
0.0092247386
0.0091632959
0.009098016
0.0090288887
0.0089561113
0.0088801483
0.0088011043
0.0087188776
0.0086340034
0.0085465569
0.0084565333
0.0083643147
0.0082697117
0.0081728491
0.0080739158
0.0079726836
0.0078694772
0.0077642601
0.0076570578
0.0075480198
0.0074369352
0.0073240169
0.0072091704
0.0070924114
0.0069737191
0.0068530572
0.0067305266
0.0066060001
0.0064795781
0.0063511526
0.0062207575
0.0060883421
0.0059538787
0.0058173344
0.0056786844
0.0055379231
0.0053950058
0.0052499303
0.0051026523
0.0049531838
0.0048014753
0.0046475399
0.0044913372
0.0043329015
0.004172206
0.0040093058
0.0038441984
0.0036769633
0.0035076609
0.0033363703
0.0031632704
0.0029884837
0.0028123474
0.002635057
0.0024573168
0.0022792537
0.0021027861
0.0019267256
0.0017582512
0.0015876132
0.0014459825
0.0012801941
0.0012239666
0.0010191216
0.0018371705
-0.0018406969
0.055584312
0.048847932
0.038059275
0.029273018
0.023414958
0.019827802
0.017526051
0.01577994
0.014292603
0.013087882
0.012136439
0.011384819
0.010813061
0.010389893
0.010082792
0.0098704278
0.0097307312
0.0096479638
0.0096067313
0.0095934823
0.0095930335
0.0095983694
0.0096039435
0.009606241
0.0096035464
0.0095941959
0.0095791977
0.0095583071
0.0095300085
0.0094949319
0.0094542666
0.0094083833
0.009357671
0.009302901
0.009244096
0.0091812629
0.0091147309
0.0090444813
0.0089706663
0.0088937585
0.0088138477
0.0087308245
0.0086452218
0.0085571018
0.008466456
0.0083736616
0.0082785214
0.0081811624
0.0080817681
0.0079801057
0.0078764999
0.0077709089
0.0076633574
0.0075539921
0.0074425999
0.0073293935
0.0072142757
0.0070972614
0.0069783289
0.0068574409
0.0067346971
0.0066099691
0.0064833567
0.0063547512
0.0062241858
0.0060916091
0.005956993
0.0058203041
0.005681517
0.0055406256
0.0053975848
0.005252392
0.0051050026
0.0049554282
0.0048036191
0.004649588
0.0044932944
0.0043347723
0.0041739945
0.004011016
0.0038458342
0.0036785283
0.0035091585
0.0033378039
0.0031646431
0.0029897986
0.0028136075
0.0026362653
0.0024584764
0.0022803672
0.0021038575
0.0019277567
0.0017592495
0.0015885766
0.0014469308
0.0012811161
0.0012249158
0.0010200719
0.0018382493
-0.0018399652
0.052679013
0.047143237
0.03781374
0.029589645
0.023990664
0.020380485
0.017985494
0.016188388
0.014668202
0.013433846
0.012449043
0.011662417
0.011061812
0.01061302
0.010282588
0.01004955
0.0098906337
0.0097906292
0.009734285
0.0097076808
0.0096958706
0.0096915129
0.0096884382
0.0096830894
0.0096734793
0.0096580038
0.0096376562
0.0096118548
0.0095791145
0.0095401464
0.0094960345
0.0094470169
0.0093934737
0.0093361444
0.0092750011
0.0092099691
0.009141444
0.0090694153
0.008993929
0.008915503
0.0088341976
0.0087498898
0.0086631117
0.008573904
0.0084822538
0.0083885285
0.0082925174
0.0081943538
0.008094212
0.0079918521
0.0078875993
0.0077814036
0.0076732881
0.0075633951
0.0074515069
0.0073378372
0.0072222831
0.0071048585
0.0069855401
0.0068642897
0.0067412052
0.0066161553
0.0064892396
0.0063603477
0.006229512
0.0060966794
0.0059618213
0.0058249036
0.0056858999
0.0055448032
0.0054015678
0.0052561905
0.0051086261
0.0049588857
0.0048069188
0.004652738
0.0044963022
0.004337645
0.0041767388
0.0040136384
0.0038483407
0.0036809246
0.0035114501
0.003339996
0.0031667408
0.0029918067
0.0028155307
0.0026381081
0.0024602436
0.002282063
0.0021054877
0.0019293243
0.0017607651
0.0015900383
0.0014483646
0.0012825084
0.0012263405
0.0010214401
0.0018399127
-0.0018389848
0.049928165
0.045314383
0.037360937
0.029949058
0.024628782
0.020962932
0.018445176
0.016553092
0.014961866
0.013710875
0.012722988
0.011928991
0.011312508
0.010841319
0.010491009
0.010240182
0.010064793
0.0099498875
0.0098781566
0.0098366093
0.0098120251
0.0097961396
0.009783711
0.0097707308
0.0097542923
0.0097326828
0.0097068028
0.0096759389
0.0096385488
0.0095954064
0.0095474728
0.0094948921
0.0094380601
0.0093777242
0.0093138187
0.0092461634
0.0091752403
0.0091010439
0.0090235123
0.0089432125
0.0088601748
0.0087742631
0.0086860117
0.0085954346
0.0085025154
0.0084076118
0.0083104927
0.008211299
0.0081101969
0.0080069392
0.0079018535
0.0077948774
0.0076860334
0.0075754587
0.0074629306
0.0073486631
0.0072325451
0.0071145894
0.0069947714
0.0068730526
0.0067495281
0.0066240625
0.0064967553
0.0063674939
0.0062363097
0.0061031473
0.0059679771
0.0058307645
0.005691482
0.0055501213
0.0054066355
0.0052610209
0.0051132318
0.0049632783
0.0048111092
0.0046567364
0.0045001184
0.0043412882
0.0041802177
0.0040169613
0.0038515153
0.0036839584
0.0035143501
0.0033427689
0.0031693931
0.0029943446
0.0028179602
0.0026404349
0.0024624737
0.0022842016
0.0021075419
0.0019312982
0.0017626702
0.0015918745
0.0014501577
0.0012842482
0.0012281031
0.0010231349
0.0018419805
-0.0018377654
0.047332317
0.043360994
0.036665945
0.030082773
0.025053801
0.021449455
0.018891802
0.016945181
0.015318074
0.01402734
0.012999846
0.012165751
0.011523212
0.011033429
0.010674318
0.010412296
0.010219711
0.010093881
0.010012907
0.0099627996
0.0099307267
0.0099062204
0.009884837
0.0098632058
0.0098387767
0.0098103982
0.0097790719
0.0097435981
0.0097019923
0.0096550508
0.0096035803
0.0095475984
0.0094875243
0.0094241565
0.0093574082
0.0092870537
0.0092136372
0.0091371271
0.0090574094
0.0089750861
0.0088901569
0.0088024717
0.008712579
0.0086204618
0.0085261005
0.0084298551
0.0083314729
0.008231101
0.0081288976
0.0080246043
0.007918553
0.0078106683
0.007700974
0.007589603
0.0074763271
0.0073613602
0.0072445802
0.0071260008
0.0070055964
0.0068833271
0.0067592846
0.0066333292
0.0065055602
0.0063758631
0.0062442682
0.0061107168
0.0059751785
0.0058376183
0.0056980071
0.005556335
0.0054125541
0.00526666
0.0051186063
0.0049684019
0.0048159945
0.0046613958
0.0045045634
0.0043455298
0.0041842661
0.0040208262
0.003855206
0.0036874837
0.0035177182
0.0033459879
0.0031724704
0.0029972874
0.0028207757
0.0026431298
0.0024650547
0.0022866751
0.0021099153
0.001933577
0.0017648652
0.0015939884
0.0014522125
0.0012862391
0.0012300997
0.0010250635
0.001844319
-0.0018363483
0.045042199
0.04147091
0.035794336
0.029997652
0.025325526
0.021845054
0.019284055
0.017306717
0.015669792
0.014354197
0.013298059
0.012436459
0.011763001
0.011242186
0.010854248
0.010565419
0.010350253
0.010211525
0.010122607
0.010064524
0.010025391
0.0099972769
0.0099740775
0.0099506113
0.0099232194
0.0098902453
0.009853426
0.0098124644
0.0097658177
0.0097148846
0.0096602103
0.0096013167
0.0095384878
0.0094725232
0.0094032468
0.0093304241
0.0092546841
0.0091759506
0.0090940907
0.0090097669
0.0089229374
0.0088334392
0.008741852
0.0086481249
0.0085522376
0.0084545637
0.0083548307
0.0082531966
0.0081498086
0.0080443921
0.0079372884
0.0078284089
0.0077177785
0.007605527
0.0074914189
0.0073756707
0.0072581519
0.0071388772
0.0070178182
0.0068949319
0.0067703071
0.0066437998
0.0065155099
0.0063853211
0.0062532624
0.006119271
0.0059833159
0.005845362
0.0057053783
0.0055633533
0.0054192381
0.0052730272
0.0051246732
0.0049741841
0.0048215064
0.0046666513
0.0045095754
0.0043503109
0.0041888278
0.0040251797
0.0038593617
0.0036914516
0.0035215078
0.003349608
0.0031759297
0.0030005941
0.0028239377
0.0026461545
0.0024679498
0.0022894476
0.0021125731
0.0019361266
0.0017673168
0.0015963472
0.0014544955
0.0012884473
0.0012322931
0.0010271844
0.0018468721
-0.001834739
0.043066569
0.039807308
0.034893918
0.029769694
0.025466621
0.022142411
0.019614881
0.01763182
0.015992236
0.014659072
0.013582657
0.012704011
0.012008722
0.011463248
0.011052248
0.010738827
0.010498689
0.010338534
0.010228915
0.010152391
0.010099566
0.010064095
0.010037884
0.010012262
0.0099847191
0.009953408
0.0099178828
0.009877381
0.0098292325
0.0097751784
0.0097167834
0.0096542546
0.0095883908
0.0095200571
0.0094486895
0.0093738572
0.0092962338
0.00921564
0.0091319178
0.0090458136
0.0089572432
0.0088660438
0.0087728425
0.0086775544
0.0085801685
0.0084810757
0.0083799809
0.008277064
0.0081724622
0.0080658843
0.0079576879
0.0078477685
0.007736153
0.0076229694
0.0075079726
0.0073913862
0.0072730741
0.0071530516
0.0070312862
0.0069077312
0.0067824736
0.0066553651
0.0065265072
0.0063957799
0.0062632113
0.0061287365
0.0059923237
0.0058539363
0.0057135416
0.0055711273
0.0054266429
0.0052800818
0.0051313954
0.0049805908
0.0048276133
0.0046724738
0.0045151279
0.004355607
0.0041938803
0.0040300009
0.003863963
0.0036958441
0.0035257018
0.0033536135
0.0031797562
0.0030042505
0.0028274327
0.0026494965
0.002471147
0.0022925078
0.0021155042
0.0019389364
0.001770014
0.00159894
0.0014569951
0.0012908609
0.0012346692
0.0010294791
0.0018496088
-0.0018329213
0.041325796
0.038375607
0.034078605
0.029507616
0.025533773
0.022367298
0.019893449
0.017921443
0.016287164
0.014946532
0.013856421
0.012963304
0.012248324
0.011682705
0.011248711
0.010914205
0.010656033
0.010475817
0.010346843
0.01025335
0.010185831
0.010136484
0.010097953
0.010061787
0.010027478
0.0099948185
0.0099595474
0.0099195637
0.0098744054
0.0098235116
0.0097673473
0.009705161
0.0096377313
0.0095668662
0.0094928309
0.0094156735
0.0093363016
0.0092542187
0.009169053
0.0090815842
0.0089916311
0.008899023
0.0088044466
0.0087077803
0.0086090372
0.0085086343
0.0084062533
0.0083021087
0.0081963305
0.0080886122
0.0079793336
0.0078683735
0.0077557649
0.0076416348
0.0075257284
0.0074082797
0.007289145
0.0071683429
0.0070458373
0.0069215791
0.0067956538
0.0066679091
0.0065384482
0.0064071463
0.0062740318
0.006139039
0.0060021353
0.0058632814
0.0057224437
0.0055796088
0.0054347249
0.0052877845
0.0051387374
0.00498759
0.0048342867
0.0046788376
0.0045211974
0.0043613968
0.0041994043
0.0040352721
0.0038689939
0.0037006466
0.0035302871
0.0033579923
0.0031839386
0.0030082464
0.0028312515
0.002653147
0.002474638
0.0022958477
0.0021187012
0.0019419991
0.0017729498
0.0016017599
0.0014597036
0.0012934718
0.0012372177
0.0010319353
0.0018525018
-0.001830872
0.039759922
0.037108092
0.033345012
0.029252998
0.025573297
0.02255621
0.020141748
0.018187874
0.016562586
0.015219588
0.014119441
0.013214101
0.01248252
0.011898811
0.011443742
0.011089861
0.010814265
0.010614353
0.010467753
0.010359524
0.010278289
0.010215873
0.010166461
0.010121054
0.010078374
0.010038006
0.009995314
0.0099493182
0.0099024021
0.0098524284
0.0097978886
0.0097387354
0.0096749333
0.0096068517
0.0095340828
0.0094563178
0.009375262
0.0092912511
0.0092043649
0.0091156328
0.0090246146
0.0089309725
0.0088353993
0.0087376864
0.0086378635
0.0085363793
0.0084328907
0.0083276624
0.0082208219
0.0081120502
0.0080017586
0.0078898088
0.0077762453
0.0076611956
0.0075443956
0.0074260929
0.0073061355
0.0071845475
0.0070612905
0.0069363148
0.0068097046
0.0066813036
0.006551218
0.0064193186
0.0062856346
0.006150099
0.006012679
0.0058733335
0.0057320277
0.005588747
0.0054434388
0.0052960947
0.005146663
0.0049951494
0.0048414975
0.0046857168
0.0045277608
0.0043676598
0.0042053813
0.004040977
0.0038744396
0.0037058458
0.0035352517
0.0033627335
0.0031884674
0.003012573
0.0028353859
0.0026570987
0.0024784161
0.0022994612
0.0021221582
0.0019453092
0.0017761187
0.0016048015
0.001462615
0.0012962738
0.0012399307
0.0010345427
0.001855525
-0.001828564
0.038335735
0.035956289
0.032658597
0.028996527
0.025592721
0.022722393
0.020372212
0.018441607
0.016827138
0.015483875
0.014375547
0.013459297
0.012712878
0.012112284
0.011638001
0.011265431
0.010972622
0.010754176
0.010590921
0.010467351
0.010372307
0.010297805
0.010238004
0.010184067
0.010133881
0.010086595
0.010037588
0.0099864065
0.0099345402
0.0098795925
0.0098204004
0.0097591034
0.0096961071
0.0096299258
0.0095598821
0.0094857099
0.0094075894
0.0093252298
0.009238255
0.0091483801
0.0090559505
0.0089610671
0.0088646017
0.008766124
0.0086655573
0.0085633264
0.0084590239
0.0083529627
0.0082452665
0.0081356068
0.008024439
0.0079116092
0.0077971804
0.0076812837
0.0075636465
0.0074445344
0.0073237869
0.007201436
0.0070774427
0.0069517579
0.0068244659
0.0066954064
0.0065646905
0.006432185
0.0062979203
0.0061618284
0.0060238767
0.0058840232
0.0057422318
0.0055984873
0.0054527361
0.0053049695
0.0051551343
0.0050032355
0.0048492161
0.0046930851
0.004534795
0.0043743754
0.0042117931
0.0040470994
0.003880286
0.0037114293
0.0035405846
0.0033678276
0.003193334
0.0030172229
0.0028398294
0.0026613458
0.0024824761
0.0023033438
0.002125871
0.0019488628
0.0017795168
0.0016080611
0.0014657251
0.0012992621
0.0012428018
0.001037293
0.0018586532
-0.0018259657
0.037032179
0.034895391
0.031999244
0.028724595
0.025584892
0.022863581
0.020585357
0.018684722
0.017083975
0.015742585
0.01462776
0.01370153
0.012941303
0.012324622
0.011832138
0.011441363
0.011131613
0.010895404
0.010715537
0.010576747
0.010468353
0.010382
0.010311421
0.010248617
0.010190832
0.010136843
0.010082503
0.010026819
0.0099704488
0.0099112534
0.0098485524
0.0097839597
0.0097175156
0.00964777
0.009575541
0.009501986
0.009425712
0.0093458863
0.0092623462
0.0091753216
0.0090845208
0.0089897182
0.0088924191
0.0087928903
0.0086914561
0.0085886047
0.0084837458
0.0083771545
0.008268894
0.008158601
0.0080467762
0.0079332466
0.0078181025
0.0077014834
0.0075831106
0.0074632743
0.0073418056
0.0072187478
0.0070940626
0.006967703
0.0068397556
0.0067100561
0.0065787225
0.0064456182
0.0063107762
0.0061741272
0.0060356401
0.0058952722
0.0057529869
0.0056087685
0.0054625629
0.0053143612
0.005164109
0.0050118112
0.0048574099
0.0047009137
0.0045422746
0.0043815216
0.0042186206
0.0040536225
0.0038865184
0.0037173844
0.0035462748
0.003373265
0.0031985302
0.003022189
0.0028445759
0.0026658831
0.0024868135
0.0023074913
0.002129836
0.0019526569
0.0017831411
0.0016115358
0.0014690303
0.0013024333
0.0012458258
0.0010401788
0.0018618608
-0.0018230404
0.0358337
0.033911237
0.031359408
0.028431706
0.025544301
0.022974976
0.020777166
0.018914471
0.017331962
0.015995559
0.014876476
0.013941505
0.013168539
0.012536559
0.0120267
0.011618247
0.011291773
0.01103823
0.010841896
0.010688103
0.010566294
0.010467978
0.010386687
0.010314983
0.010249433
0.010188532
0.010128602
0.010068092
0.010007341
0.0099446022
0.0098790033
0.009811569
0.0097421862
0.0096697892
0.0095951987
0.0095191238
0.009440079
0.0093584085
0.0092754778
0.0091902201
0.0091018598
0.0090102618
0.0089155789
0.0088173962
0.0087159933
0.0086124759
0.0085068292
0.0083996682
0.0082909956
0.0081803065
0.0080680919
0.0079541128
0.007838474
0.0077213204
0.0076023677
0.0074819391
0.0073598586
0.0072361862
0.0071108856
0.006983915
0.0068553645
0.0067250667
0.006593149
0.0064594719
0.0063240723
0.0061868804
0.0060478673
0.0059069904
0.0057642132
0.0056195201
0.0054728569
0.0053242148
0.0051735388
0.0050208337
0.0048660412
0.0047091699
0.0045501707
0.004389073
0.0042258415
0.0040605272
0.0038931202
0.0037236965
0.0035523098
0.0033790349
0.0032040468
0.0030274633
0.0028496187
0.0026707046
0.0024914235
0.0023118997
0.0021340497
0.0019566882
0.0017869887
0.0016152229
0.0014725276
0.0013057839
0.0012489976
0.0010431932
0.0018651208
-0.0018197463
0.034727912
0.032994276
0.030737027
0.028117928
0.025469374
0.023053594
0.020943916
0.019127337
0.017568561
0.016241086
0.015120618
0.01417867
0.013394323
0.01274804
0.012221711
0.01179619
0.011453253
0.011182776
0.010970212
0.010801528
0.010666254
0.010555904
0.010463873
0.01038307
0.010309673
0.010241819
0.010176036
0.010110482
0.010045268
0.0099788483
0.0099101203
0.0098398301
0.0097679353
0.0096934997
0.0096169824
0.0095387749
0.0094577099
0.0093742943
0.0092894238
0.0092019543
0.0091122539
0.0090213627
0.0089283871
0.0088326228
0.0087341413
0.0086328824
0.0085281822
0.008420919
0.0083116997
0.0082004525
0.0080878745
0.0079736144
0.0078577082
0.0077402542
0.0076209347
0.0075001015
0.0073775678
0.0072534149
0.007127612
0.0070001259
0.0068710533
0.006740225
0.0066077801
0.0064735772
0.0063376585
0.0061999548
0.0060604401
0.0059190731
0.0057758179
0.00563066
0.0054835454
0.0053344661
0.0051833671
0.0050302533
0.0048750662
0.0047178148
0.0045584496
0.0043969999
0.0042334299
0.0040677906
0.0039000715
0.0037303485
0.0035586747
0.0033851245
0.0032098726
0.0030330364
0.0028549497
0.0026758038
0.0024963001
0.0023165641
0.0021385079
0.0019609532
0.0017910562
0.0016191196
0.0014762134
0.0013093104
0.0012523122
0.0010463291
0.0018684036
-0.0018160359
0.033704519
0.032137306
0.030132195
0.027786152
0.025361409
0.023098538
0.021083101
0.019320233
0.017791054
0.016476988
0.015358555
0.014411917
0.013617911
0.012958587
0.012416843
0.011974981
0.011615955
0.011328983
0.011100468
0.010917021
0.010768316
0.010645905
0.010543075
0.010453009
0.010371615
0.010296677
0.010224863
0.010154186
0.010084426
0.010014105
0.0099420735
0.0098688441
0.0097943644
0.009717743
0.009639237
0.0095591834
0.0094766397
0.0093918634
0.0093054149
0.0092164153
0.0091253696
0.0090328593
0.0089380567
0.0088415944
0.0087439696
0.0086443728
0.0085421053
0.0084373953
0.0083299153
0.0082192313
0.0081064333
0.0079917312
0.0078754922
0.0077578263
0.007638314
0.0075172852
0.0073945008
0.0072700493
0.0071439007
0.0070160324
0.0068865514
0.0067552885
0.0066223991
0.0064877401
0.006351362
0.0062131963
0.0060732216
0.0059313986
0.0057876932
0.0056420925
0.0054945436
0.0053450402
0.0051935274
0.0050400112
0.004884433
0.0047268029
0.0045670711
0.0044052671
0.004241355
0.0040753859
0.0039073488
0.00373732
0.0035653518
0.0033915184
0.0032159945
0.0030388969
0.002860559
0.0026811721
0.0025014363
0.0023214783
0.0021432053
0.0019654473
0.0017953395
0.0016232221
0.0014800835
0.0013130088
0.0012557637
0.0010495784
0.0018716768
-0.0018118559
0.03275473
0.031334445
0.029545657
0.027440421
0.025223475
0.023110664
0.021193597
0.019490923
0.017997055
0.016701095
0.015588468
0.014639856
0.01383826
0.013167451
0.012611539
0.012154221
0.01177963
0.011476668
0.01123254
0.011034517
0.010872459
0.010737988
0.010624323
0.010524875
0.010435343
0.010353198
0.010275211
0.010199267
0.010124828
0.010050468
0.0099750237
0.0098987673
0.0098215835
0.0097426414
0.0096620654
0.0095801207
0.0094959881
0.0094097917
0.0093220049
0.0092319279
0.0091398499
0.0090461206
0.0089501605
0.0088526239
0.0087535185
0.0086524062
0.0085501207
0.0084464373
0.0083406025
0.0082323804
0.0081217295
0.00800816
0.0078921216
0.0077741974
0.00765437
0.0075331568
0.0074102475
0.0072856755
0.0071593668
0.0070312885
0.0069015509
0.0067699832
0.0066367609
0.0065017413
0.0063649859
0.0062264288
0.0060860544
0.0059438266
0.0057997139
0.0056537064
0.0055057529
0.0053558495
0.0052039422
0.0050500386
0.004894081
0.0047360806
0.0045759877
0.0044138329
0.00424958
0.0040832808
0.0039149239
0.0037445861
0.0035723194
0.0033981979
0.0032223962
0.0030450306
0.0028664346
0.002686799
0.002506823
0.0023266346
0.0021481352
0.0019701647
0.0017998333
0.0016275257
0.0014841331
0.0013168742
0.0012593455
0.0010529324
0.0018749038
-0.001807146
0.031870927
0.030580634
0.028978116
0.027084915
0.025059477
0.023092052
0.021275527
0.019638156
0.018184789
0.016911536
0.015808619
0.014861026
0.014054187
0.01337371
0.012805078
0.012333371
0.011943904
0.011625545
0.011366227
0.01115388
0.010978598
0.010832108
0.010707601
0.010598683
0.010500895
0.010411437
0.010327143
0.010245786
0.010166552
0.010088038
0.010009062
0.0099296706
0.0098496814
0.0097683179
0.0096855888
0.009601679
0.0095158609
0.0094281741
0.0093390109
0.0092477629
0.0091546236
0.0090599152
0.0089631623
0.0088647647
0.0087646723
0.0086626535
0.008559449
0.0084543737
0.0083475306
0.0082397456
0.0081303635
0.0080186589
0.0079047994
0.0077884517
0.0076692293
0.0075479593
0.0074248103
0.0073000765
0.0071736837
0.0070455386
0.0069157103
0.0067839982
0.006650588
0.0065153332
0.0063783088
0.0062394534
0.0060987598
0.0059561967
0.0058117367
0.0056653735
0.0055170589
0.0053667921
0.0052145208
0.0050602553
0.0049039387
0.0047455845
0.0045851436
0.0044226478
0.0042580612
0.0040914368
0.0039227629
0.0037521173
0.0035795517
0.0034051402
0.0032290578
0.0030514205
0.0028725615
0.0026926717
0.002512449
0.0023320233
0.0021532891
0.0019750981
0.0018045309
0.0016320246
0.0014883558
0.0013209006
0.0012630498
0.0010563806
0.0018780436
-0.0018018386
0.031046458
0.029871414
0.028429983
0.026723443
0.024873502
0.023045449
0.021329924
0.019761567
0.018353147
0.017106884
0.016017516
0.015074059
0.014264508
0.013576381
0.012996656
0.012511796
0.012108302
0.011775251
0.011501257
0.011274914
0.011086598
0.010928174
0.010792855
0.010674411
0.010568273
0.010471411
0.010380689
0.010293788
0.010209649
0.010126872
0.010044244
0.0099616159
0.0098787348
0.0097948613
0.0097098989
0.009623951
0.0095363671
0.0094471135
0.0093565056
0.0092640137
0.0091697647
0.0090740392
0.0089764036
0.0088771739
0.0087763583
0.0086737289
0.0085697488
0.0084638722
0.0083563154
0.0082475707
0.0081369941
0.0080250764
0.0079119326
0.0077968958
0.0076797305
0.007560253
0.007438037
0.0073134854
0.0071869491
0.0070586637
0.0069287768
0.0067970303
0.0066635786
0.006528237
0.0063910802
0.0062520461
0.0061111371
0.0059683284
0.0058235989
0.0056769478
0.0055283305
0.0053777508
0.0052251587
0.0050705679
0.0049139232
0.004755241
0.0045944732
0.0044316538
0.0042667475
0.0040998086
0.0039308258
0.0037598782
0.0035870174
0.0034123181
0.0032359554
0.0030580454
0.0028789213
0.0026987742
0.0025183003
0.0023376322
0.0021586564
0.0019802381
0.0018094239
0.0016367112
0.001492744
0.0013250807
0.0012668673
0.001059911
0.00188105
-0.0017958579
0.030275482
0.029202823
0.027901344
0.026359254
0.024669452
0.02297386
0.021358392
0.019861464
0.018501612
0.017286169
0.016213983
0.015277777
0.014468126
0.013774505
0.013185449
0.012688816
0.012272294
0.01192536
0.011637299
0.01139737
0.011196275
0.011026059
0.010879996
0.010752005
0.010637452
0.010533109
0.010435857
0.010343293
0.010254148
0.010167
0.010080607
0.0099946471
0.00990879
0.0098223198
0.0097350473
0.0096469971
0.0095575796
0.0094666962
0.009374587
0.0092807881
0.0091853648
0.0090885541
0.0089899761
0.0088898886
0.0087883044
0.0086849835
0.008580326
0.0084739175
0.0083658393
0.0082564153
0.0081451856
0.0080326532
0.0079184615
0.0078026383
0.0076858089
0.0075673909
0.0074468141
0.0073240554
0.0071986907
0.007070818
0.006940902
0.0068090383
0.0066755429
0.0065401979
0.0064030352
0.0062639578
0.0061229606
0.0059800193
0.0058351187
0.0056882653
0.00553942
0.0053885925
0.0052357363
0.0050808692
0.0049239387
0.0047649646
0.0046039005
0.0044407832
0.0042755784
0.0041083427
0.0039390652
0.003767827
0.0035946797
0.0034196988
0.0032430603
0.0030648802
0.002885492
0.0027050869
0.00252436
0.0023434464
0.0021642238
0.001985573
0.0018145017
0.001641576
0.001497288
0.0013294054
0.0012707873
0.0010635091
0.0018838701
-0.0017891187
0.029552858
0.028571329
0.02739201
0.025995016
0.024450875
0.022880284
0.021362827
0.019938611
0.018630132
0.017448822
0.016397158
0.015471214
0.014664083
0.013967189
0.01337066
0.012863745
0.012435322
0.012075415
0.011773987
0.011520961
0.011307411
0.011125601
0.010968904
0.010831386
0.010708379
0.010596502
0.010492633
0.010394304
0.010300059
0.010208441
0.010118178
0.010028793
0.009939877
0.0098507259
0.0097610686
0.0096708541
0.0095795378
0.009486966
0.0093933065
0.0092981477
0.0092015004
0.0091035579
0.0090039872
0.0089029849
0.0088005647
0.0086965062
0.0085911615
0.0084841601
0.0083755234
0.0082655808
0.0081539378
0.0080408737
0.0079261122
0.0078097859
0.0076921965
0.0075728749
0.0074522165
0.0073301805
0.0072060839
0.0070799338
0.0069513509
0.0068200783
0.0066866502
0.0065512284
0.0064140368
0.0062749758
0.006133998
0.0059910464
0.0058460926
0.0056991428
0.0055501624
0.0053991683
0.0052461189
0.0050910378
0.0049338757
0.004774657
0.0046133375
0.0044499574
0.0042844841
0.0041169768
0.0039474258
0.0037759144
0.003602495
0.0034272439
0.0032503383
0.0030718946
0.0028922468
0.0027115865
0.0025306073
0.0023494477
0.0021699753
0.0019910887
0.0018197513
0.0016466074
0.0015019763
0.0013338639
0.0012747968
0.0010671583
0.0018864435
-0.001781526
0.028874037
0.027973781
0.026901584
0.025632861
0.024220905
0.022767585
0.021345243
0.019994056
0.018738986
0.017594592
0.016566454
0.015653617
0.014851567
0.014153637
0.013551545
0.01303592
0.012596823
0.012224943
0.011910928
0.011645372
0.011419761
0.011226612
0.011059436
0.01091245
0.010780984
0.01066154
0.010550989
0.010446807
0.010347377
0.010251199
0.010156967
0.010064069
0.009972015
0.0098801026
0.0097879881
0.0096955475
0.009602269
0.0095079511
0.0094126933
0.0093161244
0.0092182087
0.0091190961
0.0090184912
0.008916534
0.0088132379
0.0087084002
0.0086023135
0.0084946569
0.008385435
0.0082749547
0.0081628317
0.008049285
0.0079341531
0.0078174511
0.00769936
0.0075795609
0.0074583784
0.0073355057
0.0072110804
0.0070853275
0.0069576938
0.0068280204
0.0066959801
0.0065612731
0.0064242445
0.0062851475
0.0061441533
0.0060012321
0.0058563166
0.0057093807
0.0055603739
0.0054093123
0.0052561569
0.0051009383
0.0049436117
0.0047842075
0.0046226844
0.0044590867
0.004293384
0.004125639
0.0039558432
0.0037840833
0.0036104122
0.003434908
0.0032577493
0.0030790531
0.0028991541
0.0027182449
0.0025370175
0.0023556141
0.0021758913
0.0019967677
0.001825157
0.0016517912
0.0015067949
0.001338443
0.0012788807
0.0010708389
0.0018887019
-0.0017729735
0.02823499
0.027407365
0.026429519
0.025274458
0.023982271
0.022638427
0.021307667
0.020029015
0.018828685
0.017723468
0.016721499
0.015824412
0.015029908
0.014333151
0.013727424
0.013204714
0.012756247
0.012373466
0.01204772
0.011770273
0.011533058
0.011328881
0.011151427
0.010995073
0.010855178
0.010728159
0.01061088
0.010500773
0.010396085
0.010295266
0.010196977
0.010100482
0.010005214
0.0099104639
0.009815822
0.0097210952
0.0096257931
0.0095296724
0.0094327686
0.0093347407
0.0092355127
0.0091351925
0.0090335142
0.0089305689
0.008826366
0.0087207156
0.0086138541
0.0085055072
0.0083956614
0.0082845828
0.0081719318
0.008057901
0.0079423492
0.0078252419
0.007706776
0.0075866691
0.0074650804
0.0073417816
0.0072169881
0.0070905065
0.0069623208
0.0068328566
0.0067016225
0.0065682847
0.0064326166
0.0062943123
0.0061535602
0.0060106426
0.0058657246
0.0057188298
0.005569875
0.0054188454
0.0052656842
0.0051104202
0.0049530108
0.0047934929
0.0046318292
0.0044680698
0.0043021867
0.0041342469
0.0039642437
0.0037922673
0.0036183722
0.0034426383
0.0032652461
0.0030863138
0.0029061769
0.0027250291
0.0025435612
0.0023619195
0.0021819485
0.0020025892
0.0018306997
0.0016571103
0.001511727
0.001343127
0.0012830214
0.0010745277
0.0018905789
-0.001763342
0.027632134
0.026869564
0.025975173
0.024921088
0.023737316
0.02249525
0.021252077
0.020044795
0.018899899
0.017835617
0.016862097
0.015983175
0.015198551
0.014505123
0.013897683
0.013369538
0.012913067
0.012520517
0.012183956
0.011895321
0.01164702
0.011432182
0.011244698
0.011079117
0.010930855
0.010796279
0.010672249
0.010556164
0.010446157
0.010340627
0.010238198
0.010138029
0.010039476
0.0099418159
0.0098445793
0.0097475077
0.0096501229
0.0095521444
0.0094535476
0.0093540129
0.0092534296
0.0091518642
0.0090490744
0.0089451087
0.0088399686
0.0087334748
0.0086258142
0.008516751
0.0084062523
0.0082945463
0.0081813368
0.00806678
0.00795075
0.0078332115
0.0077143541
0.0075938905
0.0074719467
0.0073483786
0.0072232518
0.0070963962
0.0069678987
0.0068378583
0.006706027
0.0065727094
0.0064376963
0.0063005682
0.0061611252
0.0060190421
0.0058744229
0.0057275644
0.0055786205
0.0054276409
0.0052745419
0.0051193228
0.0049619227
0.0048023765
0.0046406484
0.0044767943
0.00431079
0.0041427078
0.0039725433
0.0038003911
0.0036263072
0.003450374
0.0032727745
0.003093628
0.0029132716
0.0027319004
0.0025502037
0.002368333
0.0021881192
0.0020085284
0.001836357
0.0016625442
0.0015167527
0.0013478973
0.0012871983
0.0010781973
0.0018920178
-0.0017524969
0.02706228