/*--------------------------------*- C++ -*----------------------------------*\
| =========                 |                                                 |
| \\      /  F ield         | OpenFOAM: The Open Source CFD Toolbox           |
|  \\    /   O peration     | Version:  2206                                  |
|   \\  /    A nd           | Website:  www.openfoam.com                      |
|    \\/     M anipulation  |                                                 |
\*---------------------------------------------------------------------------*/
FoamFile
{
    version     2.0;
    format      ascii;
    arch        "LSB;label=32;scalar=64";
    class       surfaceScalarField;
    location    "2000";
    object      phi;
}
// * * * * * * * * * * * * * * * * * * * * * * * * * * * * * * * * * * * * * //

dimensions      [0 3 -1 0 0 0 0];

oriented        oriented;

internalField   nonuniform List<scalar> 
14782
(
0.0006461761
7.5291554e-05
-0.00072146766
0.00055264498
9.3531125e-05
0.00046316639
8.9478587e-05
0.00039132126
7.1845126e-05
0.00034013872
5.118254e-05
0.00030408523
3.6053491e-05
0.00027735279
2.6732439e-05
0.00025623176
2.1121032e-05
0.00023874139
1.749037e-05
0.00022399943
1.4741963e-05
0.00021152983
1.24696e-05
0.0002009537
1.0576133e-05
0.00019197219
8.9815036e-06
0.00018433106
7.64113e-06
0.00017780484
6.5262233e-06
0.00017221363
5.5912124e-06
0.00016740895
4.804678e-06
0.00016326531
4.1436382e-06
0.00015967507
3.5902418e-06
0.00015652538
3.1496854e-06
0.00015374287
2.7825153e-06
0.00015125103
2.4918375e-06
0.00014899158
2.2594551e-06
0.0001469263
2.0652786e-06
0.00014502129
1.9050056e-06
0.00014325299
1.7683074e-06
0.00014160133
1.6516532e-06
0.0001400487
1.5526362e-06
0.00013857848
1.4702136e-06
0.00013717904
1.399443e-06
0.00013584359
1.3354523e-06
0.00013456593
1.2776618e-06
0.00013333998
1.225948e-06
0.00013216073
1.1792453e-06
0.00013102359
1.1371389e-06
0.00012992332
1.1002682e-06
0.00012885578
1.0675452e-06
0.00012781838
1.0374042e-06
0.00012680796
1.0104142e-06
0.00012582213
9.8582908e-07
0.00012485894
9.6319077e-07
0.00012391631
9.4262763e-07
0.00012299312
9.2319851e-07
0.00012208818
9.0493539e-07
0.00012120025
8.8793358e-07
0.00012032849
8.717537e-07
0.00011947156
8.5693221e-07
0.00011862845
8.4310948e-07
0.00011779857
8.298854e-07
0.00011698098
8.1758234e-07
0.00011617531
8.056708e-07
0.00011538103
7.942805e-07
0.00011459768
7.8335646e-07
0.00011382496
7.7271202e-07
0.00011306232
7.6264501e-07
0.00011230951
7.5281235e-07
0.0001115661
7.4340764e-07
0.00011083167
7.3442998e-07
0.00011010585
7.2581823e-07
0.00010938841
7.1744493e-07
0.00010867928
7.0912167e-07
0.00010797823
7.0105463e-07
0.00010728509
6.9313993e-07
0.00010659965
6.854431e-07
0.00010592177
6.7788027e-07
0.00010525124
6.7052468e-07
0.00010458785
6.633878e-07
0.00010393144
6.5641165e-07
0.00010328188
6.4955889e-07
0.00010263906
6.4282283e-07
0.00010200283
6.3623473e-07
0.00010137306
6.2976369e-07
0.00010074966
6.2340108e-07
0.00010013253
6.1713043e-07
9.9521524e-05
6.1100572e-07
9.8916525e-05
6.0499939e-07
9.8317401e-05
5.99124e-07
9.7724053e-05
5.9334836e-07
9.7136352e-05
5.8770062e-07
9.6554196e-05
5.8215576e-07
9.5977451e-05
5.7674546e-07
9.5406e-05
5.7145034e-07
9.4839713e-05
5.6628704e-07
9.4278433e-05
5.6128056e-07
9.372201e-05
5.5642231e-07
9.3170242e-05
5.5176818e-07
9.2622931e-05
5.4731119e-07
9.2079781e-05
5.4315047e-07
9.15405e-05
5.3928043e-07
9.1004588e-05
5.3591207e-07
9.0471595e-05
5.3299346e-07
8.9940392e-05
5.3120255e-07
8.9410491e-05
5.2990093e-07
8.8878362e-05
5.3212874e-07
8.8345319e-05
5.3304312e-07
8.7795445e-05
5.4987409e-07
8.7244876e-05
5.505696e-07
8.659567e-05
6.4920529e-07
8.6340825e-05
2.5484515e-07
1.2079548e-06
0.00078829343
8.1509493e-05
-0.00079451137
0.00076961546
0.0001122091
0.00073474964
0.0001243444
0.0006875153
0.00011907946
0.00063547464
0.0001032232
0.00058590014
8.5627996e-05
0.00054225633
7.0376245e-05
0.0005051525
5.822487e-05
0.00047387792
4.8764946e-05
0.00044747937
4.1140506e-05
0.00042506848
3.4880492e-05
0.00040591104
2.9733571e-05
0.00038945999
2.5432557e-05
0.00037528768
2.1813439e-05
0.00036304413
1.8769771e-05
0.00035244244
1.6192905e-05
0.00034322674
1.4020375e-05
0.0003351744
1.2195978e-05
0.00032809341
1.0671237e-05
0.00032182084
9.4222503e-06
0.00031622298
8.3803797e-06
0.00031118063
7.5341883e-06
0.00030660012
6.8399588e-06
0.00030240817
6.2572287e-06
0.00029854456
5.7686224e-06
0.0002949614
5.3514678e-06
0.00029161985
4.9932018e-06
0.00028848605
4.6864371e-06
0.00028553049
4.4257704e-06
0.00028273064
4.1992936e-06
0.00028007017
3.9959221e-06
0.00027753467
3.813166e-06
0.0002751111
3.6495111e-06
0.00027278831
3.5020338e-06
0.00027055664
3.3688107e-06
0.00026840575
3.251162e-06
0.00026632702
3.1462706e-06
0.00026431459
3.0498339e-06
0.00026236185
2.9631558e-06
0.0002604635
2.8841801e-06
0.00025861518
2.811509e-06
0.00025681271
2.7450952e-06
0.00025505302
2.6828936e-06
0.00025333326
2.6246928e-06
0.00025165071
2.5704866e-06
0.00025000309
2.5193674e-06
0.00024838774
2.472283e-06
0.00024680247
2.4283842e-06
0.00024524561
2.3867453e-06
0.00024371535
2.3478468e-06
0.00024221044
2.3105791e-06
0.00024072962
2.2750962e-06
0.00023927177
2.2412044e-06
0.00023783599
2.2084967e-06
0.00023642114
2.1774935e-06
0.00023502646
2.1474932e-06
0.00023365101
2.1188577e-06
0.00023229385
2.0915845e-06
0.00023095418
2.0654917e-06
0.00022963141
2.0402194e-06
0.00022832518
2.0153476e-06
0.00022703495
1.9912847e-06
0.00022576025
1.9678368e-06
0.00022450061
1.9450896e-06
0.00022325563
1.9228627e-06
0.00022202484
1.9013097e-06
0.00022080777
1.8804535e-06
0.00021960405
1.860138e-06
0.00021841335
1.8402602e-06
0.00021723537
1.820801e-06
0.00021606979
1.8018173e-06
0.00021491631
1.7832369e-06
0.00021377469
1.76502e-06
0.00021264469
1.7471367e-06
0.00021152599
1.7297021e-06
0.00021041833
1.7126575e-06
0.00020932144
1.696016e-06
0.00020823508
1.6797117e-06
0.00020715898
1.6637959e-06
0.00020609292
1.6482189e-06
0.00020503662
1.6330451e-06
0.00020398983
1.6182353e-06
0.00020295229
1.6038275e-06
0.00020192369
1.5898803e-06
0.00020090372
1.5763921e-06
0.00019989201
1.5634833e-06
0.00019888814
1.5511839e-06
0.0001978916
1.5396915e-06
0.00019690174
1.5291345e-06
0.00019591783
1.5198207e-06
0.00019493862
1.5122093e-06
0.00019396293
1.5068868e-06
0.00019298788
1.5049588e-06
0.0001920113
1.5086992e-06
0.00019102654
1.5178038e-06
0.00019002314
1.5532802e-06
0.00018899133
1.5823774e-06
0.00018788256
1.7579738e-06
0.00018699633
1.1410771e-06
2.7668085e-06
0.0008301016
7.8145326e-05
-0.00082673743
0.00083435363
0.00010795707
0.00083536396
0.00012333407
0.00082851413
0.00012592929
0.00081031529
0.00012142204
0.00078274476
0.00011319853
0.00075010534
0.00010301566
0.00071595259
9.237762e-05
0.000682476
8.2241536e-05
0.00065100503
7.2611481e-05
0.00062219214
6.3693375e-05
0.00059624396
5.568176e-05
0.00057311677
4.8559746e-05
0.00055260587
4.2324331e-05
0.0005344374
3.6938244e-05
0.00051833591
3.2294395e-05
0.0005040352
2.832109e-05
0.00049129714
2.4934031e-05
0.00047991044
2.2057937e-05
0.00046969386
1.9638834e-05
0.00046048359
1.7590647e-05
0.00045213768
1.5880097e-05
0.00044453529
1.4442358e-05
0.00043757369
1.3218821e-05
0.00043116534
1.2176971e-05
0.00042523346
1.1283352e-05
0.00041971592
1.0510738e-05
0.00041456244
9.8399194e-06
0.00040972941
9.2588018e-06
0.00040518016
8.748543e-06
0.00040088369
8.2923983e-06
0.00039681308
7.8837747e-06
0.0003929449
7.5176847e-06
0.00038925939
7.1875446e-06
0.00038573938
6.8888212e-06
0.00038236749
6.6230496e-06
0.00037912932
6.3844423e-06
0.00037601359
6.1655639e-06
0.00037300883
5.9679164e-06
0.00037010576
5.7872565e-06
0.00036729629
5.6209787e-06
0.00036457287
5.4685123e-06
0.00036192923
5.3265353e-06
0.00035935969
5.194234e-06
0.00035685897
5.0712064e-06
0.00035442248
4.9558574e-06
0.00035204559
4.849166e-06
0.00034972429
4.7496824e-06
0.00034745519
4.6558458e-06
0.00034523497
4.5680708e-06
0.00034306091
4.484637e-06
0.00034093043
4.4055751e-06
0.0003388412
4.330433e-06
0.00033679122
4.2584841e-06
0.00033477841
4.1903058e-06
0.00033280106
4.1248414e-06
0.00033085738
4.0625301e-06
0.00032894569
4.0032749e-06
0.00032706449
3.9466962e-06
0.00032521254
3.89217e-06
0.00032338884
3.8390432e-06
0.00032159228
3.7878518e-06
0.00031982183
3.7382835e-06
0.00031807653
3.6903842e-06
0.00031635553
3.6438631e-06
0.00031465793
3.5989171e-06
0.00031298284
3.555545e-06
0.00031132951
3.5134678e-06
0.00030969726
3.4725016e-06
0.00030808547
3.4325927e-06
0.0003064935
3.3937928e-06
0.00030492076
3.3559734e-06
0.00030336673
3.3190502e-06
0.00030183089
3.2829744e-06
0.0003003127
3.2478997e-06
0.00029881162
3.2137278e-06
0.00029732718
3.180458e-06
0.00029585891
3.1479861e-06
0.00029440633
3.1163724e-06
0.00029296901
3.0855403e-06
0.00029154648
3.0555777e-06
0.00029013829
3.026424e-06
0.00028874398
2.9981351e-06
0.00028736306
2.9708038e-06
0.000285995
2.9444474e-06
0.00028463924
2.9192473e-06
0.00028329511
2.8953091e-06
0.00028196189
2.8729109e-06
0.00028063858
2.8524439e-06
0.00027932423
2.8341728e-06
0.00027801684
2.8195979e-06
0.00027671533
2.808396e-06
0.00027541457
2.8057274e-06
0.00027411414
2.8091219e-06
0.00027279976
2.832189e-06
0.00027146831
2.8847336e-06
0.00027008352
2.9671664e-06
0.00026865334
3.1881453e-06
0.00026723052
2.5638984e-06
4.4439249e-06
0.00086060193
7.4570687e-05
-0.00085702729
0.00086673965
0.00010181935
0.00087276483
0.00011730889
0.00087701613
0.000121678
0.00087845578
0.00011998239
0.00087563676
0.00011601756
0.00086732065
0.00011133177
0.00085322036
0.00010647791
0.00083420843
0.00010125347
0.00081196654
9.4853364e-05
0.00078787765
8.7782264e-05
0.00076304675
8.0512665e-05
0.00073839633
7.3210162e-05
0.00071461527
6.6105397e-05
0.00069216539
5.9388123e-05
0.00067130866
5.315112e-05
0.00065213114
4.7498616e-05
0.00063460157
4.24636e-05
0.00061861684
3.8042667e-05
0.0006040473
3.4208372e-05
0.00059075425
3.0883702e-05
0.00057860543
2.8028916e-05
0.00056747719
2.5570595e-05
0.00055725491
2.3441104e-05
0.000547834
2.1597877e-05
0.00053911802
1.9999329e-05
0.00053102446
1.8604301e-05
0.00052348484
1.7379544e-05
0.00051643855
1.6305091e-05
0.00050983219
1.5354902e-05
0.00050361902
1.4505568e-05
0.00049775814
1.374465e-05
0.00049221328
1.3062549e-05
0.00048695359
1.2447238e-05
0.00048195257
1.1889835e-05
0.00047718626
1.1389365e-05
0.00047263346
1.0937237e-05
0.00046827542
1.0523608e-05
0.00046409522
1.0148114e-05
0.000460078
9.8044776e-06
0.0004562107
9.4882795e-06
0.0004524813
9.1979054e-06
0.00044887938
8.9284642e-06
0.00044539547
8.6781369e-06
0.00044202088
8.4457952e-06
0.00043874807
8.2286723e-06
0.00043556989
8.0273495e-06
0.00043247986
7.8397066e-06
0.0004294724
7.6633089e-06
0.00042654218
7.4982907e-06
0.00042368456
7.3422593e-06
0.00042089517
7.1949566e-06
0.00041817008
7.0555284e-06
0.00041550581
6.9227495e-06
0.00041289905
6.7970705e-06
0.00041034682
6.6770679e-06
0.00040784623
6.5631268e-06
0.00040539461
6.4548924e-06
0.00040298961
6.3516989e-06
0.0004006291
6.2526713e-06
0.00039831122
6.156927e-06
0.00039603405
6.0650253e-06
0.00039379586
5.9764687e-06
0.00039159504
5.8912014e-06
0.00038943011
5.8087931e-06
0.0003872996
5.7294269e-06
0.00038520213
5.6530181e-06
0.00038313646
5.5791412e-06
0.00038110144
5.5075207e-06
0.000379096
5.4380354e-06
0.0003771191
5.3706889e-06
0.0003751698
5.3052765e-06
0.00037324719
5.2416615e-06
0.0003713504
5.1797613e-06
0.00036947857
5.1197319e-06
0.00036763088
5.0614177e-06
0.00036580654
5.0047906e-06
0.00036400483
4.9497e-06
0.000362225
4.8961986e-06
0.00036046637
4.8441743e-06
0.00035872822
4.7937266e-06
0.00035700988
4.7447673e-06
0.00035531065
4.6973622e-06
0.00035362982
4.651634e-06
0.00035196665
4.6076228e-06
0.00035032033
4.5655658e-06
0.00034868997
4.5256655e-06
0.00034707461
4.4882693e-06
0.00034547295
4.4541096e-06
0.00034388379
4.4233271e-06
0.0003423046
4.398787e-06
0.00034073422
4.3787785e-06
0.00033916603
4.3739196e-06
0.0003376005
4.374648e-06
0.00033601856
4.4141348e-06
0.00033442126
4.4820316e-06
0.00033275527
4.6331544e-06
0.00033106351
4.8799051e-06
0.000329223
4.4044065e-06
6.2291576e-06
0.00089067158
7.1514116e-05
-0.00088761501
0.0008965141
9.597683e-05
0.00090284965
0.00011097334
0.00090819982
0.00011632783
0.00091197948
0.00011620273
0.00091453158
0.00011346546
0.00091564723
0.00011021612
0.00091492927
0.00010719587
0.0009120811
0.00010410163
0.00090610398
0.00010083049
0.00089658635
9.7299897e-05
0.00088365419
9.3444824e-05
0.00086793303
8.8931323e-05
0.00085013207
8.3906353e-05
0.00083089117
7.8629024e-05
0.00081084869
7.3193604e-05
0.00079061249
6.7734819e-05
0.00077071056
6.2365526e-05
0.00075154613
5.7207097e-05
0.00073338582
5.2368677e-05
0.00071636075
4.7908777e-05
0.00070049683
4.3892837e-05
0.00068575712
4.0310298e-05
0.00067207502
3.7123212e-05
0.00065937311
3.4299782e-05
0.00064756998
3.1802462e-05
0.00063658599
2.958829e-05
0.00062634529
2.7620244e-05
0.00061677596
2.5874416e-05
0.00060781293
2.4317932e-05
0.00059939823
2.2920273e-05
0.00059147933
2.1663551e-05
0.00058400848
2.0533396e-05
0.00057694387
1.9511853e-05
0.00057024842
1.8585282e-05
0.00056388989
1.7747892e-05
0.00055783954
1.6987589e-05
0.00055207052
1.6292625e-05
0.00054655922
1.5659411e-05
0.00054128467
1.507903e-05
0.00053622801
1.4544938e-05
0.00053137176
1.4054159e-05
0.00052670052
1.3599705e-05
0.00052220033
1.3178329e-05
0.00051785825
1.2787869e-05
0.00051366313
1.2423794e-05
0.00050960482
1.2085662e-05
0.00050567411
1.1770413e-05
0.00050186282
1.1474598e-05
0.0004981631
1.1198012e-05
0.0004945679
1.0937457e-05
0.00049107073
1.0692132e-05
0.00048766564
1.0460616e-05
0.00048434738
1.0241012e-05
0.00048111096
1.0033492e-05
0.00047795185
9.8361807e-06
0.00047486578
9.6491886e-06
0.00047184898
9.4716985e-06
0.00046889798
9.3026941e-06
0.00046600955
9.1411028e-06
0.0004631807
8.9857773e-06
0.00046040857
8.8371604e-06
0.00045769055
8.6944857e-06
0.00045502422
8.5575345e-06
0.00045240732
8.4256879e-06
0.00044983771
8.2990388e-06
0.00044731338
8.1773435e-06
0.00044483251
8.060012e-06
0.00044239337
7.9466607e-06
0.00043999435
7.8370543e-06
0.00043763394
7.7310989e-06
0.00043531073
7.628492e-06
0.00043302335
7.5290398e-06
0.00043077051
7.432597e-06
0.00042855097
7.3392748e-06
0.00042636355
7.2488385e-06
0.00042420712
7.1612177e-06
0.00042208062
7.0762018e-06
0.000419983
6.9938171e-06
0.00041791327
6.9139027e-06
0.00041587045
6.8365543e-06
0.00041385357
6.7616465e-06
0.00041186169
6.6892437e-06
0.00040989383
6.61949e-06
0.00040794901
6.5524465e-06
0.00040602617
6.4884e-06
0.00040412418
6.4276592e-06
0.00040224181
6.3706343e-06
0.00040037748
6.3184434e-06
0.00039852974
6.2710651e-06
0.00039669561
6.2329142e-06
0.00039487374
6.2006502e-06
0.00039305652
6.191138e-06
0.00039124467
6.1865045e-06
0.00038941621
6.2425945e-06
0.00038757406
6.3241825e-06
0.00038565429
6.5529212e-06
0.00038372037
6.813826e-06
0.00038152422
6.6005544e-06
8.1488169e-06
0.00092146472
6.8817394e-05
-0.000918768
0.00092669021
9.0751343e-05
0.0009325189
0.00010514464
0.00093764925
0.00011119748
0.00094175883
0.00011209314
0.00094476885
0.00011045544
0.00094691094
0.00010807403
0.00094839921
0.00010570761
0.00094936628
0.00010313456
0.00094968224
0.00010051452
0.00094902915
9.7952991e-05
0.0009471112
9.5362771e-05
0.0009433076
9.2734922e-05
0.00093715658
9.005737e-05
0.00092844564
8.7339972e-05
0.00091728416
8.4355082e-05
0.00090400607
8.1012906e-05
0.00088894423
7.7427366e-05
0.00087249073
7.3660599e-05
0.00085512671
6.9732694e-05
0.00083736776
6.566773e-05
0.00081968495
6.1575645e-05
0.00080245727
5.7537977e-05
0.00078593914
5.3641339e-05
0.00077026447
4.9974452e-05
0.00075547577
4.6591166e-05
0.00074156416
4.3499905e-05
0.0007284949
4.0689495e-05
0.00071622011
3.8149211e-05
0.00070468751
3.585053e-05
0.00069384322
3.376457e-05
0.00068363302
3.1873746e-05
0.00067400498
3.0161435e-05
0.00066491141
2.8605425e-05
0.00065630754
2.7189151e-05
0.00064815258
2.5902854e-05
0.00064041035
2.4729814e-05
0.00063304707
2.3655909e-05
0.00062603187
2.2674615e-05
0.00061933747
2.1773428e-05
0.00061293903
2.0943377e-05
0.00060681339
2.0179794e-05
0.00060093989
1.9473206e-05
0.00059529967
1.8818554e-05
0.00058987531
1.8212223e-05
0.00058465142
1.7647683e-05
0.00057961399
1.7123093e-05
0.00057475046
1.6633948e-05
0.0005700495
1.617555e-05
0.00056550037
1.5747143e-05
0.00056109336
1.5344468e-05
0.00055681952
1.4965969e-05
0.0005526706
1.4609538e-05
0.00054863917
1.4272447e-05
0.00054471813
1.3954529e-05
0.00054090109
1.3653222e-05
0.00053718227
1.3368008e-05
0.00053355647
1.3097496e-05
0.00053001886
1.28403e-05
0.00052656485
1.2595122e-05
0.00052319018
1.2360439e-05
0.00051989089
1.213645e-05
0.00051666336
1.1922025e-05
0.00051350415
1.1716743e-05
0.00051041008
1.1519757e-05
0.00050737817
1.1330943e-05
0.00050440571
1.114981e-05
0.00050149012
1.0975599e-05
0.000498629
1.0807782e-05
0.00049582011
1.0645945e-05
0.00049306136
1.0489844e-05
0.00049035079
1.0339063e-05
0.00048768648
1.0193346e-05
0.00048506665
1.0052433e-05
0.00048248959
9.9163347e-06
0.00047995371
9.7847179e-06
0.00047745748
9.6574508e-06
0.00047499944
9.5342433e-06
0.00047257818
9.4150737e-06
0.00047019237
9.2997142e-06
0.00046784068
9.1882387e-06
0.00046552186
9.0804705e-06
0.00046323464
8.9764588e-06
0.00046097778
8.8763571e-06
0.00045874998
8.7802407e-06
0.00045654994
8.6884381e-06
0.00045437624
8.6013658e-06
0.00045222738
8.5194918e-06
0.00045010148
8.4443445e-06
0.00044799682
8.3757234e-06
0.00044591003
8.3197006e-06
0.00044383949
8.2711903e-06
0.00044177688
8.2537567e-06
0.00043972278
8.2405979e-06
0.00043765339
8.3119914e-06
0.00043557225
8.4053127e-06
0.00043340838
8.7167942e-06
0.00043123864
8.9835722e-06
0.00042871525
9.1239435e-06
1.0221436e-05
0.00095319766
6.6406256e-05
-0.00095078652
0.00095787012
8.607888e-05
0.00096320812
9.9806643e-05
0.00096798164
0.00010642396
0.00097184997
0.00010822481
0.00097483027
0.00010747514
0.00097714999
0.0001057543
0.00097904137
0.00010381623
0.00098051156
0.00010166437
0.00098159847
9.9427614e-05
0.00098235077
9.720069e-05
0.00098278844
9.4925104e-05
0.00098284542
9.2677934e-05
0.00098234068
9.0562118e-05
0.00098112786
8.8552789e-05
0.00097881787
8.6665074e-05
0.00097492827
8.4902501e-05
0.0009691723
8.3183336e-05
0.00096135118
8.1481716e-05
0.00095146526
7.9618616e-05
0.00093966265
7.7470343e-05
0.00092614902
7.5089268e-05
0.00091125067
7.2436333e-05
0.00089541014
6.9481869e-05
0.00087911577
6.6268826e-05
0.00086281349
6.2893438e-05
0.00084685208
5.9461315e-05
0.00083145601
5.6085573e-05
0.00081673781
5.2867412e-05
0.00080273787
4.9850467e-05
0.00078945748
4.7044958e-05
0.00077687774
4.4453491e-05
0.00076496867
4.2070501e-05
0.00075369438
3.9879716e-05
0.00074301483
3.7868694e-05
0.00073288914
3.6028546e-05
0.00072327887
3.4340082e-05
0.000714147
3.2787786e-05
0.000705458
3.1363611e-05
0.00069717948
3.005195e-05
0.00068928149
2.8841365e-05
0.00068173596
2.7725325e-05
0.00067451735
2.6691817e-05
0.00066760207
2.5733836e-05
0.00066096832
2.4845976e-05
0.00065459634
2.4019661e-05
0.0006484678
2.3251634e-05
0.00064256617
2.253558e-05
0.00063687653
2.1865181e-05
0.00063138491
2.1238766e-05
0.00062607864
2.0650742e-05
0.00062094599
2.0098618e-05
0.00061597614
1.9579388e-05
0.00061115925
1.9089336e-05
0.00060648597
1.862781e-05
0.0006019478
1.8191388e-05
0.00059753705
1.7778766e-05
0.0005932467
1.7387847e-05
0.00058907025
1.7016748e-05
0.0005850016
1.6663775e-05
0.00058103512
1.6326915e-05
0.00057716555
1.6006017e-05
0.00057338808
1.5699499e-05
0.00056969809
1.5406734e-05
0.00056609127
1.512657e-05
0.00056256374
1.4858481e-05
0.00055911189
1.4601658e-05
0.0005557323
1.4355184e-05
0.00055242176
1.4118324e-05
0.00054917727
1.3890429e-05
0.00054599606
1.3671056e-05
0.0005428755
1.3459622e-05
0.00053981308
1.3255772e-05
0.00053680642
1.3059096e-05
0.00053385329
1.2869459e-05
0.00053095161
1.2686401e-05
0.00052809936
1.2509702e-05
0.00052529463
1.2338965e-05
0.00052253561
1.2174096e-05
0.00051982055
1.2014777e-05
0.00051714775
1.186104e-05
0.00051451558
1.1712638e-05
0.00051192245
1.1569589e-05
0.00050936677
1.143204e-05
0.00050684694
1.130007e-05
0.00050436134
1.1174038e-05
0.00050190824
1.1054465e-05
0.00049948586
1.0941872e-05
0.00049709199
1.0838208e-05
0.00049472463
1.0743089e-05
0.00049238002
1.0664305e-05
0.00049005624
1.0594979e-05
0.00048774435
1.0565638e-05
0.0004854447
1.0540255e-05
0.00048313212
1.0624566e-05
0.00048081026
1.0727174e-05
0.00047840293
1.1124124e-05
0.00047599703
1.1389478e-05
0.0004731575
1.1963473e-05
1.246074e-05
0.00098605091
6.4259905e-05
-0.00098390455
0.0009902394
8.1890388e-05
0.00099515764
9.4888402e-05
0.00099967228
0.00010190932
0.0010033803
0.00010451676
0.0010062817
0.00010457373
0.0010085646
0.00010347149
0.0010104311
0.00010194972
0.0010119558
0.00010013969
0.0010132056
9.8177761e-05
0.0010142325
9.6173828e-05
0.0010150283
9.4129306e-05
0.0010155873
9.2118923e-05
0.0010159684
9.0180977e-05
0.0010161312
8.839002e-05
0.001016037
8.6759256e-05
0.0010156637
8.5275846e-05
0.001014841
8.4005979e-05
0.0010133783
8.2944428e-05
0.0010109475
8.2049414e-05
0.0010071648
8.125308e-05
0.0010017196
8.0534472e-05
0.00099440124
7.9754665e-05
0.0009851543
7.8728812e-05
0.00097404312
7.7380001e-05
0.0009612541
7.5682462e-05
0.00094713146
7.358395e-05
0.00093213759
7.1079448e-05
0.00091675229
6.8252707e-05
0.00090138985
6.5212912e-05
0.00088634585
6.2088958e-05
0.00087179389
5.9005445e-05
0.000857818
5.6046398e-05
0.00084445113
5.3246587e-05
0.00083169841
5.0621406e-05
0.00081954839
4.8178568e-05
0.00080798018
4.5908294e-05
0.00079696635
4.3801611e-05
0.000786476
4.1853961e-05
0.00077647823
4.0049726e-05
0.0007669424
3.8377188e-05
0.00075783843
3.6829296e-05
0.00074913804
3.5392208e-05
0.00074081436
3.4057521e-05
0.00073284205
3.2818285e-05
0.00072519775
3.166396e-05
0.00071785936
3.0590022e-05
0.00071080661
2.9588329e-05
0.00070402099
2.86508e-05
0.00069748512
2.7774644e-05
0.00069118313
2.6952732e-05
0.00068510029
2.6181458e-05
0.00067922303
2.5456643e-05
0.00067353895
2.4773418e-05
0.00066803633
2.4130431e-05
0.00066270442
2.3523295e-05
0.00065753325
2.2949934e-05
0.00065251371
2.2407386e-05
0.0006476374
2.189306e-05
0.00064289651
2.1404666e-05
0.00063828384
2.0939586e-05
0.00063379263
2.0497227e-05
0.00062941667
2.0075456e-05
0.00062515007
1.9673339e-05
0.0006209873
1.9289337e-05
0.00061692333
1.8922448e-05
0.00061295353
1.8571466e-05
0.00060907348
1.8235233e-05
0.00060527905
1.7912748e-05
0.0006015664
1.7603085e-05
0.0005979319
1.7305554e-05
0.00059437219
1.7019329e-05
0.00059088406
1.67439e-05
0.00058746449
1.6478672e-05
0.00058411062
1.6223324e-05
0.00058081979
1.5977237e-05
0.00057758942
1.5740066e-05
0.00057441711
1.5511276e-05
0.00057130054
1.529067e-05
0.0005682375
1.5077815e-05
0.00056522587
1.4872674e-05
0.0005622636
1.467491e-05
0.0005593487
1.4484487e-05
0.00055647921
1.430153e-05
0.00055365318
1.4126104e-05
0.00055086863
1.3958588e-05
0.00054812349
1.3799599e-05
0.00054541566
1.36497e-05
0.0005427426
1.3511269e-05
0.00054010196
1.3383732e-05
0.00053748963
1.3276639e-05
0.0005349033
1.3181303e-05
0.00053233356
1.3135375e-05
0.00052978034
1.3093482e-05
0.00052721747
1.318743e-05
0.00052464836
1.329629e-05
0.0005219927
1.3779781e-05
0.0005193459
1.4036279e-05
0.00051619159
1.5117784e-05
1.4878784e-05
0.0010201067
6.2343525e-05
-0.0010181903
0.0010238537
7.8143318e-05
0.0010283836
9.035856e-05
0.0010326812
9.7611659e-05
0.0010363017
0.00010089629
0.0010391893
0.00010168612
0.0010414809
0.00010117986
0.0010433451
0.0001000856
0.001044869
9.8615724e-05
0.0010461226
9.6924173e-05
0.0010471611
9.5135308e-05
0.0010480074
9.3283081e-05
0.0010486848
9.1441529e-05
0.001049212
8.9653707e-05
0.0010496062
8.7995893e-05
0.0010498669
8.6498539e-05
0.0010500034
8.5139355e-05
0.0010500231
8.3986277e-05
0.0010499096
8.3057846e-05
0.001049624
8.2335022e-05
0.0010490635
8.1813617e-05
0.0010481028
8.1495168e-05
0.001046529
8.1328437e-05
0.0010440003
8.1257513e-05
0.0010401577
8.1222674e-05
0.0010346708
8.1169348e-05
0.0010273336
8.0921172e-05
0.0010180982
8.0314779e-05
0.0010070296
7.9321339e-05
0.00099437045
7.7872059e-05
0.00098053154
7.5927867e-05
0.00096599948
7.3537499e-05
0.00095122852
7.0817359e-05
0.00093656754
6.7907569e-05
0.00092223841
6.4950532e-05
0.000908361
6.2055979e-05
0.00089499437
5.927493e-05
0.00088216351
5.663247e-05
0.00086987268
5.4144787e-05
0.00085811345
5.1808954e-05
0.00084686861
4.9622036e-05
0.00083611585
4.7582052e-05
0.00082583124
4.5676815e-05
0.00081598963
4.3899131e-05
0.00080656567
4.2242249e-05
0.00079753492
4.0694705e-05
0.00078887343
3.9251512e-05
0.00078055854
3.7903222e-05
0.00077256902
3.6640319e-05
0.00076488462
3.5459048e-05
0.00075748662
3.4350729e-05
0.00075035747
3.3310611e-05
0.00074348088
3.2333228e-05
0.00073684186
3.1412441e-05
0.00073042622
3.0546068e-05
0.00072422089
2.972863e-05
0.0007182136
2.8957227e-05
0.00071239303
2.822795e-05
0.00070674873
2.7537366e-05
0.00070127097
2.6882423e-05
0.00069595079
2.625976e-05
0.00069077977
2.5668256e-05
0.0006857501
2.5105118e-05
0.00068085451
2.4568931e-05
0.00067608617
2.4057682e-05
0.00067143871
2.3569906e-05
0.00066690626
2.3103917e-05
0.00066248332
2.2658168e-05
0.00065816473
2.2231334e-05
0.00065394566
2.1822157e-05
0.00064982157
2.1429648e-05
0.00064578822
2.105268e-05
0.00064184161
2.0690512e-05
0.00063797796
2.0342318e-05
0.00063419373
2.0007554e-05
0.00063048557
1.9685399e-05
0.00062685029
1.9375342e-05
0.0006232849
1.9076674e-05
0.0006197865
1.878906e-05
0.0006163524
1.8511923e-05
0.00061297994
1.8245128e-05
0.00060966663
1.7988221e-05
0.00060641003
1.774109e-05
0.00060320774
1.7503814e-05
0.00060005742
1.7276428e-05
0.00059695669
1.7059313e-05
0.00059390312
1.6853169e-05
0.00059089423
1.6658594e-05
0.00058792711
1.6478391e-05
0.00058499904
1.6311797e-05
0.00058210554
1.6170138e-05
0.00057924392
1.6042927e-05
0.00057640427
1.5975025e-05
0.00057358605
1.5911701e-05
0.00057076228
1.6011201e-05
0.00056793594
1.6122631e-05
0.00056502323
1.6692489e-05
0.00056212749
1.6932019e-05
0.00055865353
1.8591745e-05
1.7487381e-05
0.0010553852
6.0610077e-05
-0.0010536517
0.0010587356
7.4792878e-05
0.0010628899
8.6204309e-05
0.0010669683
9.3533176e-05
0.001070512
9.7352636e-05
0.0010734091
9.878902e-05
0.0010757419
9.8847012e-05
0.0010776447
9.8182795e-05
0.0010792024
9.7058097e-05
0.0010804811
9.564544e-05
0.0010815351
9.4081307e-05
0.0010823952
9.2423025e-05
0.0010830914
9.0745333e-05
0.0010836446
8.9100457e-05
0.0010840817
8.7558773e-05
0.0010844212
8.6159072e-05
0.0010846677
8.4892856e-05
0.0010848362
8.3817731e-05
0.0010849401
8.2953996e-05
0.0010849746
8.2300548e-05
0.0010849403
8.1847852e-05
0.0010848406
8.159486e-05
0.0010846346
8.153446e-05
0.0010842548
8.1637357e-05
0.0010835978
8.1879622e-05
0.0010825261
8.2241095e-05
0.0010807674
8.2679804e-05
0.001077948
8.313421e-05
0.0010737075
8.3561894e-05
0.0010677414
8.3838123e-05
0.0010598839
8.378532e-05
0.0010501158
8.3305604e-05
0.0010385996
8.2333582e-05
0.0010256958
8.0811392e-05
0.001011884
7.876232e-05
0.00099764024
7.6299735e-05
0.00098334693
7.3568244e-05
0.00096925739
7.0722008e-05
0.0009555166
6.7885571e-05
0.00094220309
6.5122463e-05
0.00092935711
6.2468019e-05
0.00091699523
5.9943929e-05
0.00090511904
5.7553012e-05
0.00089371953
5.5298637e-05
0.00088278161
5.3180174e-05
0.00087228717
5.1189146e-05
0.0008622157
4.9322975e-05
0.00085254606
4.7572868e-05
0.0008432571
4.5929274e-05
0.00083432771
4.4388444e-05
0.00082573775
4.2940688e-05
0.00081746786
4.1580502e-05
0.00080949974
4.0301346e-05
0.00080181626
3.9095915e-05
0.00079440107
3.7961264e-05
0.00078723891
3.6890784e-05
0.0007803154
3.5880742e-05
0.00077361709
3.4926259e-05
0.00076713144
3.402301e-05
0.00076084678
3.316709e-05
0.00075475226
3.2354276e-05
0.00074883768
3.1582836e-05
0.00074309358
3.0849218e-05
0.00073751111
3.0151405e-05
0.000732082
2.9486793e-05
0.00072679849
2.885341e-05
0.00072165338
2.8249035e-05
0.00071663991
2.7671631e-05
0.00071175179
2.7119458e-05
0.00070698308
2.6590867e-05
0.00070232822
2.608451e-05
0.000697782
2.55989e-05
0.00069333952
2.5132992e-05
0.00068899616
2.468567e-05
0.00068474758
2.4256132e-05
0.00068058968
2.3843301e-05
0.00067651857
2.3446453e-05
0.00067253058
2.3064668e-05
0.0006686222
2.2697435e-05
0.00066479013
2.2343995e-05
0.00066103117
2.2004086e-05
0.00065734229
2.1677107e-05
0.00065372054
2.136284e-05
0.00065016306
2.1061295e-05
0.00064666703
2.0772455e-05
0.00064322966
2.0496685e-05
0.00063984808
2.023475e-05
0.0006365194
1.9987273e-05
0.00063324032
1.9757471e-05
0.00063000772
1.9544394e-05
0.00062681671
1.9361149e-05
0.00062366417
1.919547e-05
0.00062053972
1.9099475e-05
0.00061744231
1.9009113e-05
0.0006143442
1.9109304e-05
0.00061124791
1.9218927e-05
0.00060806643
1.9873971e-05
0.00060491099
2.0087452e-05
0.00060110805
2.2394687e-05
2.0298774e-05
0.0010918866
5.9014609e-05
-0.0010902912
0.0010948942
7.1785262e-05
0.0010986915
8.2407088e-05
0.0011025375
8.9687098e-05
0.0011059876
9.3902574e-05
0.0011088872
9.5889386e-05
0.0011112664
9.6467827e-05
0.0011132234
9.6225801e-05
0.0011148335
9.5447985e-05
0.001116158
9.4320928e-05
0.0011172489
9.2990431e-05
0.0011181399
9.1532086e-05
0.0011188618
9.00234e-05
0.0011194384
8.8523859e-05
0.0011198964
8.7100717e-05
0.0011202582
8.5797273e-05
0.001120534
8.461715e-05
0.0011207417
8.3610001e-05
0.0011208971
8.2798618e-05
0.0011210089
8.2188675e-05
0.00112108
8.1776778e-05
0.0011211188
8.1556065e-05
0.0011211279
8.1525393e-05
0.0011211035
8.1661678e-05
0.0011210336
8.194961e-05
0.0011208905
8.2384174e-05
0.001120628
8.2942248e-05
0.0011201628
8.3599453e-05
0.0011193786
8.4346045e-05
0.0011180636
8.5153126e-05
0.0011158808
8.5968175e-05
0.0011124448
8.6741544e-05
0.0011073924
8.7386045e-05
0.001100476
8.7727732e-05
0.0010916128
8.7625545e-05
0.0010809079
8.7004696e-05
0.0010686868
8.5789331e-05
0.0010554225
8.3986256e-05
0.0010416025
8.1705582e-05
0.0010276255
7.9099467e-05
0.0010137597
7.633379e-05
0.0010001637
7.3539944e-05
0.00098692821
7.0788522e-05
0.00097410378
6.8123069e-05
0.00096171584
6.5568108e-05
0.00094977334
6.3131648e-05
0.00093827352
6.0822792e-05
0.00092720698
5.8639417e-05
0.00091656006
5.657619e-05
0.00090631611
5.4632396e-05
0.0008964575
5.2799298e-05
0.00088696591