/*--------------------------------*- C++ -*----------------------------------*\
| =========                 |                                                 |
| \\      /  F ield         | OpenFOAM: The Open Source CFD Toolbox           |
|  \\    /   O peration     | Version:  2206                                  |
|   \\  /    A nd           | Website:  www.openfoam.com                      |
|    \\/     M anipulation  |                                                 |
\*---------------------------------------------------------------------------*/
FoamFile
{
    version     2.0;
    format      ascii;
    arch        "LSB;label=32;scalar=64";
    class       volVectorField;
    location    "2000";
    object      U;
}
// * * * * * * * * * * * * * * * * * * * * * * * * * * * * * * * * * * * * * //

dimensions      [0 1 -1 0 0 0 0];

internalField   nonuniform List<vector> 
7480
(
(0.86081527 0.014774136 5.8330468e-16)
(0.74499432 0.025620539 0)
(0.62913075 0.027247151 0)
(0.52591744 0.019476001 0)
(0.45034724 0.0094027416 0)
(0.3981924 0.003753014 0)
(0.36051055 0.0017205932 0)
(0.33141841 0.0012090291 0)
(0.30772651 0.0010856961 0)
(0.28783741 0.00096815446 0)
(0.27100384 0.0008180951 0)
(0.25674346 0.00067175515 0)
(0.24464267 0.00054381392 0)
(0.23435605 0.00043832001 0)
(0.22558897 0.00035468601 0)
(0.21808548 0.00028732214 0)
(0.21164666 0.00023270596 0)
(0.20610704 0.00018759659 0)
(0.20131338 0.00017124787 -2.7161728e-18)
(0.19714924 0.00027244148 -1.6083224e-17)
(0.19347336 0.00013421102 0)
(0.19020102 9.0872866e-05 0)
(0.18725362 7.7814827e-05 0)
(0.18456771 6.8500276e-05 0)
(0.18210062 8.1343447e-05 -4.4540076e-18)
(0.17981645 5.8851818e-05 0)
(0.17768953 5.0270531e-05 0)
(0.17569644 4.5887774e-05 0)
(0.17381544 4.2580917e-05 0)
(0.17202818 3.9701999e-05 0)
(0.17032424 3.7001986e-05 0)
(0.1686963 3.455295e-05 0)
(0.1671363 3.2375418e-05 0)
(0.16563775 3.0407366e-05 0)
(0.16419392 2.8642505e-05 0)
(0.16280028 2.7112969e-05 0)
(0.16144857 2.57362e-05 0)
(0.16013638 2.4440762e-05 0)
(0.15885983 2.3281128e-05 0)
(0.15761515 2.2208126e-05 0)
(0.15639986 2.1206824e-05 0)
(0.15521139 2.0289812e-05 0)
(0.15404773 1.9407254e-05 0)
(0.1529076 1.8570666e-05 0)
(0.15178937 1.7787024e-05 0)
(0.15069193 1.7033722e-05 0)
(0.14961381 1.6338044e-05 0)
(0.14855341 1.5680196e-05 0)
(0.1475099 1.5045263e-05 0)
(0.14648225 1.4450928e-05 0)
(0.14546965 1.3873305e-05 0)
(0.14447162 1.3321246e-05 0)
(0.14348743 1.2792859e-05 0)
(0.14251676 1.2280909e-05 0)
(0.14155896 1.1797638e-05 0)
(0.14061357 1.1328862e-05 0)
(0.13968021 1.0882522e-05 0)
(0.13875831 1.0456814e-05 0)
(0.13784735 1.0049589e-05 0)
(0.13694691 9.6581173e-06 0)
(0.13605691 9.2771431e-06 0)
(0.13517716 8.9130843e-06 0)
(0.13430737 8.5614451e-06 0)
(0.13344731 8.2245679e-06 0)
(0.13259677 7.8996488e-06 0)
(0.13175556 7.588307e-06 0)
(0.13092338 7.2900469e-06 0)
(0.13009997 7.0033933e-06 0)
(0.1292852 6.7275365e-06 0)
(0.1284789 6.4620611e-06 0)
(0.12768093 6.2073632e-06 0)
(0.12689109 5.9623852e-06 0)
(0.12610924 5.7269127e-06 0)
(0.1253353 5.5002101e-06 0)
(0.12456909 5.2829793e-06 0)
(0.12381044 5.074231e-06 0)
(0.1230592 4.8740581e-06 0)
(0.12231523 4.681545e-06 0)
(0.12157839 4.4969926e-06 0)
(0.12084853 4.3195924e-06 0)
(0.12012551 4.1496043e-06 0)
(0.11940916 3.9863849e-06 0)
(0.11869935 3.8298737e-06 0)
(0.11799588 3.6800738e-06 0)
(0.11729858 3.5363764e-06 0)
(0.11660721 3.3992832e-06 0)
(0.11592155 3.2678653e-06 0)
(0.11524124 3.1433573e-06 0)
(0.11456606 3.0237439e-06 0)
(0.1138952 2.9130648e-06 0)
(0.11322883 2.8040078e-06 0)
(0.11256431 2.7136405e-06 0)
(0.11190439 2.6083485e-06 0)
(0.11123869 2.564416e-06 0)
(0.11058248 2.4303754e-06 0)
(0.10989488 2.5353664e-06 0)
(0.10923478 2.2240081e-06 -4.4194989e-21)
(0.10846502 6.242657e-06 7.3278782e-20)
(0.10786603 -1.758499e-06 -3.2243293e-19)
(0.10669255 1.2436565e-05 -1.1185867e-18)
(0.95773161 0.024853307 0)
(0.94372152 0.032458343 0)
(0.91265652 0.032558813 0)
(0.86117328 0.028732562 0)
(0.79850432 0.022891166 0)
(0.73563903 0.017260987 0)
(0.67886242 0.012879569 0)
(0.63019314 0.0098194447 0)
(0.58923626 0.0077450481 0)
(0.55476114 0.0062561573 0)
(0.52557176 0.0051174952 0)
(0.50069061 0.0042196581 0)
(0.47935892 0.0034905029 0)
(0.46100403 0.0028920649 0)
(0.44516373 0.0024013031 0)
(0.43146509 0.0019966897 0)
(0.4195835 0.0016652874 0)
(0.40923008 0.0013953195 0)
(0.40015386 0.0011768073 0)
(0.3921423 0.00099971077 0)
(0.38501836 0.00085094101 0)
(0.37863001 0.00074486093 0)
(0.37284852 0.00065617008 0)
(0.36757464 0.00058183586 0)
(0.36273013 0.00052029924 0)
(0.35824826 0.00046757208 0)
(0.3540809 0.00042422417 0)
(0.35018232 0.0003869334 0)
(0.34651498 0.0003553017 0)
(0.34304687 0.00032795084 0)
(0.33975571 0.0003035384 0)
(0.33662374 0.00028169902 0)
(0.333634 0.00026219344 0)
(0.33077251 0.00024466484 0)
(0.32802574 0.00022887396 0)
(0.32538408 0.00021484907 0)
(0.32283235 0.00020225462 0)
(0.32036475 0.00019068716 0)
(0.317973 0.00018021353 0)
(0.31564961 0.00017061548 0)
(0.3133891 0.00016175847 0)
(0.31118627 0.00015360869 0)
(0.3090367 0.00014598927 0)
(0.30693702 0.0001388671 0)
(0.30488375 0.00013222224 0)
(0.3028741 0.00012597623 0)
(0.30090496 0.00012017197 0)
(0.29897325 0.00011473663 0)
(0.29707682 0.00010960167 0)
(0.29521351 0.00010478386 0)
(0.29338147 0.00010020783 0)
(0.29157928 9.5873197e-05 0)
(0.2898054 9.176082e-05 0)
(0.28805876 8.784215e-05 0)
(0.286338 8.4135933e-05 0)
(0.28464204 8.0599312e-05 0)
(0.2829699 7.7241946e-05 0)
(0.2813204 7.4056064e-05 0)
(0.27969242 7.102719e-05 0)
(0.2780851 6.8134687e-05 0)
(0.27649799 6.5356633e-05 0)
(0.27493056 6.2704969e-05 0)
(0.27338214 6.0166959e-05 0)
(0.27185216 5.7741839e-05 0)
(0.27034012 5.5418748e-05 0)
(0.26884553 5.3198827e-05 0)
(0.26736777 5.1078562e-05 0)
(0.26590632 4.9049139e-05 0)
(0.26446077 4.7103923e-05 0)
(0.26303077 4.5239113e-05 0)
(0.26161593 4.3453336e-05 0)
(0.26021587 4.1741425e-05 0)
(0.25883027 4.0099523e-05 0)
(0.25745885 3.8524028e-05 0)
(0.25610127 3.7015308e-05 0)
(0.25475718 3.5569171e-05 0)
(0.25342624 3.4183503e-05 0)
(0.25210816 3.2854291e-05 0)
(0.25080263 3.1580512e-05 0)
(0.24950936 3.0358779e-05 0)
(0.24822804 2.9188369e-05 0)
(0.24695836 2.8066316e-05 0)
(0.24570001 2.6991365e-05 0)
(0.24445264 2.5962606e-05 0)
(0.2432159 2.4977855e-05 0)
(0.24198935 2.4037351e-05 0)
(0.24077256 2.3139224e-05 0)
(0.23956489 2.228494e-05 0)
(0.23836589 2.1473328e-05 0)
(0.23717417 2.0708104e-05 0)
(0.23598989 1.9989575e-05 0)
(0.23480864 1.9329632e-05 0)
(0.23363468 1.8723477e-05 0)
(0.23245086 1.8226782e-05 0)
(0.2312817 1.7762408e-05 0)
(0.23006007 1.7702748e-05 0)
(0.2288807 1.7371499e-05 7.9300635e-21)
(0.22751656 1.9301597e-05 0)
(0.22643132 9.6616347e-06 0)
(0.22434407 3.1240535e-05 0)
(0.96688179 0.026258987 0)
(0.97172351 0.035071559 0)
(0.9766926 0.038588568 0)
(0.97547282 0.037456827 0)
(0.96089782 0.034237751 0)
(0.93280758 0.029903384 0)
(0.89625507 0.025216687 0)
(0.85634962 0.020834884 0)
(0.81634073 0.017122922 0)
(0.77815268 0.014074952 0)
(0.74283858 0.011598923 0)
(0.71085236 0.0096040453 0)
(0.68224799 0.0079835909 0)
(0.6568489 0.0066605104 0)
(0.6343507 0.0055804372 0)
(0.61442499 0.004694188 0)
(0.59675058 0.0039658687 0)
(0.58103097 0.0033661531 0)
(0.56700433 0.0028720683 0)
(0.55444062 0.0024653078 0)
(0.54314291 0.0021354849 0)
(0.53293052 0.0018670226 0)
(0.52365055 0.0016448677 0)
(0.51517403 0.0014597736 0)
(0.50739059 0.0013044904 0)
(0.50020496 0.0011739521 0)
(0.49353496 0.00106247 0)
(0.48731671 0.00096651451 0)
(0.48149587 0.00088420073 0)
(0.47602632 0.00081257509 0)
(0.47086847 0.0007491006 0)
(0.46598897 0.0006926238 0)
(0.46135848 0.00064230111 0)
(0.45695198 0.0005971837 0)
(0.4527479 0.0005565966 0)
(0.44872785 0.00052047112 0)
(0.44486977 0.00048802603 0)
(0.44116195 0.00045839451 0)
(0.43758979 0.00043155519 0)
(0.43414128 0.00040702325 0)
(0.43080658 0.00038447168 0)
(0.42757656 0.00036375732 0)
(0.42444306 0.00034452953 0)
(0.4213993 0.00032666038 0)
(0.41843881 0.00031005809 0)
(0.41555598 0.0002945518 0)
(0.41274537 0.00028016295 0)
(0.41000182 0.00026673951 0)
(0.40732113 0.00025413385 0)
(0.40469937 0.00024233592 0)
(0.402133 0.00023120127 0)
(0.39961902 0.00022070336 0)
(0.39715445 0.00021078898 0)
(0.39473691 0.00020139297 0)
(0.39236391 0.00019252592 0)
(0.39003331 0.0001841072 0)
(0.38774311 0.00017613991 0)
(0.38549122 0.00016860002 0)
(0.38327573 0.00016145106 0)
(0.38109504 0.0001546468 0)
(0.37894795 0.00014814285 0)
(0.37683323 0.00014195106 0)
(0.37474957 0.00013604501 0)
(0.37269584 0.00013041542 0)
(0.37067097 0.00012503899 0)
(0.36867399 0.00011991275 0)
(0.36670379 0.00011502621 0)
(0.36475942 0.0001103593 0)
(0.36284006 0.00010589644 0)
(0.36094497 0.00010162754 0)
(0.35907339 9.7546636e-05 0)
(0.35722461 9.3641891e-05 0)
(0.35539797 8.9903518e-05 0)
(0.35359291 8.6323185e-05 0)
(0.35180878 8.2899082e-05 0)
(0.35004495 7.9621927e-05 0)
(0.34830082 7.6485706e-05 0)
(0.34657586 7.3481747e-05 0)
(0.3448695 7.0606259e-05 0)
(0.34318122 6.7851934e-05 0)
(0.3415105 6.5215896e-05 0)
(0.33985679 6.2691697e-05 0)
(0.33821958 6.0275866e-05 0)
(0.3365983 5.7965726e-05 0)
(0.33499237 5.5756791e-05 0)
(0.33340114 5.36483e-05 0)
(0.33182395 5.1637174e-05 0)
(0.33025986 4.9724376e-05 0)
(0.32870822 4.7910636e-05 0)
(0.32716714 4.6197267e-05 0)
(0.32563669 4.4598544e-05 0)
(0.32411121 4.3111491e-05 0)
(0.32259585 4.1787522e-05 0)
(0.32106897 4.06191e-05 0)
(0.31956081 3.9704196e-05 0)
(0.31798754 3.9324978e-05 0)
(0.31646576 3.9092568e-05 5.8332909e-21)
(0.31471173 4.1295322e-05 0)
(0.31329299 2.9361937e-05 0)
(0.31062128 5.7493719e-05 -7.3599585e-21)
(0.97002531 0.024413232 0)
(0.9755164 0.032529052 0)
(0.98349627 0.03625767 0)
(0.9901097 0.036510289 0)
(0.99366092 0.034748113 0)
(0.99332875 0.032276479 0)
(0.98714113 0.029656733 0)
(0.97433215 0.027043387 0)
(0.95506119 0.024390012 0)
(0.93127758 0.021552817 0)
(0.90471952 0.018738828 0)
(0.87676466 0.016124841 0)
(0.84856305 0.013790668 0)
(0.82102355 0.011763404 0)
(0.79479465 0.010025785 0)
(0.77027607 0.0085459206 0)
(0.74765013 0.0072979751 0)
(0.72693185 0.0062524514 0)
(0.70803123 0.0053836512 0)
(0.6908053 0.004665834 0)
(0.67510078 0.0040693692 0)
(0.66076127 0.0035730589 0)
(0.6476421 0.0031572483 0)
(0.63560909 0.0028054372 0)
(0.62453732 0.0025069767 0)
(0.61431454 0.0022527681 0)
(0.60483652 0.0020343963 0)
(0.59601995 0.0018458052 0)
(0.58779298 0.0016826761 0)
(0.58009163 0.0015401922 0)
(0.57285902 0.0014142925 0)
(0.56604597 0.0013026796 0)
(0.55960943 0.0012035379 0)
(0.55351072 0.0011149303 0)
(0.54771851 0.0010353713 0)
(0.54220432 0.00096427229 0)
(0.53694269 0.0009003885 0)
(0.53191098 0.00084235555 0)
(0.52708944 0.00078981462 0)
(0.52245983 0.00074195359 0)
(0.51800661 0.00069812866 0)
(0.51371572 0.00065798944 0)
(0.50957438 0.00062094473 0)
(0.50557154 0.00058669935 0)
(0.50169691 0.00055502662 0)
(0.49794129 0.00052559697 0)
(0.4942966 0.00049835146 0)
(0.49075492 0.00047302967 0)
(0.48730956 0.00044936786 0)
(0.4839544 0.00042729325 0)
(0.48068377 0.00040657208 0)
(0.47749266 0.00038712538 0)
(0.47437629 0.00036884201 0)
(0.47133057 0.00035159759 0)
(0.46835163 0.00033537128 0)
(0.46543598 0.00032003522 0)
(0.46258029 0.00030557055 0)
(0.45978138 0.00029192036 0)
(0.45703642 0.00027901365 0)
(0.45434287 0.00026677195 0)
(0.45169856 0.00025512282 0)
(0.44910133 0.00024406731 0)
(0.4465491 0.00023355742 0)
(0.44403999 0.00022356734 0)
(0.44157226 0.00021405586 0)
(0.43914428 0.00020500986 0)
(0.43675438 0.00019640598 0)
(0.43440109 0.00018820841 0)
(0.43208309 0.0001803891 0)
(0.42979912 0.00017292776 0)
(0.42754798 0.00016580967 0)
(0.42532856 0.00015901319 0)
(0.4231398 0.00015251997 0)
(0.42098074 0.00014631453 0)
(0.41885037 0.00014038983 0)
(0.41674774 0.00013472921 0)
(0.41467195 0.00012932063 0)
(0.41262215 0.00012414902 0)
(0.41059749 0.00011920587 0)
(0.40859718 0.00011447843 0)
(0.40662043 0.00010996003 0)
(0.40466645 0.00010563944 0)
(0.40273448 0.00010150968 0)
(0.40082371 9.756513e-05 0)
(0.39893335 9.3798177e-05 0)
(0.39706248 9.0205916e-05 0)
(0.39521025 8.6783802e-05 0)
(0.39337544 8.3530946e-05 0)
(0.39155716 8.0451299e-05 0)
(0.38975318 7.7540323e-05 0)
(0.38796339 7.4834035e-05 0)
(0.38618141 7.2300081e-05 0)
(0.38441259 7.0081113e-05 0)
(0.38263307 6.804326e-05 0)
(0.38087527 6.6597805e-05 0)
(0.37904776 6.5709208e-05 0)
(0.3772757 6.5767316e-05 4.4351766e-21)
(0.37524886 6.7816252e-05 0)
(0.37357962 5.633729e-05 0)
(0.37050094 8.5052188e-05 5.7414446e-21)
(0.97202137 0.023247863 0)
(0.9769541 0.030489064 0)
(0.98429118 0.03420616 0)
(0.99136394 0.034667613 0)
(0.99651335 0.033383644 0)
(0.99962236 0.031515319 0)
(1.0020871 0.029633838 0)
(1.0019642 0.027888412 0)
(1.0003919 0.026207946 0)
(0.9957152 0.02447713 0)
(0.98724973 0.02267852 0)
(0.97480988 0.020822044 0)
(0.95889818 0.018854393 0)
(0.94036072 0.016854007 0)
(0.91990945 0.014923959 0)
(0.89823254 0.013126329 0)
(0.87603441 0.011508736 0)
(0.85394624 0.010068114 0)
(0.83248572 0.0088012978 0)
(0.81201837 0.0077034747 0)
(0.79275735 0.0067587238 0)
(0.77477625 0.0059561437 0)
(0.75805674 0.0052767853 0)
(0.74253517 0.0046987136 0)
(0.72812905 0.0042044126 0)
(0.71475112 0.0037791472 0)
(0.70231166 0.0034105477 0)
(0.69072497 0.0030894469 0)
(0.67991038 0.0028095872 0)
(0.66979238 0.0025641251 0)
(0.66030388 0.0023472191 0)
(0.6513848 0.0021550414 0)
(0.64298057 0.001984424 0)
(0.63504154 0.0018321461 0)
(0.6275256 0.0016957108 0)
(0.62039381 0.0015736871 0)
(0.61361496 0.0014639931 0)
(0.60715706 0.0013646782 0)
(0.60099343 0.0012748886 0)
(0.59509938 0.0011932413 0)
(0.5894535 0.0011187155 0)
(0.5840359 0.0010506603 0)
(0.57882851 0.00098813433 0)
(0.57381552 0.00093058322 0)
(0.56898221 0.00087757169 0)
(0.56431519 0.00082852476 0)
(0.5598032 0.00078321232 0)
(0.55543548 0.0007412144 0)
(0.55120267 0.00070212227 0)
(0.54709606 0.00066577114 0)
(0.54310741 0.00063180647 0)
(0.53922939 0.00060005817 0)
(0.53545516 0.0005703281 0)
(0.53177864 0.00054240571 0)
(0.52819427 0.00051621385 0)
(0.52469686 0.00049155966 0)
(0.52128157 0.00046837806 0)
(0.51794398 0.00044655758 0)
(0.51468021 0.0004259798 0)
(0.51148658 0.00040652843 0)
(0.50835971 0.00038809354 0)
(0.50529639 0.00037065102 0)
(0.50229363 0.00035412066 0)
(0.49934869 0.00033845081 0)
(0.49645902 0.0003235749 0)
(0.49362223 0.00030946179 0)
(0.49083602 0.00029606763 0)
(0.48809831 0.00028333586 0)
(0.48540717 0.00027122161 0)
(0.48276077 0.00025968909 0)
(0.4801574 0.00024870974 0)
(0.47759548 0.00023824843 0)
(0.47507348 0.00022827538 0)
(0.47258998 0.00021876447 0)
(0.47014356 0.00020969956 0)
(0.4677329 0.00020105379 0)
(0.46535676 0.0001928066 0)
(0.46301392 0.00018493434 0)
(0.46070325 0.00017742147 0)
(0.45842362 0.00017024785 0)
(0.45617396 0.00016340113 0)
(0.45395319 0.00015686366 0)
(0.4517603 0.00015062334 0)
(0.44959422 0.0001446702 0)
(0.44745391 0.00013899237 0)
(0.44533821 0.00013358354 0)
(0.44324601 0.00012843701 0)
(0.44117588 0.00012354879 0)
(0.43912667 0.00011892647 0)
(0.43709588 0.0001145573 0)
(0.43508315 0.00011050356 0)
(0.43308168 0.00010669474 0)
(0.43109663 0.00010338606 0)
(0.42910323 0.00010028016 0)
(0.4271341 9.8184535e-05 0)
(0.4250952 9.6615183e-05 0)
(0.42311316 9.7039811e-05 3.6263873e-21)
(0.42086751 9.8498729e-05 5.8971483e-20)
(0.4189877 8.9549382e-05 0)
(0.4155793 0.00011446748 0)
(0.97345987 0.022378774 0)
(0.97791984 0.028805592 0)
(0.98425034 0.032347709 0)
(0.99044718 0.033073921 0)
(0.99545664 0.032234058 0)
(0.99920737 0.030719772 0)
(1.0018348 0.029079621 0)
(1.0036937 0.027544369 0)
(1.0048928 0.026043199 0)
(1.0057612 0.024589126 0)
(1.0055437 0.023208274 0)
(1.0043441 0.021880853 0)
(1.0014661 0.020569852 0)
(0.9962481 0.01925851 0)
(0.9884021 0.017956626 0)
(0.9777551 0.016608545 0)
(0.96472056 0.015203894 0)
(0.94960762 0.013811004 0)
(0.93279363 0.012465218 0)
(0.91474226 0.01120064 0)
(0.89600802 0.010035028 0)
(0.8771275 0.0089751465 0)
(0.85856288 0.0080220457 0)
(0.84065144 0.0071747707 0)
(0.82359247 0.00643102 0)
(0.80746846 0.0057842039 0)
(0.79228697 0.0052221875 0)
(0.7780197 0.0047312206 0)
(0.76462078 0.0043007369 0)
(0.75203586 0.0039206936 0)
(0.74020808 0.0035831887 0)
(0.72907977 0.0032831356 0)
(0.71859408 0.0030161778 0)
(0.70869811 0.0027777015 0)
(0.69934347 0.0025640431 0)
(0.69048377 0.0023726661 0)
(0.68207946 0.0022005129 0)
(0.67409323 0.0020449607 0)
(0.66649084 0.0019044112 0)
(0.65924151 0.0017768279 0)
(0.65231805 0.0016606319 0)
(0.64569503 0.0015547395 0)
(0.63934914 0.0014577636 0)
(0.63325971 0.0013687884 0)
(0.62740753 0.0012870755 0)
(0.62177514 0.0012117328 0)
(0.61634716 0.0011422892 0)
(0.61110949 0.0010780961 0)
(0.60604965 0.0010185366 0)
(0.60115603 0.00096330385 0)
(0.59641766 0.00091188162 0)
(0.59182483 0.00086397388 0)
(0.58736837 0.00081926548 0)
(0.58304 0.00077742724 0)
(0.57883218 0.0007383026 0)
(0.57473757 0.00070160415 0)
(0.57074986 0.00066718697 0)
(0.5668632 0.00063486629 0)
(0.56307241 0.00060446403 0)
(0.55937244 0.00057581428 0)
(0.55575863 0.0005487556 0)
(0.55222663 0.00052322378 0)
(0.54877242 0.00049909358 0)
(0.5453923 0.00047627867 0)
(0.54208276 0.00045467903 0)
(0.53884054 0.00043423395 0)
(0.53566261 0.00041486978 0)
(0.53254623 0.00039650435 0)
(0.52948873 0.0003790701 0)
(0.52648766 0.00036250922 0)
(0.52354073 0.00034677354 0)
(0.52064584 0.00033181051 0)
(0.5178009 0.00031757561 0)
(0.51500396 0.00030402737 0)
(0.51225317 0.00029113593 0)
(0.50954681 0.00027886113 0)
(0.5068832 0.00026717108 0)
(0.50426078 0.00025603088 0)
(0.50167804 0.00024541535 0)
(0.49913351 0.00023529466 0)
(0.4966258 0.00022564858 0)
(0.49415353 0.00021645112 0)
(0.49171539 0.00020768324 0)
(0.48931004 0.000199329 0)
(0.48693616 0.00019137083 0)
(0.48459235 0.00018379764 0)
(0.48227725 0.00017659955 0)
(0.47998916 0.00016976825 0)
(0.4777267 0.0001633147 0)
(0.47548712 0.00015721628 0)
(0.47326977 0.00015156369 0)
(0.47106762 0.00014624345 0)
(0.46888543 0.00014163485 0)
(0.46669817 0.00013725773 0)
(0.46453771 0.0001343608 0)
(0.46230994 0.00013194307 0)
(0.46013957 0.00013272673 0)
(0.45770405 0.00013328095 0)
(0.45563736 0.00012842247 1.1250879e-19)
(0.45194078 0.00014625058 0)
(0.97470718 0.021583418 0)
(0.97867096 0.02733402 0)
(0.98421286 0.030698897 0)
(0.98966621 0.031631106 0)
(0.99417376 0.031096221 0)
(0.99765653 0.029865514 0)
(1.0002942 0.02844506 0)
(1.002387 0.027050612 0)
(1.0041117 0.025661344 0)
(1.0054053 0.024314809 0)
(1.0063347 0.023038566 0)
(1.0069264 0.021810757 0)
(1.0072352 0.020640383 0)
(1.0070309 0.019550265 0)
(1.0061947 0.018528826 0)
(1.0045301 0.017558082 0)
(1.0014309 0.016629837 0)
(0.99653944 0.015719547 0)
(0.9896011 0.01481614 0)
(0.9804754 0.013877681 0)
(0.96930856 0.012893211 0)
(0.95625777 0.011902274 0)
(0.94158864 0.010923554 0)
(0.92570594 0.0099783699 0)
(0.90911346 0.0090824158 0)
(0.89230788 0.0082461527 0)
(0.87570689 0.0074792002 0)
(0.85960408 0.0067863763 0)
(0.84416324 0.0061696883 0)
(0.82945157 0.0056239584 0)
(0.81548296 0.0051394684 0)
(0.80224541 0.0047075671 0)
(0.78971238 0.0043212353 0)
(0.77784907 0.003974323 0)
(0.76661618 0.0036624574 0)
(0.75597097 0.0033823302 0)
(0.7458728 0.0031298749 0)
(0.73628321 0.0029017162 0)
(0.72716478 0.0026955099 0)
(0.71848253 0.0025084185 0)
(0.71020476 0.0023382217 0)
(0.70230182 0.0021833097 0)
(0.69474615 0.0020417351 0)
(0.68751274 0.0019121275 0)
(0.68057833 0.0017933553 0)
(0.67392168 0.0016841229 0)
(0.66752334 0.0015836393 0)
(0.66136538 0.0014909521 0)
(0.65543186 0.0014051792 0)
(0.64970806 0.0013258239 0)
(0.64418024 0.0012521602 0)
(0.63883605 0.0011837179 0)
(0.63366389 0.0011200235 0)
(0.62865322 0.0010605975 0)
(0.62379432 0.0010051721 0)
(0.6190779 0.00095334054 0)
(0.61449574 0.0009048521 0)
(0.61004033 0.00085942035 0)
(0.60570483 0.00081678627 0)
(0.60148275 0.000776718 0)
(0.5973681 0.00073898722 0)
(0.5933553 0.00070347211 0)
(0.58943922 0.00066998961 0)
(0.58561506 0.00063840974 0)
(0.58187821 0.00060858705 0)
(0.57822444 0.00058041621 0)
(0.57465001 0.00055378527 0)
(0.57115131 0.00052858132 0)
(0.56772491 0.00050470683 0)
(0.56436767 0.00048207492 0)
(0.56107661 0.0004606114 0)
(0.55784899 0.00044024035 0)
(0.55468219 0.00042089768 0)
(0.55157369 0.00040252232 0)
(0.54852113 0.00038506595 0)
(0.54552231 0.00036847127 0)
(0.54257514 0.00035269167 0)
(0.53967761 0.00033767784 0)
(0.53682781 0.00032339203 0)
(0.53402392 0.00030979201 0)
(0.53126418 0.00029684721 0)
(0.52854687 0.00028452106 0)
(0.52587038 0.00027278551 0)
(0.52323305 0.00026161674 0)
(0.52063329 0.00025098985 0)
(0.5180694 0.00024088738 0)
(0.51553977 0.00023129498 0)
(0.51304245 0.0002221987 0)
(0.51057579 0.00021361213 0)
(0.5081368 0.00020550147 0)
(0.50572455 0.00019798647 0)
(0.50333181 0.00019090807 0)
(0.50096291 0.00018477541 0)
(0.49859284 0.00017891594 0)
(0.49625231 0.00017504339 0)
(0.49384837 0.00017160432 0)
(0.49150235 0.00017268431 0)
(0.48889364 0.00017208053 0)
(0.48665553 0.00017258283 1.0063558e-19)
(0.48269539 0.00018062509 0)
(0.97598669 0.02084885 0)
(0.97942949 0.025985761 0)
(0.98430902 0.029208057 0)
(0.98921664 0.030319684 0)
(0.99336188 0.030044142 0)
(0.99661191 0.029061531 0)
(0.99912341 0.027828428 0)
(1.0011278 0.026557418 0)
(1.0027892 0.025272865 0)
(1.0041511 0.024014138 0)
(1.0052674 0.022803725 0)
(1.0061743 0.021634818 0)
(1.0068472 0.020523318 0)
(1.0072748 0.019480277 0)
(1.0076072 0.018508535 0)
(1.0075889 0.017611541 0)
(1.0074097 0.016788894 0)
(1.0068524 0.016035678 0)
(1.0057667 0.015344465 0)
(1.0039379 0.014699774 0)
(1.0009271 0.014078617 0)
(0.99641361 0.013468462 0)
(0.99010101 0.01283736 0)
(0.98186911 0.012150427 0)
(0.97173347 0.011412941 0)
(0.95980595 0.010644779 0)
(0.94634722 0.0098656717 0)
(0.93178166 0.0091001692 0)
(0.91660101 0.0083613622 0)
(0.90126736 0.0076635465 0)
(0.88613768 0.0070176899 0)
(0.87143854 0.0064306697 0)
(0.85728657 0.0059030701 0)
(0.84373089 0.0054292274 0)
(0.83078664 0.0050022852 0)
(0.81844873 0.0046168835 0)
(0.80669982 0.0042677682 0)
(0.79551521 0.0039511015 0)
(0.78486518 0.0036641622 0)
(0.77471853 0.0034034558 0)
(0.76504478 0.0031661705 0)
(0.7558137 0.0029501586 0)
(0.74699616 0.0027528785 0)
(0.73856494 0.0025724593 0)
(0.73049406 0.0024073039 0)
(0.72275945 0.0022556618 0)
(0.7153386 0.0021163788 0)
(0.70821041 0.0019881285 0)
(0.70135579 0.001869696 0)
(0.69475699 0.001760328 0)
(0.68839752 0.0016590312 0)
(0.68226228 0.0015651193 0)
(0.67633722 0.00147792 0)
(0.67060954 0.0013967658 0)
(0.66506733 0.001321247 0)
(0.65969942 0.0012508028 0)
(0.65449557 0.0011850447 0)
(0.64944632 0.0011235634 0)
(0.64454304 0.001065997 0)
(0.6397777 0.0010120234 0)
(0.63514291 0.00096132622 0)
(0.63063172 0.00091371066 0)
(0.62623774 0.0008689195 0)
(0.62195501 0.00082676482 0)
(0.61777782 0.00078704541 0)
(0.61370094 0.00074960033 0)
(0.60971962 0.00071426691 0)
(0.6058294 0.00068089178 0)
(0.60202603 0.00064933967 0)
(0.59830556 0.00061948685 0)
(0.5946643 0.00059122612 0)
(0.59109879 0.00056445166 0)
(0.58760579 0.00053907453 0)
(0.58418219 0.00051500813 0)
(0.5808251 0.00049218038 0)
(0.57753178 0.00047051295 0)
(0.57429964 0.00044994045 0)
(0.57112622 0.0004303955 0)
(0.56800918 0.00041182435 0)
(0.56494626 0.00039416936 0)
(0.56193535 0.00037738675 0)
(0.55897436 0.00036142682 0)
(0.55606131 0.00034625015 0)
(0.55319423 0.00033182289 0)
(0.55037121 0.00031811085 0)
(0.54759028 0.00030508842 0)
(0.54484951 0.00029273523 0)
(0.5421467 0.00028103023 0)
(0.53947992 0.00026998855 0)
(0.53684595 0.00025956393 0)
(0.53424355 0.00024990505 0)
(0.53166535 0.00024080556 0)
(0.52911516 0.00023290729 0)
(0.52656823 0.00022534047 0)
(0.52405387 0.00022029698 0)
(0.52148092 0.00021565131 0)
(0.51896673 0.00021692777 0)
(0.51619452 0.00021491845 -2.0870317e-20)
(0.51379537 0.000221911 0)
(0.50958686 0.00021776665 -2.0370395e-21)
(0.9773178 0.0201955 0)
(0.98027931 0.02475409 0)
(0.98455341 0.027801088 0)
(0.98899677 0.029057037 0)
(0.99286869 0.029029044 0)
(0.99597502 0.028284285 0)
(0.99841301 0.027230253 0)
(1.0003643 0.02608189 0)
(1.0019671 0.024894385 0)
(1.0032855 0.023709738 0)
(1.0043722 0.022556596 0)
(1.0052694 0.021439334 0)
(1.0059962 0.02037468 0)
(1.0065649 0.01936794 0)
(1.0070098 0.018432129 0)
(1.0073172 0.017570249 0)
(1.0075023 0.016770286 0)
(1.0075847 0.016041328 0)
(1.0075353 0.015384607 0)
(1.0073635 0.01479281 0)
(1.0069835 0.014256547 0)
(1.0062828 0.013769979 0)
(1.0051332 0.013318656 0)
(1.0032492 0.012886551 0)
(1.0002636 0.012456038 0)
(0.99585417 0.012013164 0)
(0.98970672 0.011521762 0)
(0.98174529 0.010957881 0)
(0.9719554 0.010344043 0)
(0.9604775 0.0096941464 0)
(0.94764076 0.0090306016 0)
(0.93390507 0.0083714273 0)
(0.91974546 0.0077338652 0)
(0.90555783 0.0071327363 0)
(0.89161306 0.006577691 0)
(0.87806441 0.0060726685 0)
(0.86498812 0.0056145328 0)
(0.85241994 0.0051978775 0)
(0.84037188 0.0048184883 0)
(0.8288404 0.0044720928 0)
(0.81781217 0.0041556519 0)
(0.80726742 0.0038668353 0)
(0.79718347 0.0036026858 0)
(0.78753666 0.0033609466 0)
(0.77830247 0.0031396073 0)
(0.76945695 0.0029364648 0)
(0.76097689 0.0027499923 0)
(0.75283975 0.002578461 0)
(0.74502456 0.0024202825 0)
(0.73751143 0.0022743998 0)
(0.73028163 0.0021395057 0)
(0.72331783 0.0020146544 0)
(0.71660373 0.0018989271 0)
(0.71012445 0.0017914305 0)
(0.70386598 0.0016915744 0)
(0.69781527 0.0015986144 0)
(0.69196017 0.0015120063 0)
(0.68628937 0.0014311905 0)
(0.68079246 0.0013556724 0)
(0.67545976 0.001285012 0)
(0.67028237 0.0012187842 0)
(0.66525194 0.0011567029 0)
(0.66036068 0.0010984202 0)
(0.65560142 0.0010436752 0)
(0.65096737 0.00099219575 0)
(0.64645221 0.00094375179 0)
(0.64205007 0.00089811919 0)
(0.63775554 0.0008550936 0)
(0.63356349 0.00081449179 0)
(0.62946915 0.00077614517 0)
(0.62546801 0.00073990585 0)
(0.62155588 0.00070563017 0)
(0.61772883 0.00067319645 0)
(0.61398311 0.00064248728 0)
(0.61031522 0.00061340182 0)
(0.60672186 0.0005858354 0)
(0.6031999 0.00055969925 0)
(0.59974638 0.0005349037 0)
(0.59635848 0.00051137521 0)
(0.59303352 0.0004890372 0)
(0.58976894 0.00046782947 0)
(0.58656226 0.00044768629 0)
(0.58341115 0.00042855417 0)
(0.58031327 0.00041038675 0)
(0.57726637 0.00039313836 0)
(0.57426816 0.00037677322 0)
(0.57131642 0.00036126311 0)
(0.56840866 0.00034657821 0)
(0.56554265 0.00033273385 0)
(0.56271495 0.00031966998 0)
(0.55992398 0.0003075635 0)
(0.55716225 0.00029615953 0)
(0.55443304 0.00028623371 0)
(0.55171193 0.00027671673 0)
(0.54902676 0.00027028594 0)
(0.54628844 0.0002642322 0)
(0.54361023 0.00026557638 1.2131485e-21)
(0.5406799 0.00026190043 0)
(0.53812656 0.00027644029 8.7080653e-20)
(0.53367909 0.00025785681 0)
(0.9786571 0.019613525 0)
(0.98121179 0.023652613 0)
(0.98493418 0.02649429 0)
(0.98894021 0.027838125 0)
(0.99255935 0.028021852 0)
(0.99554781 0.027498054 0)
(0.99794084 0.026621535 0)
(0.99987259 0.02560158 0)
(1.0014579 0.02451347 0)
(1.0027604 0.023405513 0)
(1.003831 0.022312322 0)
(1.0047108 0.021245729 0)
(1.0054269 0.02022225 0)
(1.0060006 0.019250224 0)
(1.0064543 0.018342964 0)
(1.0068102 0.017503244 0)
(1.0070793 0.016724055 0)
(1.0072712 0.016014287 0)
(1.0073896 0.015373408 0)
(1.0074626 0.014793046 0)
(1.0074516 0.014267955 0)
(1.0073978 0.013797397 0)
(1.0072661 0.013374957 0)
(1.0070113 0.012991368 0)
(1.0065574 0.012637626 0)
(1.0057876 0.012306424 0)
(1.0045591 0.011987959 0)
(1.0025083 0.011670107 0)
(0.99930694 0.01133795 0)
(0.99461032 0.010966749 0)
(0.98820102 0.010527197 0)
(0.97999095 0.010023221 0)
(0.97003409 0.009469769 0)
(0.95858167 0.0088862368 0)
(0.94605404 0.0082940068 0)
(0.93292216 0.0077104819 0)
(0.91959932 0.0071520395 0)
(0.90637959 0.0066299137 0)
(0.8934376 0.0061497437 0)
(0.88086741 0.0057100962 0)
(0.86871937 0.0053070431 0)
(0.85701765 0.0049372602 0)
(0.84576906 0.0045973871 0)
(0.83496905 0.0042851722 0)
(0.82460553 0.0039985477 0)
(0.81466264 0.0037350687 0)
(0.80512226 0.0034929749 0)
(0.79596468 0.003270213 0)
(0.78717025 0.0030648577 0)
(0.77871923 0.0028755549 0)
(0.77059238 0.0027006656 0)
(0.76277138 0.0025389607 0)
(0.75523868 0.0023892439 0)
(0.74797789 0.002250365 0)
(0.74097349 0.0021215231 0)
(0.73421078 0.0020017602 0)
(0.72767605 0.0018903525 0)
(0.72135634 0.0017865653 0)
(0.71523965 0.0016897465 0)
(0.70931471 0.0015993137 0)
(0.70357112 0.00151471 0)
(0.69799913 0.0014355392 0)
(0.69258959 0.0013613441 0)
(0.68733405 0.0012917704 0)
(0.68222457 0.0012264592 0)
(0.67725371 0.0011651023 0)
(0.67241453 0.0011074017 0)
(0.66770058 0.001053087 0)
(0.66310581 0.0010019165 0)
(0.65862454 0.00095366762 0)
(0.65425144 0.0009081431 0)
(0.64998153 0.00086515314 0)
(0.64581012 0.00082453547 0)
(0.6417328 0.00078613494 0)
(0.63774542 0.00074981596 0)
(0.63384405 0.00071544198 0)
(0.630025 0.00068289559 0)
(0.62628476 0.00065206011 0)
(0.62262001 0.00062283787 0)
(0.61902759 0.0005951294 0)
(0.61550449 0.00056885447 0)
(0.61204782 0.00054392802 0)
(0.60865481 0.00052027944 0)
(0.60532276 0.00049784712 0)
(0.60204908 0.00047657136 0)
(0.59883111 0.00045640391 0)
(0.59566632 0.00043730663 0)
(0.59255191 0.00041923909 0)
(0.58948535 0.00040221514 0)
(0.58646294 0.0003861595 0)
(0.58348279 0.00037127619 0)
(0.58053725 0.00035726079 0)
(0.5776291 0.00034502269 0)
(0.57473423 0.00033329211 0)
(0.57187907 0.00032523582 0)
(0.56897661 0.00031755365 0)
(0.56613623 0.00031881159 0)
(0.56305027 0.00031318727 0)
(0.56034702 0.00033629258 0)
(0.55566609 0.00030108556 0)
(0.97996087 0.019084244 0)
(0.98218689 0.022670189 0)
(0.98542499 0.025298891 0)
(0.98901432 0.026680837 0)
(0.9923759 0.027031601 0)
(0.9952402 0.026703101 0)
(0.99758874 0.025996088 0)
(0.99950944 0.025105689 0)
(1.0010931 0.024119341 0)
(1.0023977 0.023091685 0)
(1.0034709 0.022061851 0)
(1.0043524 0.021047576 0)
(1.00507 0.020066479 0)
(1.005647 0.019129771 0)
(1.0061053 0.018249907 0)
(1.0064685 0.017431889 0)
(1.0067515 0.016671891 0)
(1.0069655 0.015976742 0)
(1.0071233 0.015345564 0)
(1.0072434 0.014774963 0)
(1.0073231 0.01426059 0)
(1.0073702 0.01379653 0)
(1.0073931 0.013378061 0)
(1.0073844 0.0129988 0)
(1.0073487 0.012654681 0)
(1.0072587 0.012342052 0)
(1.0070894 0.012054778 0)
(1.0067846 0.011785807 0)