/*--------------------------------*- C++ -*----------------------------------*\
| =========                 |                                                 |
| \\      /  F ield         | OpenFOAM: The Open Source CFD Toolbox           |
|  \\    /   O peration     | Version:  2206                                  |
|   \\  /    A nd           | Website:  www.openfoam.com                      |
|    \\/     M anipulation  |                                                 |
\*---------------------------------------------------------------------------*/
FoamFile
{
    version     2.0;
    format      ascii;
    arch        "LSB;label=32;scalar=64";
    class       volVectorField;
    location    "2000";
    object      wallShearStress;
}
// * * * * * * * * * * * * * * * * * * * * * * * * * * * * * * * * * * * * * //

dimensions      [0 2 -2 0 0 0 0];

internalField   uniform (0 0 0);

boundaryField
{
    inlet
    {
        type            calculated;
        value           uniform (0 0 0);
    }
    top
    {
        type            calculated;
        value           uniform (0 0 0);
    }
    outlet
    {
        type            calculated;
        value           uniform (0 0 0);
    }
    slipsurface
    {
        type            calculated;
        value           uniform (0 0 0);
    }
    bottom
    {
        type            calculated;
        value           nonuniform List<vector> 
100
(
(-0.032265971 -0.0010488566 -2.1837632e-17)
(-0.027920229 -0.0016376705 -0)
(-0.023539731 -0.0016895195 -9.9775731e-17)
(-0.019650242 -0.0012333871 2.8606649e-17)
(-0.016826506 -0.00065047972 0)
(-0.014891517 -0.00031089517 1.499051e-17)
(-0.013491589 -0.00017494273 0)
(-0.012406328 -0.00012862324 -1.5692914e-17)
(-0.011520144 -0.0001088708 0)
(-0.010775506 -9.3023131e-05 -8.4672695e-18)
(-0.010145257 -7.7553529e-05 0)
(-0.0096114336 -6.3731864e-05 5.5659001e-18)
(-0.0091584889 -5.2028207e-05 0)
(-0.0087734639 -4.2425365e-05 -5.978481e-18)
(-0.0084453129 -3.4726051e-05 0)
(-0.0081644501 -2.8492754e-05 -4.3050867e-18)
(-0.0079234335 -2.3410684e-05 0)
(-0.0077161012 -1.9235329e-05 0)
(-0.0075368411 -1.6849997e-05 -7.3671382e-19)
(-0.0073807846 -2.0647935e-05 3.811011e-19)
(-0.0072429736 -1.2759541e-05 -1.1321434e-18)
(-0.0071206316 -9.7987019e-06 0)
(-0.007010332 -8.5082197e-06 1.0716898e-18)
(-0.0069098089 -7.5226986e-06 0)
(-0.0068174322 -7.7308911e-06 -5.3104919e-19)
(-0.0067318933 -6.2436717e-06 0)
(-0.0066522871 -5.5049839e-06 -6.9315791e-19)
(-0.0065776763 -5.0232963e-06 0)
(-0.0065072576 -4.6357852e-06 -5.7684626e-19)
(-0.0064403474 -4.2996415e-06 -5.2935424e-19)
(-0.0063765562 -3.9931226e-06 0)
(-0.0063156104 -3.7169114e-06 4.5121412e-19)
(-0.006257208 -3.4703572e-06 -4.1830721e-19)
(-0.0062011061 -3.2484793e-06 0)
(-0.0061470528 -3.0489098e-06 0)
(-0.0060948784 -2.8732425e-06 3.382576e-19)
(-0.0060442737 -2.7154601e-06 0)
(-0.0059951484 -2.5689616e-06 2.9730069e-19)
(-0.0059473575 -2.4367168e-06 2.7955682e-19)
(-0.0059007596 -2.3151052e-06 -1.3168805e-19)
(-0.005855262 -2.202399e-06 -2.4853089e-19)
(-0.0058107684 -2.0986855e-06 -1.1741876e-19)
(-0.0057672037 -2.0006078e-06 -2.2223041e-19)
(-0.0057245198 -1.9083426e-06 0)
(-0.0056826559 -1.8219727e-06 -9.9824752e-20)
(-0.0056415702 -1.7401152e-06 -9.4772819e-20)
(-0.0056012079 -1.6641597e-06 0)
(-0.0055615089 -1.5926997e-06 1.7134818e-19)
(-0.0055224423 -1.5246256e-06 0)
(-0.0054839694 -1.460695e-06 -1.5547177e-19)
(-0.00544606 -1.3994091e-06 0)
(-0.005408696 -1.3410884e-06 0)
(-0.0053718501 -1.2855048e-06 0)
(-0.0053355104 -1.2321919e-06 -1.2904682e-19)
(-0.0052996526 -1.1817372e-06 0)
(-0.0052642593 -1.1332798e-06 0)
(-0.0052293164 -1.0871872e-06 0)
(-0.0051948025 -1.0433497e-06 0)
(-0.0051606982 -1.001558e-06 0)
(-0.0051269878 -9.6150418e-07 -4.9535128e-20)
(-0.0050936682 -9.2282277e-07 0)
(-0.0050607323 -8.8585264e-07 0)
(-0.0050281693 -8.5034196e-07 0)
(-0.0049959706 -8.1635138e-07 0)
(-0.0049641283 -7.8369788e-07 0)
(-0.0049326353 -7.5245035e-07 0)
(-0.0049014803 -7.2256762e-07 0)
(-0.0048706537 -6.9390853e-07 7.0927199e-20)
(-0.0048401505 -6.6638623e-07 -6.8099727e-20)
(-0.0048099645 -6.3995748e-07 -3.2698516e-20)
(-0.0047800903 -6.1462363e-07 -6.2812545e-20)
(-0.0047505204 -5.9030879e-07 0)
(-0.0047212497 -5.6695807e-07 0)
(-0.0046922751 -5.4452172e-07 0)
(-0.0046635899 -5.2303088e-07 0)
(-0.0046351877 -5.0241118e-07 0)
(-0.004607063 -4.8264363e-07 0)
(-0.0045792104 -4.6366333e-07 4.7582219e-20)
(-0.0045516248 -4.4547005e-07 0)
(-0.0045243004 -4.2800726e-07 0)
(-0.0044972322 -4.1127515e-07 0)
(-0.0044704136 -3.952252e-07 0)
(-0.0044438399 -3.7984374e-07 0)
(-0.0044175036 -3.6512213e-07 3.7751599e-20)
(-0.0043913982 -3.5102074e-07 -5.452729e-20)
(-0.0043655149 -3.3755697e-07 3.5013222e-20)
(-0.0043398453 -3.2468448e-07 -1.686955e-20)
(-0.004314376 -3.1245087e-07 -1.6261675e-20)
(-0.0042890988 -3.007905e-07 0)
(-0.0042639833 -2.8984782e-07 0)
(-0.0042390358 -2.7943032e-07 0)
(-0.0042141577 -2.7011104e-07 0)
(-0.0041894518 -2.6094248e-07 0)
(-0.0041645294 -2.5451962e-07 0)
(-0.0041399624 -2.4603362e-07 0)
(-0.0041142202 -2.4798771e-07 0)
(-0.004089508 -2.3582474e-07 1.6545622e-22)
(-0.0040606889 -4.278822e-07 -2.7433948e-21)
(-0.0040382646 -5.7303987e-08 1.2072493e-20)
(-0.0039943338 -7.1586304e-07 4.1877401e-20)
)
;
    }
    frontandback
    {
        type            empty;
    }
}


// ************************************************************************* //
