# y+ ()         
# Time          	patch           	min             	max             	average         
2000            	bottom	1.26852104e+00	4.74581380e+00	1.63366597e+00
