0 	1.4471753e-05 	1.7503425e-07 	82.573435 	0.01511284 	0.99685073 	0 	0
0.0021021021 	1.4311976e-05 	1.7489301e-07 	81.728143 	0.015213182 	0.99674559 	2.5569276e-37 	0
0.0042042042 	1.4152198e-05 	1.7475178e-07 	80.882852 	0.015313523 	0.99664045 	2.8387599e-53 	0
0.0063063063 	1.3992421e-05 	1.7461054e-07 	80.037561 	0.015413865 	0.99653531 	3.1516566e-69 	0
0.0084084084 	1.3832643e-05 	1.744693e-07 	79.192269 	0.015514207 	0.99643017 	0 	0
0.010510511 	1.3672866e-05 	1.7432806e-07 	78.346978 	0.015614548 	0.99632503 	0 	0
0.012612613 	1.3513088e-05 	1.7418682e-07 	77.501687 	0.01571489 	0.99621989 	0 	0
0.014714715 	1.3353311e-05 	1.7404558e-07 	76.656396 	0.015815232 	0.99611475 	0 	0
0.016816817 	1.3193533e-05 	1.7390434e-07 	75.811104 	0.015915573 	0.99600962 	0 	0
0.018918919 	1.3033756e-05 	1.737631e-07 	74.965813 	0.016015915 	0.99590448 	0 	0
0.021021021 	1.2873978e-05 	1.7362186e-07 	74.120522 	0.016116257 	0.99579934 	0 	0
0.023123123 	1.2748609e-05 	1.7348933e-07 	73.450761 	0.016301267 	0.99560963 	0 	0
0.025225225 	1.2624365e-05 	1.7335709e-07 	72.786739 	0.016489047 	0.99541716 	0 	0
0.027327327 	1.2500121e-05 	1.7322484e-07 	72.122718 	0.016676826 	0.99522469 	0 	0
0.029429429 	1.2375877e-05 	1.730926e-07 	71.458697 	0.016864605 	0.99503222 	0 	0
0.031531532 	1.2251633e-05 	1.7296035e-07 	70.794675 	0.017052385 	0.99483975 	0 	0
0.033633634 	1.2127389e-05 	1.7282811e-07 	70.130654 	0.017240164 	0.99464728 	0 	0
0.035735736 	1.2003145e-05 	1.7269586e-07 	69.466632 	0.017427944 	0.9944548 	0 	0
0.037837838 	1.1878902e-05 	1.7256362e-07 	68.802611 	0.017615723 	0.99426233 	0 	0
0.03993994 	1.1754658e-05 	1.7243137e-07 	68.13859 	0.017803502 	0.99406986 	0 	0
0.042042042 	1.1630414e-05 	1.7229913e-07 	67.474568 	0.017991282 	0.99387739 	0 	0
0.044144144 	1.150617e-05 	1.7216688e-07 	66.810547 	0.018179061 	0.99368492 	0 	0
0.046246246 	1.1381926e-05 	1.7203463e-07 	66.146525 	0.01836684 	0.99349245 	0 	0
0.048348348 	1.1270547e-05 	1.7190666e-07 	65.548573 	0.018661532 	0.99317409 	0 	0
0.05045045 	1.1165484e-05 	1.7178079e-07 	64.98306 	0.019008714 	0.99279393 	0 	0
0.052552553 	1.1060421e-05 	1.7165492e-07 	64.417546 	0.019355897 	0.99241377 	0 	0
0.054654655 	1.0955358e-05 	1.7152905e-07 	63.852033 	0.019703079 	0.99203361 	0 	0
0.056756757 	1.0850295e-05 	1.7140317e-07 	63.286519 	0.020050262 	0.99165345 	0 	0
0.058858859 	1.0745232e-05 	1.712773e-07 	62.721005 	0.020397445 	0.99127328 	0 	0
0.060960961 	1.0640169e-05 	1.7115143e-07 	62.155492 	0.020744627 	0.99089312 	0 	0
0.063063063 	1.0535107e-05 	1.7102556e-07 	61.589978 	0.02109181 	0.99051296 	0 	0
0.065165165 	1.0430044e-05 	1.7089968e-07 	61.024465 	0.021438993 	0.9901328 	0 	0
0.067267267 	1.0334869e-05 	1.707789e-07 	60.509682 	0.022067467 	0.98951021 	0 	0
0.069369369 	1.0241372e-05 	1.7065898e-07 	60.003511 	0.022743691 	0.98884647 	0 	0
0.071471471 	1.0147875e-05 	1.7053907e-07 	59.49734 	0.023419916 	0.98818274 	0 	0
0.073573574 	1.0054379e-05 	1.7041915e-07 	58.991169 	0.02409614 	0.987519 	0 	0
0.075675676 	9.9608819e-06 	1.7029923e-07 	58.484998 	0.024772364 	0.98685526 	0 	0
0.077777778 	9.8673853e-06 	1.7017931e-07 	57.978828 	0.025448589 	0.98619152 	0 	0
0.07987988 	9.7836438e-06 	1.7012875e-07 	57.505521 	0.02649191 	0.98493683 	0 	0
0.081981982 	9.7083787e-06 	1.7013845e-07 	57.060771 	0.027854202 	0.98316867 	0 	0
0.084084084 	9.6331136e-06 	1.7014816e-07 	56.616021 	0.029216495 	0.98140051 	0 	0
0.086186186 	9.5578485e-06 	1.7015786e-07 	56.17127 	0.030578788 	0.97963234 	0 	0
0.088288288 	9.5121598e-06 	1.7049484e-07 	55.745518 	0.03195051 	0.97785902 	0 	0
0.09039039 	1.5888151e-05 	2.4189152e-07 	59.444649 	0.035369535 	0.97496521 	0 	0
0.092492492 	2.2264142e-05 	3.1328819e-07 	63.143779 	0.03878856 	0.97207141 	0 	0
0.094594595 	2.8640133e-05 	3.8468487e-07 	66.84291 	0.042207585 	0.9691776 	0 	0
0.096696697 	0.0018888588 	4.2012859e-07 	1289.0043 	0.046144687 	0.81049195 	0 	0
0.098798799 	0.0043447881 	4.4401926e-07 	2902.7042 	0.050248266 	0.60174441 	0 	0
0.1009009 	0.0077697084 	3.9734505e-07 	4904.7448 	0.051432757 	0.34371129 	0 	0
0.103003 	0.012486617 	2.5658433e-07 	7424.5731 	0.048725128 	0.019964043 	0 	0
0.10510511 	0.0128526 	2.0739427e-07 	7580.5724 	0.040501932 	0 	0 	0
0.10720721 	0.012080974 	1.6640715e-07 	7574.2722 	0.032076025 	0 	0 	0
0.10930931 	0.010044084 	1.2866623e-07 	7557.6417 	0.023887461 	0 	0 	0
0.11141141 	0.0078813239 	9.9775063e-08 	7539.9397 	0.016781149 	0 	0 	0
0.11351351 	0.0058293776 	7.5021719e-08 	7523.1291 	0.010306281 	0 	0 	0
0.11561562 	0.0043790599 	5.9745097e-08 	7511.2148 	0.0055347264 	0 	0 	0
0.11771772 	0.0032819436 	4.8222096e-08 	7502.1953 	0.0021977443 	0 	0 	0
0.11981982 	0.0025306651 	4.0374463e-08 	7496.0101 	0.00026542759 	0 	0 	0
0.12192192 	0.002088049 	3.5536537e-08 	7492.3634 	-0.00022717272 	0 	0 	0
0.12402402 	0.0017367961 	3.1589474e-08 	7489.4681 	-0.00029362159 	0 	0 	0
0.12612613 	0.0015606324 	2.9377035e-08 	7488.0152 	0.00039251399 	0 	0 	0
0.12822823 	0.0013978189 	2.7306412e-08 	7486.6723 	0.0010879078 	0 	0 	0
0.13033033 	0.0012987641 	2.5924771e-08 	7485.8551 	0.0017686196 	0 	0 	0
0.13243243 	0.0012075045 	2.4633119e-08 	7485.1022 	0.0023770583 	0 	0 	0
0.13453453 	0.0011403377 	2.3619593e-08 	7484.5479 	0.0027621237 	0 	0 	0
0.13663664 	0.0010773178 	2.2654366e-08 	7484.0279 	0.0030848639 	0 	0 	0
0.13873874 	0.0010245634 	2.1808702e-08 	7483.5925 	0.0032533187 	0 	0 	0
0.14084084 	0.00097412183 	2.0992299e-08 	7483.1762 	0.0033953624 	0 	0 	0
0.14294294 	0.0009299055 	2.0254657e-08 	7482.8113 	0.0034663178 	0 	0 	0
0.14504505 	0.00088702644 	1.953604e-08 	7482.4574 	0.0035290606 	0 	0 	0
0.14714715 	0.00084977228 	1.8897453e-08 	7482.1498 	0.0035572592 	0 	0 	0
0.14924925 	0.00081281206 	1.8263277e-08 	7481.8447 	0.0035844172 	0 	0 	0
0.15135135 	0.00078150796 	1.7713978e-08 	7481.5863 	0.003591551 	0 	0 	0
0.15345345 	0.00075020386 	1.7164678e-08 	7481.3279 	0.0035986848 	0 	0 	0
0.15555556 	0.00072303145 	1.6679183e-08 	7481.1035 	0.003601089 	0 	0 	0
0.15765766 	0.00069664075 	1.620576e-08 	7480.8857 	0.0036025984 	0 	0 	0
0.15975976 	0.00067254132 	1.576882e-08 	7480.6867 	0.003604849 	0 	0 	0
0.16186186 	0.00065020919 	1.5360021e-08 	7480.5023 	0.0036076713 	0 	0 	0
0.16396396 	0.00062860948 	1.496321e-08 	7480.324 	0.0036100237 	0 	0 	0
0.16606607 	0.00060963299 	1.4609341e-08 	7480.1673 	0.0036106931 	0 	0 	0
0.16816817 	0.00059065649 	1.4255471e-08 	7480.0107 	0.0036113625 	0 	0 	0
0.17027027 	0.00057384623 	1.393765e-08 	7479.8718 	0.0036080952 	0 	0 	0
0.17237237 	0.00055757788 	1.3628848e-08 	7479.7375 	0.0036038432 	0 	0 	0
0.17447447 	0.00054197925 	1.3331365e-08 	7479.6087 	0.0035989156 	0 	0 	0
0.17657658 	0.00052789081 	1.3059406e-08 	7479.4924 	0.003592465 	0 	0 	0
0.17867868 	0.00051380238 	1.2787447e-08 	7479.376 	0.0035860143 	0 	0 	0
0.18078078 	0.00050106342 	1.2538809e-08 	7479.2708 	0.0035791458 	0 	0 	0
0.18288288 	0.0004888036 	1.2298453e-08 	7479.1696 	0.003572129 	0 	0 	0
0.18498498 	0.00047668319 	1.206055e-08 	7479.0695 	0.0035649772 	0 	0 	0
0.18708709 	0.00046597589 	1.1847524e-08 	7478.9811 	0.003556458 	0 	0 	0
0.18918919 	0.0004552686 	1.1634498e-08 	7478.8927 	0.0035479388 	0 	0 	0
0.19129129 	0.00044502874 	1.1429798e-08 	7478.8081 	0.0035388285 	0 	0 	0
0.19339339 	0.00043561898 	1.1239886e-08 	7478.7304 	0.0035286685 	0 	0 	0
0.1954955 	0.00042620922 	1.1049974e-08 	7478.6527 	0.0035185084 	0 	0 	0
0.1975976 	0.00041740014 	1.0870916e-08 	7478.58 	0.0035080934 	0 	0 	0
0.1996997 	0.00040908883 	1.0700853e-08 	7478.5113 	0.0034974671 	0 	0 	0
0.2018018 	0.00040077751 	1.053079e-08 	7478.4427 	0.0034868409 	0 	0 	0
0.2039039 	0.00039308281 	1.0372078e-08 	7478.3791 	0.003476163 	0 	0 	0
0.20600601 	0.00038572451 	1.021956e-08 	7478.3184 	0.003465457 	0 	0 	0
0.20810811 	0.0003783662 	1.0067042e-08 	7478.2576 	0.003454751 	0 	0 	0
0.21021021 	0.00037155068 	9.9246734e-09 	7478.2013 	0.0034436105 	0 	0 	0
0.21231231 	0.00036501715 	9.7875783e-09 	7478.1473 	0.0034322442 	0 	0 	0
0.21441441 	0.00035848362 	9.6504833e-09 	7478.0934 	0.0034208779 	0 	0 	0
0.21651652 	0.00035235837 	9.5211065e-09 	7478.0428 	0.0034090691 	0 	0 	0
0.21861862 	0.00034653201 	9.39738e-09 	7477.9946 	0.0033969363 	0 	0 	0
0.22072072 	0.00034070565 	9.2736536e-09 	7477.9465 	0.0033848036 	0 	0 	0
0.22282282 	0.00033512641 	9.1546563e-09 	7477.9005 	0.0033725669 	0 	0 	0
0.22492492 	0.00032991487 	9.0426956e-09 	7477.8574 	0.0033601757 	0 	0 	0
0.22702703 	0.00032470333 	8.9307349e-09 	7477.8144 	0.0033477845 	0 	0 	0
0.22912913 	0.00031956215 	8.8201394e-09 	7477.7719 	0.003335376 	0 	0 	0
0.23123123 	0.0003148961 	8.7187626e-09 	7477.7334 	0.0033228506 	0 	0 	0
0.23333333 	0.00031023005 	8.6173858e-09 	7477.6949 	0.0033103252 	0 	0 	0
0.23543544 	0.000305564 	8.516009e-09 	7477.6563 	0.0032977998 	0 	0 	0
0.23753754 	0.00030126273 	8.4217905e-09 	7477.6208 	0.0032850038 	0 	0 	0
0.23963964 	0.00029707953 	8.3298888e-09 	7477.5862 	0.0032721201 	0 	0 	0
0.24174174 	0.00029289632 	8.2379872e-09 	7477.5517 	0.0032592365 	0 	0 	0
0.24384384 	0.00028883129 	8.1484267e-09 	7477.5181 	0.003246274 	0 	0 	0
0.24594595 	0.00028507265 	8.0649367e-09 	7477.4871 	0.0032331071 	0 	0 	0
0.24804805 	0.00028131401 	7.9814466e-09 	7477.456 	0.0032199402 	0 	0 	0
0.25015015 	0.00027755538 	7.8979566e-09 	7477.4249 	0.0032067733 	0 	0 	0
0.25225225 	0.00027405912 	7.8197239e-09 	7477.3961 	0.0031936055 	0 	0 	0
0.25435435 	0.00027067835 	7.7438054e-09 	7477.3681 	0.0031804373 	0 	0 	0
0.25645646 	0.00026729758 	7.6678869e-09 	7477.3402 	0.003167269 	0 	0 	0
0.25855856 	0.00026391691 	7.5919703e-09 	7477.3123 	0.0031541008 	0 	0 	0
0.26066066 	0.00026087675 	7.5229609e-09 	7477.2872 	0.0031409619 	0 	0 	0
0.26276276 	0.00025783659 	7.4539515e-09 	7477.2621 	0.003127823 	0 	0 	0
0.26486486 	0.00025479642 	7.3849422e-09 	7477.237 	0.0031146841 	0 	0 	0
0.26696697 	0.00025181521 	7.3171414e-09 	7477.2123 	0.0031015328 	0 	0 	0
0.26906907 	0.00024908097 	7.2544043e-09 	7477.1898 	0.0030883298 	0 	0 	0
0.27117117 	0.00024634673 	7.1916672e-09 	7477.1672 	0.0030751267 	0 	0 	0
0.27327327 	0.00024361248 	7.12893e-09 	7477.1446 	0.0030619237 	0 	0 	0
0.27537538 	0.00024095172 	7.0677145e-09 	7477.1226 	0.0030487298 	0 	0 	0
0.27747748 	0.00023849151 	7.0106521e-09 	7477.1023 	0.0030355607 	0 	0 	0
0.27957958 	0.0002360313 	6.9535896e-09 	7477.082 	0.0030223916 	0 	0 	0
0.28168168 	0.00023357109 	6.8965272e-09 	7477.0616 	0.0030092225 	0 	0 	0
0.28378378 	0.00023116618 	6.8406229e-09 	7477.0418 	0.0029961021 	0 	0 	0
0.28588589 	0.00022895395 	6.7887536e-09 	7477.0235 	0.0029831515 	0 	0 	0
0.28798799 	0.00022674172 	6.7368843e-09 	7477.0052 	0.0029702008 	0 	0 	0
0.29009009 	0.00022452948 	6.685015e-09 	7476.9869 	0.0029572501 	0 	0 	0
0.29219219 	0.00022232938 	6.6334027e-09 	7476.9688 	0.0029443151 	0 	0 	0
0.29429429 	0.00022034342 	6.586327e-09 	7476.9524 	0.0029316557 	0 	0 	0
0.2963964 	0.00021835745 	6.5392512e-09 	7476.936 	0.0029189962 	0 	0 	0
0.2984985 	0.00021637148 	6.4921755e-09 	7476.9196 	0.0029063368 	0 	0 	0
0.3006006 	0.00021438551 	6.4450997e-09 	7476.9032 	0.0028936774 	0 	0 	0
0.3027027 	0.00021255559 	6.401365e-09 	7476.888 	0.0028812939 	0 	0 	0
0.3048048 	0.00021077599 	6.3587079e-09 	7476.8733 	0.0028689993 	0 	0 	0
0.30690691 	0.00020899639 	6.3160508e-09 	7476.8586 	0.0028567048 	0 	0 	0
0.30900901 	0.0002072168 	6.2733938e-09 	7476.8439 	0.0028444103 	0 	0 	0
0.31111111 	0.00020549896 	6.2320728e-09 	7476.8298 	0.0028322995 	0 	0 	0
0.31321321 	0.00020390847 	6.1935067e-09 	7476.8166 	0.0028205678 	0 	0 	0
0.31531532 	0.00020231798 	6.1549407e-09 	7476.8035 	0.0028088361 	0 	0 	0
0.31741742 	0.00020072749 	6.1163746e-09 	7476.7903 	0.0027971044 	0 	0 	0
0.31951952 	0.000199137 	6.0778085e-09 	7476.7772 	0.0027853726 	0 	0 	0
0.32162162 	0.00019768005 	6.0421625e-09 	7476.7652 	0.0027742342 	0 	0 	0
0.32372372 	0.00019626503 	6.0074337e-09 	7476.7535 	0.0027632821 	0 	0 	0
0.32582583 	0.00019485001 	5.9727049e-09 	7476.7418 	0.00275233 	0 	0 	0
0.32792793 	0.000193435 	5.937976e-09 	7476.7301 	0.0027413778 	0 	0 	0
0.33003003 	0.00019202902 	5.903447e-09 	7476.7185 	0.0027304773 	0 	0 	0
0.33213213 	0.00019077808 	5.8723428e-09 	7476.7082 	0.00272046 	0 	0 	0
0.33423423 	0.00018952714 	5.8412386e-09 	7476.6978 	0.0027104428 	0 	0 	0
0.33633634 	0.00018827619 	5.8101344e-09 	7476.6875 	0.0027004256 	0 	0 	0
0.33843844 	0.00018702525 	5.7790303e-09 	7476.6772 	0.0026904083 	0 	0 	0
0.34054054 	0.00018580571 	5.7486257e-09 	7476.6671 	0.0026806222 	0 	0 	0
0.34264264 	0.00018470818 	5.7209398e-09 	7476.658 	0.0026717343 	0 	0 	0
0.34474474 	0.00018361066 	5.693254e-09 	7476.649 	0.0026628464 	0 	0 	0
0.34684685 	0.00018251314 	5.6655681e-09 	7476.6399 	0.0026539584 	0 	0 	0
0.34894895 	0.00018141562 	5.6378823e-09 	7476.6308 	0.0026450705 	0 	0 	0
0.35105105 	0.00018034772 	5.6108616e-09 	7476.622 	0.0026364835 	0 	0 	0
0.35315315 	0.00017939457 	5.5864176e-09 	7476.6141 	0.002629062 	0 	0 	0
0.35525526 	0.00017844142 	5.5619736e-09 	7476.6062 	0.0026216405 	0 	0 	0
0.35735736 	0.00017748828 	5.5375297e-09 	7476.5983 	0.002614219 	0 	0 	0
0.35945946 	0.00017653513 	5.5130857e-09 	7476.5905 	0.0026067975 	0 	0 	0
0.36156156 	0.00017558911 	5.4888027e-09 	7476.5826 	0.0025994724 	0 	0 	0
0.36366366 	0.00017477266 	5.4674485e-09 	7476.5759 	0.0025938992 	0 	0 	0
0.36576577 	0.00017395622 	5.4460943e-09 	7476.5692 	0.0025883261 	0 	0 	0
0.36786787 	0.00017313977 	5.42474e-09 	7476.5624 	0.002582753 	0 	0 	0
0.36996997 	0.00017232332 	5.4033858e-09 	7476.5557 	0.0025771798 	0 	0 	0
0.37207207 	0.00017150688 	5.3820316e-09 	7476.5489 	0.0025716067 	0 	0 	0
0.37417417 	0.0001707866 	5.3628642e-09 	7476.543 	0.0025677821 	0 	0 	0
0.37627628 	0.00017009998 	5.3444622e-09 	7476.5373 	0.0025645696 	0 	0 	0
0.37837838 	0.00016941335 	5.3260601e-09 	7476.5317 	0.002561357 	0 	0 	0
0.38048048 	0.00016872673 	5.3076581e-09 	7476.526 	0.0025581445 	0 	0 	0
0.38258258 	0.00016804011 	5.2892561e-09 	7476.5203 	0.0025549319 	0 	0 	0
0.38468468 	0.00016738855 	5.2716563e-09 	7476.5149 	0.0025524986 	0 	0 	0
0.38678679 	0.00016683365 	5.2562681e-09 	7476.5103 	0.0025522136 	0 	0 	0
0.38888889 	0.00016627875 	5.2408799e-09 	7476.5058 	0.0025519285 	0 	0 	0
0.39099099 	0.00016572385 	5.2254918e-09 	7476.5012 	0.0025516434 	0 	0 	0
0.39309309 	0.00016516895 	5.2101036e-09 	7476.4966 	0.0025513583 	0 	0 	0
0.3951952 	0.00016461404 	5.1947154e-09 	7476.492 	0.0025510732 	0 	0 	0
0.3972973 	0.00016413709 	5.181119e-09 	7476.4881 	0.0025529819 	0 	0 	0
0.3993994 	0.00016370722 	5.1686049e-09 	7476.4845 	0.0025562157 	0 	0 	0
0.4015015 	0.00016327735 	5.1560908e-09 	7476.481 	0.0025594495 	0 	0 	0
0.4036036 	0.00016284748 	5.1435767e-09 	7476.4774 	0.0025626833 	0 	0 	0
0.40570571 	0.00016241761 	5.1310626e-09 	7476.4739 	0.002565917 	0 	0 	0
0.40780781 	0.00016198774 	5.1185485e-09 	7476.4703 	0.0025691508 	0 	0 	0
0.40990991 	0.00016165578 	5.1083102e-09 	7476.4676 	0.0025753531 	0 	0 	0
0.41201201 	0.00016134719 	5.0986149e-09 	7476.465 	0.0025822639 	0 	0 	0
0.41411411 	0.0001610386 	5.0889197e-09 	7476.4625 	0.0025891747 	0 	0 	0
0.41621622 	0.00016073001 	5.0792245e-09 	7476.4599 	0.0025960855 	0 	0 	0
0.41831832 	0.00016042142 	5.0695293e-09 	7476.4574 	0.0026029963 	0 	0 	0
0.42042042 	0.00016011284 	5.0598341e-09 	7476.4548 	0.0026099071 	0 	0 	0
0.42252252 	0.00015990483 	5.0524984e-09 	7476.4531 	0.0026194628 	0 	0 	0
0.42462462 	0.00015972003 	5.0457071e-09 	7476.4516 	0.0026296287 	0 	0 	0
0.42672673 	0.00015953523 	5.0389158e-09 	7476.4501 	0.0026397946 	0 	0 	0
0.42882883 	0.00015935043 	5.0321245e-09 	7476.4486 	0.0026499605 	0 	0 	0
0.43093093 	0.00015916563 	5.0253331e-09 	7476.447 	0.0026601264 	0 	0 	0
0.43303303 	0.00015898083 	5.0185418e-09 	7476.4455 	0.0026702923 	0 	0 	0
0.43513514 	0.00015886818 	5.0134495e-09 	7476.4446 	0.002682359 	0 	0 	0
0.43723724 	0.00015879728 	5.0093398e-09 	7476.444 	0.002695525 	0 	0 	0
0.43933934 	0.00015872638 	5.0052302e-09 	7476.4434 	0.002708691 	0 	0 	0
0.44144144 	0.00015865547 	5.0011205e-09 	7476.4428 	0.002721857 	0 	0 	0
0.44354354 	0.00015858457 	4.9970109e-09 	7476.4422 	0.002735023 	0 	0 	0
0.44564565 	0.00015851367 	4.9929012e-09 	7476.4416 	0.002748189 	0 	0 	0
0.44774775 	0.00015847022 	4.9894406e-09 	7476.4413 	0.0027620825 	0 	0 	0
0.44984985 	0.00015850301 	4.9877827e-09 	7476.4415 	0.0027779962 	0 	0 	0
0.45195195 	0.0001585358 	4.9861247e-09 	7476.4418 	0.00279391 	0 	0 	0
0.45405405 	0.0001585686 	4.9844667e-09 	7476.4421 	0.0028098237 	0 	0 	0
0.45615616 	0.00015860139 	4.9828088e-09 	7476.4423 	0.0028257375 	0 	0 	0
0.45825826 	0.00015863418 	4.9811508e-09 	7476.4426 	0.0028416512 	0 	0 	0
0.46036036 	0.00015866698 	4.9794928e-09 	7476.4429 	0.002857565 	0 	0 	0
0.46246246 	0.00015876541 	4.979389e-09 	7476.4437 	0.0028750432 	0 	0 	0
0.46456456 	0.00015889194 	4.9799503e-09 	7476.4447 	0.0028931909 	0 	0 	0
0.46666667 	0.00015901847 	4.9805117e-09 	7476.4458 	0.0029113387 	0 	0 	0
0.46876877 	0.000159145 	4.981073e-09 	7476.4468 	0.0029294864 	0 	0 	0
0.47087087 	0.00015927153 	4.9816343e-09 	7476.4479 	0.0029476342 	0 	0 	0
0.47297297 	0.00015939806 	4.9821957e-09 	7476.4489 	0.002965782 	0 	0 	0
0.47507508 	0.00015952459 	4.982757e-09 	7476.45 	0.0029839297 	0 	0 	0
0.47717718 	0.00015972738 	4.9851398e-09 	7476.4517 	0.0030035366 	0 	0 	0
0.47927928 	0.00015993554 	4.9876509e-09 	7476.4534 	0.0030232463 	0 	0 	0
0.48138138 	0.0001601437 	4.9901621e-09 	7476.4551 	0.0030429561 	0 	0 	0
0.48348348 	0.00016035186 	4.9926732e-09 	7476.4568 	0.0030626658 	0 	0 	0
0.48558559 	0.00016056003 	4.9951844e-09 	7476.4585 	0.0030823755 	0 	0 	0
0.48768769 	0.00016076819 	4.9976956e-09 	7476.4603 	0.0031020853 	0 	0 	0
0.48978979 	0.00016097635 	5.0002067e-09 	7476.462 	0.003121795 	0 	0 	0
0.49189189 	0.00016124649 	5.0042337e-09 	7476.4642 	0.003142181 	0 	0 	0
0.49399399 	0.00016151921 	5.0083237e-09 	7476.4665 	0.003162595 	0 	0 	0
0.4960961 	0.00016179192 	5.0124136e-09 	7476.4687 	0.003183009 	0 	0 	0
0.4981982 	0.00016206464 	5.0165036e-09 	7476.471 	0.003203423 	0 	0 	0
0.5003003 	0.00016233735 	5.0205935e-09 	7476.4732 	0.0032238371 	0 	0 	0
0.5024024 	0.00016261007 	5.0246835e-09 	7476.4755 	0.0032442511 	0 	0 	0
0.5045045 	0.00016288278 	5.0287734e-09 	7476.4777 	0.0032646651 	0 	0 	0
0.50660661 	0.00016319061 	5.0337541e-09 	7476.4803 	0.0032851351 	0 	0 	0
0.50870871 	0.00016350882 	5.0389981e-09 	7476.4829 	0.0033056217 	0 	0 	0
0.51081081 	0.00016382703 	5.0442421e-09 	7476.4855 	0.0033261083 	0 	0 	0
0.51291291 	0.00016414524 	5.0494861e-09 	7476.4882 	0.0033465948 	0 	0 	0
0.51501502 	0.00016446346 	5.0547301e-09 	7476.4908 	0.0033670814 	0 	0 	0
0.51711712 	0.00016478167 	5.0599741e-09 	7476.4934 	0.0033875679 	0 	0 	0
0.51921922 	0.00016509988 	5.0652181e-09 	7476.4961 	0.0034080545 	0 	0 	0
0.52132132 	0.0001654291 	5.0707669e-09 	7476.4988 	0.003428355 	0 	0 	0
0.52342342 	0.00016577767 	5.0768512e-09 	7476.5017 	0.0034483286 	0 	0 	0
0.52552553 	0.00016612624 	5.0829355e-09 	7476.5046 	0.0034683022 	0 	0 	0
0.52762763 	0.00016647481 	5.0890198e-09 	7476.5074 	0.0034882759 	0 	0 	0
0.52972973 	0.00016682337 	5.0951041e-09 	7476.5103 	0.0035082495 	0 	0 	0
0.53183183 	0.00016717194 	5.1011884e-09 	7476.5132 	0.0035282231 	0 	0 	0
0.53393393 	0.00016752051 	5.1072728e-09 	7476.5161 	0.0035481967 	0 	0 	0
0.53603604 	0.00016786908 	5.1133571e-09 	7476.519 	0.0035681704 	0 	0 	0
0.53813814 	0.00016822695 	5.1198004e-09 	7476.5219 	0.003586652 	0 	0 	0
0.54024024 	0.00016858834 	5.1263792e-09 	7476.5249 	0.0036045705 	0 	0 	0
0.54234234 	0.00016894973 	5.132958e-09 	7476.5279 	0.0036224891 	0 	0 	0
0.54444444 	0.00016931111 	5.1395368e-09 	7476.5309 	0.0036404076 	0 	0 	0
0.54654655 	0.0001696725 	5.1461157e-09 	7476.5339 	0.0036583261 	0 	0 	0
0.54864865 	0.00017003388 	5.1526945e-09 	7476.5368 	0.0036762447 	0 	0 	0
0.55075075 	0.00017039527 	5.1592733e-09 	7476.5398 	0.0036941632 	0 	0 	0
0.55285285 	0.00017075666 	5.1658521e-09 	7476.5428 	0.0037120817 	0 	0 	0
0.55495495 	0.00017110617 	5.1723639e-09 	7476.5457 	0.0037267075 	0 	0 	0
0.55705706 	0.00017145366 	5.1788643e-09 	7476.5486 	0.0037407732 	0 	0 	0
0.55915916 	0.00017180115 	5.1853646e-09 	7476.5514 	0.0037548389 	0 	0 	0
0.56126126 	0.00017214864 	5.191865e-09 	7476.5543 	0.0037689045 	0 	0 	0
0.56336336 	0.00017249613 	5.1983654e-09 	7476.5572 	0.0037829702 	0 	0 	0
0.56546547 	0.00017284363 	5.2048658e-09 	7476.5601 	0.0037970359 	0 	0 	0
0.56756757 	0.00017319112 	5.2113661e-09 	7476.5629 	0.0038111016 	0 	0 	0
0.56966967 	0.00017353861 	5.2178665e-09 	7476.5658 	0.0038251673 	0 	0 	0
0.57177177 	0.00017385455 	5.2238217e-09 	7476.5684 	0.0038356073 	0 	0 	0
0.57387387 	0.00017415949 	5.2295867e-09 	7476.5709 	0.0038447831 	0 	0 	0
0.57597598 	0.00017446442 	5.2353518e-09 	7476.5735 	0.0038539588 	0 	0 	0
0.57807808 	0.00017476936 	5.2411168e-09 	7476.576 	0.0038631345 	0 	0 	0
0.58018018 	0.0001750743 	5.2468819e-09 	7476.5785 	0.0038723103 	0 	0 	0
0.58228228 	0.00017537923 	5.2526469e-09 	7476.581 	0.003881486 	0 	0 	0
0.58438438 	0.00017568417 	5.2584119e-09 	7476.5835 	0.0038906618 	0 	0 	0
0.58648649 	0.00017598911 	5.264177e-09 	7476.586 	0.0038998375 	0 	0 	0
0.58858859 	0.00017626944 	5.2694613e-09 	7476.5883 	0.003907161 	0 	0 	0
0.59069069 	0.00017650946 	5.2739581e-09 	7476.5903 	0.0039114495 	0 	0 	0
0.59279279 	0.00017674948 	5.2784548e-09 	7476.5923 	0.0039157381 	0 	0 	0
0.59489489 	0.0001769895 	5.2829515e-09 	7476.5943 	0.0039200266 	0 	0 	0
0.596997 	0.00017722952 	5.2874482e-09 	7476.5963 	0.0039243152 	0 	0 	0
0.5990991 	0.00017746954 	5.2919449e-09 	7476.5982 	0.0039286037 	0 	0 	0
0.6012012 	0.00017770956 	5.2964417e-09 	7476.6002 	0.0039328923 	0 	0 	0
0.6033033 	0.00017794959 	5.3009384e-09 	7476.6022 	0.0039371808 	0 	0 	0
0.60540541 	0.00017818961 	5.3054351e-09 	7476.6042 	0.0039414694 	0 	0 	0
0.60750751 	0.0001783747 	5.3088083e-09 	7476.6057 	0.003942485 	0 	0 	0
0.60960961 	0.00017854242 	5.3118259e-09 	7476.6071 	0.0039424652 	0 	0 	0
0.61171171 	0.00017871014 	5.3148436e-09 	7476.6085 	0.0039424453 	0 	0 	0
0.61381381 	0.00017887786 	5.3178612e-09 	7476.6099 	0.0039424254 	0 	0 	0
0.61591592 	0.00017904558 	5.3208789e-09 	7476.6112 	0.0039424055 	0 	0 	0
0.61801802 	0.0001792133 	5.3238965e-09 	7476.6126 	0.0039423856 	0 	0 	0
0.62012012 	0.00017938102 	5.3269141e-09 	7476.614 	0.0039423657 	0 	0 	0
0.62222222 	0.00017954874 	5.3299318e-09 	7476.6154 	0.0039423459 	0 	0 	0
0.62432432 	0.00017971646 	5.3329494e-09 	7476.6168 	0.003942326 	0 	0 	0
0.62642643 	0.00017982433 	5.3347117e-09 	7476.6177 	0.0039391432 	0 	0 	0
0.62852853 	0.00017992369 	5.3362955e-09 	7476.6185 	0.0039355106 	0 	0 	0
0.63063063 	0.00018002305 	5.3378792e-09 	7476.6193 	0.0039318779 	0 	0 	0
0.63273273 	0.00018012242 	5.339463e-09 	7476.6201 	0.0039282453 	0 	0 	0
0.63483483 	0.00018022178 	5.3410467e-09 	7476.621 	0.0039246127 	0 	0 	0
0.63693694 	0.00018032114 	5.3426305e-09 	7476.6218 	0.00392098 	0 	0 	0
0.63903904 	0.0001804205 	5.3442142e-09 	7476.6226 	0.0039173474 	0 	0 	0
0.64114114 	0.00018051986 	5.345798e-09 	7476.6234 	0.0039137148 	0 	0 	0
0.64324324 	0.00018061923 	5.3473818e-09 	7476.6243 	0.0039100821 	0 	0 	0
0.64534535 	0.00018067462 	5.3480277e-09 	7476.6247 	0.0039045978 	0 	0 	0
0.64744745 	0.00018071278 	5.348306e-09 	7476.625 	0.0038983877 	0 	0 	0
0.64954955 	0.00018075094 	5.3485844e-09 	7476.6254 	0.0038921775 	0 	0 	0
0.65165165 	0.0001807891 	5.3488627e-09 	7476.6257 	0.0038859673 	0 	0 	0
0.65375375 	0.00018082726 	5.349141e-09 	7476.626 	0.0038797571 	0 	0 	0
0.65585586 	0.00018086542 	5.3494194e-09 	7476.6263 	0.0038735469 	0 	0 	0
0.65795796 	0.00018090357 	5.3496977e-09 	7476.6266 	0.0038673367 	0 	0 	0
0.66006006 	0.00018094173 	5.349976e-09 	7476.627 	0.0038611265 	0 	0 	0
0.66216216 	0.00018097989 	5.3502543e-09 	7476.6273 	0.0038549163 	0 	0 	0
0.66426426 	0.0001810038 	5.3502276e-09 	7476.6275 	0.0038482644 	0 	0 	0
0.66636637 	0.00018099103 	5.3494162e-09 	7476.6274 	0.0038404762 	0 	0 	0
0.66846847 	0.00018097826 	5.3486048e-09 	7476.6273 	0.003832688 	0 	0 	0
0.67057057 	0.00018096549 	5.3477933e-09 	7476.6271 	0.0038248998 	0 	0 	0
0.67267267 	0.00018095272 	5.3469819e-09 	7476.627 	0.0038171116 	0 	0 	0
0.67477477 	0.00018093995 	5.3461705e-09 	7476.6269 	0.0038093234 	0 	0 	0
0.67687688 	0.00018092719 	5.345359e-09 	7476.6268 	0.0038015352 	0 	0 	0
0.67897898 	0.00018091442 	5.3445476e-09 	7476.6267 	0.003793747 	0 	0 	0
0.68108108 	0.00018090165 	5.3437362e-09 	7476.6266 	0.0037859588 	0 	0 	0
0.68318318 	0.00018088888 	5.3429247e-09 	7476.6265 	0.0037781705 	0 	0 	0
0.68528529 	0.00018085448 	5.3416558e-09 	7476.6262 	0.0037699037 	0 	0 	0
0.68738739 	0.00018080248 	5.3400149e-09 	7476.6258 	0.0037612475 	0 	0 	0
0.68948949 	0.00018075048 	5.338374e-09 	7476.6254 	0.0037525914 	0 	0 	0
0.69159159 	0.00018069848 	5.3367331e-09 	7476.6249 	0.0037439353 	0 	0 	0
0.69369369 	0.00018064648 	5.3350921e-09 	7476.6245 	0.0037352791 	0 	0 	0
0.6957958 	0.00018059448 	5.3334512e-09 	7476.6241 	0.003726623 	0 	0 	0
0.6978979 	0.00018054248 	5.3318103e-09 	7476.6236 	0.0037179669 	0 	0 	0
0.7 	0.00018049048 	5.3301694e-09 	7476.6232 	0.0037093108 	0 	0 	0
0.7021021 	0.00018043848 	5.3285285e-09 	7476.6228 	0.0037006546 	0 	0 	0
0.7042042 	0.00018038648 	5.3268876e-09 	7476.6224 	0.0036919985 	0 	0 	0
0.70630631 	0.00018031985 	5.3249392e-09 	7476.6218 	0.0036831496 	0 	0 	0
0.70840841 	0.00018023993 	5.322712e-09 	7476.6211 	0.0036741256 	0 	0 	0
0.71051051 	0.00018016002 	5.3204847e-09 	7476.6205 	0.0036651017 	0 	0 	0
0.71261261 	0.0001800801 	5.3182574e-09 	7476.6198 	0.0036560778 	0 	0 	0
0.71471471 	0.00018000019 	5.3160302e-09 	7476.6192 	0.0036470538 	0 	0 	0
0.71681682 	0.00017992028 	5.3138029e-09 	7476.6185 	0.0036380299 	0 	0 	0
0.71891892 	0.00017984036 	5.3115757e-09 	7476.6179 	0.003629006 	0 	0 	0
0.72102102 	0.00017976045 	5.3093484e-09 	7476.6172 	0.003619982 	0 	0 	0
0.72312312 	0.00017968053 	5.3071211e-09 	7476.6165 	0.0036109581 	0 	0 	0
0.72522523 	0.00017960062 	5.3048939e-09 	7476.6159 	0.0036019342 	0 	0 	0
0.72732733 	0.00017951723 	5.3025945e-09 	7476.6152 	0.0035929115 	0 	0 	0
0.72942943 	0.0001794189 	5.2999855e-09 	7476.6144 	0.0035838944 	0 	0 	0
0.73153153 	0.00017932057 	5.2973765e-09 	7476.6136 	0.0035748774 	0 	0 	0
0.73363363 	0.00017922224 	5.2947675e-09 	7476.6128 	0.0035658603 	0 	0 	0
0.73573574 	0.00017912391 	5.2921585e-09 	7476.6119 	0.0035568432 	0 	0 	0
0.73783784 	0.00017902558 	5.2895495e-09 	7476.6111 	0.0035478261 	0 	0 	0
0.73993994 	0.00017892725 	5.2869405e-09 	7476.6103 	0.003538809 	0 	0 	0
0.74204204 	0.00017882892 	5.2843315e-09 	7476.6095 	0.0035297919 	0 	0 	0
0.74414414 	0.0001787306 	5.2817225e-09 	7476.6087 	0.0035207749 	0 	0 	0
0.74624625 	0.00017863227 	5.2791135e-09 	7476.6079 	0.0035117578 	0 	0 	0
0.74834835 	0.00017853394 	5.2765046e-09 	7476.6071 	0.0035027407 	0 	0 	0
0.75045045 	0.00017842978 	5.273779e-09 	7476.6062 	0.0034938441 	0 	0 	0
0.75255255 	0.00017832058 	5.2709526e-09 	7476.6053 	0.0034850517 	0 	0 	0
0.75465465 	0.00017821137 	5.2681261e-09 	7476.6044 	0.0034762594 	0 	0 	0
0.75675676 	0.00017810217 	5.2652997e-09 	7476.6035 	0.003467467 	0 	0 	0
0.75885886 	0.00017799297 	5.2624732e-09 	7476.6026 	0.0034586747 	0 	0 	0
0.76096096 	0.00017788377 	5.2596467e-09 	7476.6017 	0.0034498824 	0 	0 	0
0.76306306 	0.00017777456 	5.2568203e-09 	7476.6008 	0.00344109 	0 	0 	0
0.76516517 	0.00017766536 	5.2539938e-09 	7476.5999 	0.0034322977 	0 	0 	0
0.76726727 	0.00017755616 	5.2511674e-09 	7476.599 	0.0034235053 	0 	0 	0
0.76936937 	0.00017744696 	5.2483409e-09 	7476.5981 	0.003414713 	0 	0 	0
0.77147147 	0.00017733775 	5.2455145e-09 	7476.5972 	0.0034059206 	0 	0 	0
0.77357357 	0.00017722554 	5.2426334e-09 	7476.5963 	0.0033973035 	0 	0 	0
0.77567568 	0.00017711091 	5.2397086e-09 	7476.5953 	0.0033888264 	0 	0 	0
0.77777778 	0.00017699629 	5.2367838e-09 	7476.5944 	0.0033803493 	0 	0 	0
0.77987988 	0.00017688166 	5.233859e-09 	7476.5934 	0.0033718721 	0 	0 	0
0.78198198 	0.00017676704 	5.2309342e-09 	7476.5925 	0.003363395 	0 	0 	0
0.78408408 	0.00017665241 	5.2280094e-09 	7476.5915 	0.0033549179 	0 	0 	0
0.78618619 	0.00017653779 	5.2250846e-09 	7476.5906 	0.0033464408 	0 	0 	0
0.78828829 	0.00017642316 	5.2221598e-09 	7476.5897 	0.0033379636 	0 	0 	0
0.79039039 	0.00017630854 	5.219235e-09 	7476.5887 	0.0033294865 	0 	0 	0
0.79249249 	0.00017619391 	5.2163102e-09 	7476.5878 	0.0033210094 	0 	0 	0
0.79459459 	0.00017607929 	5.2133855e-09 	7476.5868 	0.0033125323 	0 	0 	0
0.7966967 	0.00017596427 	5.2104567e-09 	7476.5859 	0.0033041423 	0 	0 	0
0.7987988 	0.00017584797 	5.2075153e-09 	7476.5849 	0.003296031 	0 	0 	0
0.8009009 	0.00017573167 	5.204574e-09 	7476.584 	0.0032879197 	0 	0 	0
0.803003 	0.00017561538 	5.2016326e-09 	7476.583 	0.0032798084 	0 	0 	0
0.80510511 	0.00017549908 	5.1986912e-09 	7476.582 	0.003271697 	0 	0 	0
0.80720721 	0.00017538278 	5.1957498e-09 	7476.5811 	0.0032635857 	0 	0 	0
0.80930931 	0.00017526649 	5.1928084e-09 	7476.5801 	0.0032554744 	0 	0 	0
0.81141141 	0.00017515019 	5.1898671e-09 	7476.5792 	0.0032473631 	0 	0 	0
0.81351351 	0.00017503389 	5.1869257e-09 	7476.5782 	0.0032392518 	0 	0 	0
0.81561562 	0.0001749176 	5.1839843e-09 	7476.5772 	0.0032311404 	0 	0 	0
0.81771772 	0.0001748013 	5.1810429e-09 	7476.5763 	0.0032230291 	0 	0 	0
0.81981982 	0.000174685 	5.1781016e-09 	7476.5753 	0.0032149178 	0 	0 	0
0.82192192 	0.00017456925 	5.1751837e-09 	7476.5744 	0.0032070234 	0 	0 	0
0.82402402 	0.0001744539 	5.1722832e-09 	7476.5734 	0.0031992907 	0 	0 	0
0.82612613 	0.00017433856 	5.1693828e-09 	7476.5724 	0.0031915579 	0 	0 	0
0.82822823 	0.00017422321 	5.1664824e-09 	7476.5715 	0.0031838251 	0 	0 	0
0.83033033 	0.00017410786 	5.163582e-09 	7476.5705 	0.0031760923 	0 	0 	0
0.83243243 	0.00017399252 	5.1606816e-09 	7476.5696 	0.0031683595 	0 	0 	0