0 	1.4130714e-05 	1.7483282e-07 	80.799909 	0.01500327 	0.99697225 	1.9860155e-05 	0
0.0021021021 	1.3923056e-05 	1.746633e-07 	79.705625 	0.015088245 	0.99688412 	2.0450161e-05 	0
0.0042042042 	1.3767649e-05 	1.7452465e-07 	78.883061 	0.015189979 	0.99677746 	2.1226625e-05 	0
0.0063063063 	1.3655752e-05 	1.7441169e-07 	78.286765 	0.015305668 	0.9966554 	2.2199112e-05 	0
0.0084084084 	1.3543855e-05 	1.7429873e-07 	77.690468 	0.015421358 	0.99653333 	2.3171599e-05 	0
0.010510511 	1.3431958e-05 	1.7418577e-07 	77.094172 	0.015537047 	0.99641127 	2.4144087e-05 	0
0.012612613 	1.3320061e-05 	1.7407281e-07 	76.497876 	0.015652737 	0.9962892 	2.5116574e-05 	0
0.014714715 	1.3208163e-05 	1.7395985e-07 	75.90158 	0.015768427 	0.99616713 	2.6089061e-05 	0
0.016816817 	1.3096266e-05 	1.738469e-07 	75.305284 	0.015884116 	0.99604507 	2.7061549e-05 	0
0.018918919 	1.2984369e-05 	1.7373394e-07 	74.708988 	0.015999806 	0.995923 	2.8034036e-05 	0
0.021021021 	1.2872472e-05 	1.7362098e-07 	74.112692 	0.016115495 	0.99580093 	2.9006523e-05 	0
0.023123123 	1.2717825e-05 	1.7346486e-07 	73.288582 	0.016275467 	0.9956319 	3.0366339e-05 	0
0.025225225 	1.256178e-05 	1.7330734e-07 	72.457024 	0.016436887 	0.99546133 	3.1738821e-05 	0
0.027327327 	1.2405735e-05 	1.7314982e-07 	71.625465 	0.016598307 	0.99529077 	3.3111302e-05 	0
0.029429429 	1.224969e-05 	1.7299229e-07 	70.793906 	0.016759727 	0.9951202 	3.4483783e-05 	0
0.031531532 	1.2093645e-05 	1.7283477e-07 	69.962347 	0.016921147 	0.99494963 	3.5856264e-05 	0
0.033633634 	1.19376e-05 	1.7267724e-07 	69.130789 	0.017082567 	0.99477906 	3.7228745e-05 	0
0.035735736 	1.1833678e-05 	1.7256115e-07 	68.573831 	0.017287133 	0.99457241 	3.9850801e-05 	0
0.037837838 	1.1741235e-05 	1.7245418e-07 	68.077347 	0.0175012 	0.9943578 	4.2801874e-05 	0
0.03993994 	1.1648793e-05 	1.7234721e-07 	67.580864 	0.017715267 	0.9941432 	4.5752946e-05 	0
0.042042042 	1.155635e-05 	1.7224025e-07 	67.084381 	0.017929334 	0.9939286 	4.8704018e-05 	0
0.044144144 	1.1463907e-05 	1.7213328e-07 	66.587898 	0.018143401 	0.99371399 	5.1655091e-05 	0
0.046246246 	1.1371464e-05 	1.7202631e-07 	66.091414 	0.018357468 	0.99349939 	5.4606163e-05 	0
0.048348348 	1.1254544e-05 	1.7189102e-07 	65.463473 	0.018628426 	0.99322808 	5.842261e-05 	0
0.05045045 	1.1125607e-05 	1.7174183e-07 	64.770989 	0.018927315 	0.99292892 	6.2663936e-05 	0
0.052552553 	1.099667e-05 	1.7159264e-07 	64.078505 	0.019226205 	0.99262977 	6.6905262e-05 	0
0.054654655 	1.0867734e-05 	1.7144345e-07 	63.386021 	0.019525095 	0.99233061 	7.1146589e-05 	0
0.056756757 	1.0751345e-05 	1.7130652e-07 	62.760272 	0.019849289 	0.99198939 	7.5691719e-05 	0
0.058858859 	1.0670159e-05 	1.7120398e-07 	62.321738 	0.020244462 	0.99153023 	8.136505e-05 	0
0.060960961 	1.0588972e-05 	1.7110144e-07 	61.883204 	0.020639635 	0.99107107 	8.703838e-05 	0
0.063063063 	1.0507786e-05 	1.709989e-07 	61.44467 	0.021034808 	0.99061191 	9.2711711e-05 	0
0.065165165 	1.04266e-05 	1.7089636e-07 	61.006137 	0.021429981 	0.99015275 	9.8385042e-05 	0
0.067267267 	1.0317999e-05 	1.7075918e-07 	60.419528 	0.021959649 	0.989534 	0.00010595359 	0
0.069369369 	1.0204744e-05 	1.7061611e-07 	59.807783 	0.022512147 	0.98888817 	0.00011384387 	0
0.071471471 	1.0091489e-05 	1.7047304e-07 	59.196038 	0.023064646 	0.98824234 	0.00012173415 	0
0.073573574 	1.0005681e-05 	1.7036198e-07 	58.730996 	0.023787784 	0.98756769 	0.00014590923 	0
0.075675676 	9.9319181e-06 	1.7026496e-07 	58.330341 	0.0245858 	0.98688034 	0.00017752975 	0
0.077777778 	9.8581554e-06 	1.7016794e-07 	57.929687 	0.025383816 	0.986193 	0.00020915028 	0
0.07987988 	9.768833e-06 	1.7005076e-07 	57.444416 	0.026354305 	0.98536491 	0.00025074579 	0
0.081981982 	9.6659908e-06 	1.6991608e-07 	56.88562 	0.027474657 	0.98441454 	0.00030100863 	0
0.084084084 	9.5771588e-06 	1.6984456e-07 	56.388011 	0.028722567 	0.98303839 	0.00036167702 	0
0.086186186 	9.526194e-06 	1.6994321e-07 	56.055958 	0.030315503 	0.98051089 	0.00045246823 	0
0.088288288 	9.4751791e-06 	1.7004275e-07 	55.723322 	0.031911512 	0.97797811 	0.00054332412 	0
0.09039039 	9.4132971e-06 	1.7033594e-07 	55.263998 	0.034175104 	0.9743011 	0.00064822289 	0
0.092492492 	1.3346691e-05 	2.1583079e-07 	57.397872 	0.037241702 	0.9712843 	0.0012393366 	0
0.094594595 	2.3762483e-05 	3.3469079e-07 	63.739536 	0.041613167 	0.96934274 	0.0026320064 	0
0.096696697 	4.2364487e-05 	5.3915518e-07 	75.181468 	0.047763713 	0.96630418 	0.0069466405 	0
0.098798799 	0.0023134238 	6.7422467e-07 	1569.1047 	0.05107992 	0.83272562 	0.0082655156 	0
0.1009009 	0.0084928333 	1.1727307e-06 	5630.0768 	0.053390889 	0.77555747 	0.0095913056 	0
0.103003 	0.010198296 	9.729064e-07 	6139.0506 	0.048125342 	0.46204301 	0.012139861 	0
0.10510511 	0.013280219 	1.6476565e-06 	7265.4746 	0.04074691 	0.6337604 	0.019087352 	0
0.10720721 	0.011036123 	1.2322097e-06 	6856.4054 	0.031518435 	0.48088692 	0.018367361 	0
0.10930931 	0.0087849768 	9.1835945e-07 	6466.6051 	0.023638372 	0.4001187 	0.016167855 	0
0.11141141 	0.0076517855 	1.0135268e-06 	7534.9782 	0.016482169 	0.42956282 	0.01452815 	0
0.11351351 	0.0050052444 	5.4746665e-07 	6437.2467 	0.010062846 	0.31315806 	0.010379721 	0
0.11561562 	0.0039869588 	5.1114788e-07 	6938.0666 	0.004847649 	0.30611903 	0.0070121609 	0
0.11771772 	0.0029533978 	3.7373996e-07 	6922.0805 	0.0016598033 	0.26851277 	0.004469932 	0
0.11981982 	0.0022904728 	3.0346316e-07 	6466.5151 	0.00012785806 	0.24916574 	0.0045104861 	0
0.12192192 	0.0019615693 	2.6107403e-07 	7302.9421 	-0.00069219156 	0.23150087 	0.0026560207 	0
0.12402402 	0.0015715784 	2.1916226e-07 	6101.3197 	-0.00015909448 	0.2215749 	0.0033303239 	0
0.12612613 	0.0015081982 	2.0176979e-07 	7391.0781 	0.00027352677 	0.20796707 	-0.00014699302 	0
0.12822823 	0.0012721585 	1.7734484e-07 	6275.1429 	0.0011813709 	0.20330929 	0.001494105 	0
0.13033033 	0.0012545701 	1.6828992e-07 	7194.2604 	0.0018815071 	0.19370538 	-9.4845796e-05 	0
0.13243243 	0.001100442 	1.5021044e-07 	6407.065 	0.0024445343 	0.18991912 	0.00087178358 	0
0.13453453 	0.001096711 	1.4634111e-07 	7092.8414 	0.0028699284 	0.18314063 	0.00013405636 	0
0.13663664 	0.00097728354 	1.3041727e-07 	6450.9534 	0.0031222723 	0.17947593 	0.00069079182 	0
0.13873874 	0.00098439705 	1.3048728e-07 	7082.7971 	0.0033072959 	0.17420282 	0.00023104199 	0
0.14084084 	0.00087356812 	1.1422284e-07 	6409.2719 	0.00341528 	0.17067599 	0.00063158092 	0
0.14294294 	0.00089883561 	1.188475e-07 	7159.7094 	0.0034911096 	0.16619021 	0.00020512776 	0
0.14504505 	0.0007804935 	1.0004234e-07 	6285.319 	0.0035431141 	0.16302806 	0.00061605697 	0
0.14714715 	0.00083360953 	1.1060872e-07 	7319.2292 	0.0035723793 	0.15899032 	0.00012995139 	0
0.14924925 	0.00069587592 	8.7238904e-08 	6082.8913 	0.0035960245 	0.15634063 	0.00062568823 	0
0.15135135 	0.00077328833 	1.0292599e-07 	7411.1355 	0.0035985592 	0.15260725 	9.4804858e-05 	0
0.15345345 	0.00065138077 	8.164361e-08 	6223.8257 	0.0036086409 	0.15028645 	0.00052215927 	0
0.15555556 	0.00069158717 	9.0701658e-08 	7099.0628 	0.003603362 	0.14711906 	0.0003130829 	0
0.15765766 	0.00062924666 	8.0206513e-08 	6571.6083 	0.0036084333 	0.14477903 	0.00042079008 	0
0.15975976 	0.00061575791 	7.9011688e-08 	6717.0731 	0.003609477 	0.14223468 	0.00037487215 	0
0.16186186 	0.00061535334 	8.01836e-08 	6988.831 	0.0036099838 	0.13976263 	0.00028181203 	0
0.16396396 	0.00054537664 	6.7959486e-08 	6269.11 	0.003617952 	0.13787948 	0.00040026779 	0
0.16606607 	0.00060760276 	8.1089287e-08 	7471.4698 	0.0036141891 	0.13517084 	7.2745053e-05 	0
0.16816817 	0.00051110646 	6.3566903e-08 	6243.236 	0.0036181599 	0.13375719 	0.00035123932 	0
0.17027027 	0.00053913495 	6.997831e-08 	6950.4033 	0.003612447 	0.13149945 	0.00017874106 	0
0.17237237 	0.00051732493 	6.67495e-08 	6821.0191 	0.0036081367 	0.12972223 	0.00019027968 	0
0.17447447 	0.00047381068 	5.9276141e-08 	6349.4468 	0.0036038587 	0.12817686 	0.00028766146 	0
0.17657658 	0.00052557552 	7.0099536e-08 	7455.7107 	0.0035929065 	0.12596111 	4.9699848e-05 	0
0.17867868 	0.00044673778 	5.5781142e-08 	6294.1475 	0.0035906266 	0.12488123 	0.00027019619 	0
0.18078078 	0.00046345781 	5.9732962e-08 	6821.2873 	0.0035820268 	0.12307815 	0.00016753097 	0
0.18288288 	0.00046355683 	6.0503153e-08 	7014.2849 	0.003574173 	0.12148691 	0.00012014011 	0
0.18498498 	0.0004027125 	4.9588401e-08 	6084.7508 	0.0035698841 	0.12045866 	0.00027896973 	0
0.18708709 	0.00044954012 	5.9127535e-08 	7180.2058 	0.0035588338 	0.11857201 	8.8934237e-05 	0
0.18918919 	0.00041533496 	5.3284675e-08 	6685.5324 	0.0035511787 	0.11745746 	0.00015983293 	0
0.19129129 	0.00038938827 	4.894493e-08 	6366.8645 	0.0035425103 	0.11630233 	0.00020861279 	0
0.19339339 	0.00043266595 	5.7644047e-08 	7431.7457 	0.0035297582 	0.11457015 	4.2481563e-05 	0
0.1954955 	0.00037829954 	4.7989684e-08 	6463.8159 	0.0035216455 	0.1137942 	0.00017708986 	0
0.1975976 	0.0003733657 	4.7535469e-08 	6546.3247 	0.0035107382 	0.11258693 	0.00016470023 	0
0.1996997 	0.00040422478 	5.3761671e-08 	7380.4977 	0.0034978435 	0.11108597 	4.5367371e-05 	0
0.2018018 	0.00035033211 	4.4239429e-08 	6343.6218 	0.003489741 	0.11043564 	0.00017693354 	0
0.2039039 	0.00035518622 	4.552537e-08 	6628.4228 	0.0034785067 	0.10924969 	0.00013962848 	0
0.20600601 	0.00037894866 	5.030427e-08 	7327.116 	0.003466213 	0.10791446 	4.7747125e-05 	0
0.20810811 	0.00032975302 	4.1714201e-08 	6319.5845 	0.0034575205 	0.10733984 	0.00016425229 	0
0.21021021 	0.00033537231 	4.3062694e-08 	6618.3182 	0.0034460389 	0.10624362 	0.0001287078 	0
0.21231231 	0.00036015422 	4.7897518e-08 	7365.4147 	0.0034334539 	0.10498204 	3.9859382e-05 	0
0.21441441 	0.00031516359 	4.0141616e-08 	6386.5023 	0.0034234543 	0.10447135 	0.00014332301 	0
0.21651652 	0.00031434578 	4.0271777e-08 	6521.0253 	0.0034113291 	0.10352421 	0.00012847453 	0
0.21861862 	0.0003458655 	4.6175079e-08 	7470.6593 	0.0033976478 	0.10225756 	2.7013459e-05 	0
0.22072072 	0.00030539743 	3.9302989e-08 	6539.3321 	0.0033868637 	0.10179785 	0.00011696274 	0
0.22282282 	0.00029246272 	3.7262114e-08 	6341.4006 	0.003374819 	0.10105214 	0.00013564898 	0
0.22492492 	0.00032160785 	4.2611882e-08 	7263.9765 	0.003360854 	0.099875152 	4.5360884e-05 	0
0.22702703 	0.00029950303 	3.9021561e-08 	6773.1936 	0.0033491879 	0.09929263 	8.6832e-05 	0
0.22912913 	0.00027005675 	3.4131277e-08 	6084.1364 	0.0033378621 	0.098797767 	0.00014770183 	0
0.23123123 	0.0002970255 	3.8977241e-08 	6980.3456 	0.0033240816 	0.097702865 	6.7169007e-05 	0
0.23333333 	0.00029671731 	3.9153281e-08 	7083.3811 	0.0033113548 	0.096936661 	5.4541355e-05 	0
0.23543544 	0.00026201677 	3.3435237e-08 	6186.036 	0.0032999564 	0.09657581 	0.00012750982 	0
0.23753754 	0.00027239981 	3.5350367e-08 	6624.2888 	0.0032866974 	0.095718197 	9.112498e-05 	0
0.23963964 	0.00029640877 	3.9576347e-08 	7465.3617 	0.0032728676 	0.094715454 	2.1681643e-05 	0
0.24174174 	0.00026452244 	3.4418525e-08 	6593.8032 	0.0032608466 	0.094394029 	8.682693e-05 	0
0.24384384 	0.00024795024 	3.1798804e-08 	6200.1643 	0.0032482306 	0.093898123 	0.00011602716 	0
0.24594595 	0.00027108464 	3.5759897e-08 	7045.6801 	0.0032340719 	0.09294982 	5.2028694e-05 	0
0.24804805 	0.00026870306 	3.5538089e-08 	7068.3164 	0.0032208292 	0.09232713 	4.7451845e-05 	0
0.25015015 	0.00023938089 	3.0895361e-08 	6221.862 	0.0032085533 	0.09204079 	0.00010559742 	0
0.25225225 	0.00024529937 	3.1952524e-08 	6533.3326 	0.0031949858 	0.091339153 	8.3651965e-05 	0
0.25435435 	0.00026673008 	3.5518667e-08 	7354.4989 	0.0031808498 	0.09045471 	2.6452001e-05 	0
0.25645646 	0.00024714497 	3.2535696e-08 	6783.3698 	0.0031682792 	0.090108071 	6.1725284e-05 	0
0.25855856 	0.00022018605 	2.8372977e-08 	5961.7901 	0.00315599 	0.089854071 	0.00011361488 	0
0.26066066 	0.00024004211 	3.1569701e-08 	6759.2578 	0.0031420793 	0.089029098 	6.2465894e-05 	0
0.26276276 	0.00025558483 	3.4100437e-08 	7402.7654 	0.0031283101 	0.088265417 	2.0742276e-05 	0
0.26486486 	0.00023077284 	3.0382106e-08 	6604.5182 	0.0031158634 	0.088041361 	6.7124737e-05 	0
0.26696697 	0.00021428724 	2.792924e-08 	6109.3168 	0.0031031463 	0.087712269 	9.5768688e-05 	0
0.26906907 	0.00023268505 	3.0778031e-08 	6883.724 	0.003089296 	0.086943129 	5.0097253e-05 	0
0.27117117 	0.00024158069 	3.2211285e-08 	7301.0917 	0.0030757277 	0.086308897 	2.4505855e-05 	0
0.27327327 	0.00021875474 	2.8912204e-08 	6525.9746 	0.0030631 	0.086111592 	6.5919574e-05 	0
0.27537538 	0.0002066186 	2.7172964e-08 	6160.336 	0.003050149 	0.085774833 	8.529836e-05 	0
0.27747748 	0.00022365869 	2.9691077e-08 	6912.3073 	0.0030363155 	0.085057456 	4.4536115e-05 	0
0.27957958 	0.00023135536 	3.0878966e-08 	7294.7827 	0.0030227928 	0.084476817 	2.2865903e-05 	0
0.28168168 	0.00021036244 	2.7976739e-08 	6542.1649 	0.0030102237 	0.084304069 	5.9793689e-05 	0
0.28378378 	0.00019756898 	2.621272e-08 	6120.2301 	0.0029974238 	0.084020554 	8.0370277e-05 	0
0.28588589 	0.00021334197 	2.8414159e-08 	6850.377 	0.0029838192 	0.08335113 	4.3980187e-05 	0
0.28798799 	0.00022426154 	2.9962804e-08 	7378.4605 	0.0029703877 	0.082756447 	1.7184267e-05 	0
0.29009009 	0.00020496811 	2.743925e-08 	6647.7247 	0.0029580331 	0.082606897 	5.0070095e-05 	0
0.29219219 	0.00018749142 	2.5152677e-08 	5994.1781 	0.0029456308 	0.082431888 	7.9453207e-05 	0
0.29429429 	0.00020208187 	2.7049066e-08 	6703.0991 	0.0029323886 	0.081807511 	4.7009935e-05 	0
0.2963964 	0.00021667232 	2.8945455e-08 	7412.02 	0.0029191463 	0.081183133 	1.4566663e-05 	0
0.2984985 	0.00020202829 	2.717201e-08 	6837.4969 	0.0029069112 	0.081010842 	3.7949424e-05 	0
0.3006006 	0.0001843141 	2.5012078e-08 	6128.0399 	0.0028947817 	0.080883117 	6.7188699e-05 	0
0.3027027 	0.00019018948 	2.5695497e-08 	6475.4412 	0.0028820819 	0.080411916 	5.2508172e-05 	0
0.3048048 	0.00020367344 	2.729601e-08 	7163.721 	0.0028691982 	0.079829931 	2.3661769e-05 	0
0.30690691 	0.00020106142 	2.7051579e-08 	7106.5265 	0.0028569263 	0.079507526 	2.4472752e-05 	0
0.30900901 	0.00018481825 	2.5243271e-08 	6417.7597 	0.0028451724 	0.079400359 	5.0389722e-05 	0
0.31111111 	0.00017794442 	2.4453792e-08 	6172.1762 	0.0028332101 	0.07915107 	5.9485578e-05 	0
0.31321321 	0.00019038911 	2.5765021e-08 	6840.3857 	0.0028208182 	0.07860874 	3.3898222e-05 	0
0.31531532 	0.00020163494 	2.6954961e-08 	7450.0546 	0.0028084824 	0.078088722 	1.0443308e-05 	0
0.31741742 	0.00018676842 	2.5489821e-08 	6781.4032 	0.0027973662 	0.078001463 	3.3317289e-05 	0
0.31951952 	0.0001719019 	2.4024681e-08 	6112.7518 	0.00278625 	0.077914204 	5.6191271e-05 	0
0.32162162 	0.00017707451 	2.4455334e-08 	6446.5834 	0.0027747221 	0.077509036 	4.4441442e-05 	0
0.32372372 	0.00018854112 	2.5481427e-08 	7095.28 	0.002763065 	0.077004018 	2.1816782e-05 	0
0.32582583 	0.00018978817 	2.5629152e-08 	7214.4173 	0.0027519664 	0.076679728 	1.6628107e-05 	0
0.32792793 	0.00017621667 	2.4502329e-08 	6565.3206 	0.0027416779 	0.076612144 	3.6709442e-05 	0
0.33003003 	0.00016397415 	2.3478524e-08 	5986.698 	0.002731364 	0.076522411 	5.4587571e-05 	0
0.33213213 	0.00017451843 	2.4221051e-08 	6616.4257 	0.0027206163 	0.076052933 	3.468952e-05 	0
0.33423423 	0.00018506271 	2.4963578e-08 	7246.1534 	0.0027098687 	0.075583455 	1.4791469e-05 	0
0.33633634 	0.00018118459 	2.4740812e-08 	7082.3467 	0.0027000168 	0.075381423 	1.8467984e-05 	0
0.33843844 	0.00016883633 	2.3950935e-08 	6452.2579 	0.0026906909 	0.075333235 	3.5981653e-05 	0
0.34054054 	0.00016099426 	2.3416326e-08 	6076.2241 	0.0026812855 	0.075205756 	4.6355655e-05 	0
0.34264264 	0.00017066435 	2.3873748e-08 	6687.5129 	0.0026715704 	0.074770128 	2.898307e-05 	0
0.34474474 	0.00018033445 	2.433117e-08 	7298.8017 	0.0026618553 	0.0743345 	1.1610485e-05 	0
0.34684685 	0.00017529902 	2.4148289e-08 	7048.0434 	0.0026532805 	0.07418743 	1.7163786e-05 	0
0.34894895 	0.00016411184 	2.3697745e-08 	6436.4305 	0.0026451828 	0.074158416 	3.230071e-05 	0
0.35105105 	0.00015703307 	2.3373965e-08 	6072.0612 	0.0026370165 	0.074052531 	4.124558e-05 	0
0.35315315 	0.0001658688 	2.3541227e-08 	6665.4273 	0.0026285845 	0.07364888 	2.6204607e-05 	0
0.35525526 	0.00017470453 	2.3708489e-08 	7258.7934 	0.0026201524 	0.07324523 	1.1163635e-05 	0
0.35735736 	0.00017164813 	2.3704414e-08 	7105.9373 	0.0026129691 	0.073091111 	1.3712494e-05 	0
0.35945946 	0.00016157151 	2.3599889e-08 	6512.2817 	0.0026065232 	0.073081582 	2.6637373e-05 	0
0.36156156 	0.00015243886 	2.3493963e-08 	5979.5843 	0.0026000618 	0.073053097 	3.8216958e-05 	0
0.36366366 	0.00016047402 	2.3362544e-08 	6555.5306 	0.0025933173 	0.072679847 	2.5329763e-05 	0
0.36576577 	0.00016850919 	2.3231125e-08 	7131.4769 	0.0025865729 	0.072306597 	1.2442568e-05 	0
0.36786787 	0.00016978519 	2.3251122e-08 	7250.6798 	0.002580744 	0.072086978 	8.9852224e-06 	0
0.36996997 	0.00016077756 	2.3503474e-08 	6674.477 	0.0025763086 	0.07209723 	1.9862711e-05 	0
0.37207207 	0.00015176992 	2.3755825e-08 	6098.2742 	0.0025718732 	0.072107483 	3.07402e-05 	0
0.37417417 	0.00015481227 	2.3493368e-08 	6362.9709 	0.0025672314 	0.07185483 	2.5506922e-05 	0
0.37627628 	0.00016207219 	2.3050726e-08 	6921.9868 	0.0025625172 	0.071510159 	1.4634793e-05 	0
0.37837838 	0.00016926853 	2.2611477e-08 	7476.5305 	0.0025578151 	0.071168245 	3.8496402e-06 	0
0.38048048 	0.00016130692 	2.3235727e-08 	6917.895 	0.0025560728 	0.071199041 	1.3391176e-05 	0
0.38258258 	0.00015333741 	2.3860674e-08 	6358.6536 	0.0025543322 	0.07122987 	2.2943063e-05 	0
0.38468468 	0.00014922004 	2.4114121e-08 	6092.6887 	0.0025525145 	0.07116787 	2.8601951e-05 	0
0.38678679 	0.00015572252 	2.3343386e-08 	6635.2508 	0.0025504847 	0.070849954 	2.3528327e-05 	0
0.38888889 	0.000162225 	2.2572651e-08 	7177.8129 	0.0025484549 	0.070532038 	1.8454703e-05 	0
0.39099099 	0.00016274466 	2.2596589e-08 	7237.6222 	0.0025479719 	0.070380744 	1.695352e-05 	0
0.39309309 	0.00015580372 	2.361536e-08 	6694.8642 	0.0025494196 	0.070434646 	1.9888901e-05 	0
0.3951952 	0.00014886278 	2.463413e-08 	6152.1062 	0.0025508673 	0.070488548 	2.2824282e-05 	0
0.3972973 	0.00014984834 	2.4321486e-08 	6275.9983 	0.0025520963 	0.070328898 	2.0203683e-05 	0
0.3993994 	0.00015562178 	2.320462e-08 	6802.5706 	0.0025531932 	0.070040256 	1.4227076e-05 	0
0.4015015 	0.00016139522 	2.2087754e-08 	7329.1428 	0.0025542901 	0.069751614 	8.2504694e-06 	0
0.4036036 	0.00015878054 	2.279309e-08 	7102.2055 	0.0025584266 	0.069723585 	9.0447939e-06 	0
0.40570571 	0.00015283309 	2.4225728e-08 	6575.4664 	0.0025637721 	0.069797801 	1.2516189e-05 	0
0.40780781 	0.00014688563 	2.5658366e-08 	6048.7272 	0.0025691177 	0.069872017 	1.5987584e-05 	0
0.40990991 	0.00014980365 	2.4732803e-08 	6359.7999 	0.002574133 	0.06967274 	1.2161144e-05 	0
0.41201201 	0.00015483758 	2.3244409e-08 	6870.8326 	0.0025790694 	0.069408188 	6.5929333e-06 	0
0.41411411 	0.00015987151 	2.1756015e-08 	7381.8652 	0.0025840059 	0.069143637 	1.0247227e-06 	0
0.41621622 	0.00015681737 	2.298771e-08 	7064.9936 	0.0025921023 	0.069174497 	3.1946213e-06 	0
0.41831832 	0.00015186938 	2.4860257e-08 	6553.8211 	0.0026009401 	0.069273672 	7.1707934e-06 	0
0.42042042 	0.00014692138 	2.6732804e-08 	6042.6486 	0.0026097779 	0.069372846 	1.1146965e-05 	0
0.42252252 	0.00014950161 	2.5555216e-08 	6349.7719 	0.0026182794 	0.069198246 	8.7163807e-06 	0
0.42462462 	0.00015381887 	2.3673858e-08 	6845.7041 	0.0026267034 	0.068960477 	4.8075383e-06 	0
0.42672673 	0.00015813613 	2.1792499e-08 	7341.6363 	0.0026351273 	0.068722708 	8.986958e-07 	0
0.42882883 	0.00015645842 	2.2955991e-08 	7120.3308 	0.0026460457 	0.068745121 	1.4753639e-06 	0
0.43093093 	0.00015248943 	2.5289118e-08 	6624.285 	0.0026579193 	0.068866371 	3.7586919e-06 	0
0.43303303 	0.00014852043 	2.7622246e-08 	6128.2392 	0.0026697929 	0.068987621 	6.04202e-06 	0
0.43513514 	0.00014934831 	2.702207e-08 	6251.3682 	0.0026813919 	0.068898273 	5.334891e-06 	0
0.43723724 	0.00015295069 	2.4725278e-08 	6732.6265 	0.0026928322 	0.068687114 	2.8980889e-06 	0
0.43933934 	0.00015655307 	2.2428487e-08 	7213.8848 	0.0027042725 	0.068475955 	4.6128685e-07 	0
0.44144144 	0.00015718105 	2.2423469e-08 	7262.7867 	0.0027172522 	0.06842325 	-4.5472266e-07 	0
0.44354354 	0.0001541698 	2.5235269e-08 	6781.4401 	0.0027321194 	0.068564047 	4.7667901e-07 	0
0.44564565 	0.00015115856 	2.8047069e-08 	6300.0935 	0.0027469867 	0.068704845 	1.4080807e-06 	0
0.44774775 	0.00014970895 	2.9390986e-08 	6069.8231 	0.0027617288 	0.068759144 	1.7972165e-06 	0
0.44984985 	0.00015259619 	2.6658417e-08 	6536.8221 	0.0027761233 	0.068573227 	6.8041446e-07 	0
0.45195195 	0.00015548343 	2.3925847e-08 	7003.8211 	0.0027905179 	0.06838731 	-4.3638758e-07 	0
0.45405405 	0.00015837067 	2.1193278e-08 	7470.8201 	0.0028049125 	0.068201393 	-1.5531896e-06 	0
0.45615616 	0.00015637838 	2.4389567e-08 	7020.0863 	0.0028222709 	0.068353403 	-1.7803462e-06 	0
0.45825826 	0.0001543034 	2.7694537e-08 	6553.0232 	0.0028396819 	0.068511269 	-1.9990764e-06 	0
0.46036036 	0.00015222843 	3.0999508e-08 	6085.9602 	0.0028570929 	0.068669136 	-2.2178066e-06 	0
0.46246246 	0.00015312868 	2.9759651e-08 	6263.3034 	0.0028741502 	0.068603079 	-2.2892926e-06 	0
0.46456456 	0.0001553023 	2.6574653e-08 	6716.4462 	0.0028910562 	0.068441184 	-2.2977595e-06 	0
0.46666667 	0.00015747591 	2.3389655e-08 	7169.589 	0.0029079622 	0.06827929 	-2.3062265e-06 	0
0.46876877 	0.00015858755 	2.2419873e-08 	7335.2337 	0.0029256501 	0.068223223 	-2.6642592e-06 	0
0.47087087 	0.00015742679 	2.6229268e-08 	6882.0517 	0.002945021 	0.068395123 	-3.7948724e-06 	0
0.47297297 	0.00015626602 	3.0038662e-08 	6428.8698 	0.0029643919 	0.068567022 	-4.9254857e-06 	0
0.47507508 	0.00015510525 	3.3848057e-08 	5975.6879 	0.0029837627 	0.068738922 	-6.0560989e-06 	0
0.47717718 	0.00015639405 	3.068838e-08 	6356.5626 	0.0030026407 	0.068620265 	-5.2510095e-06 	0
0.47927928 	0.00015785555 	2.7037374e-08 	6796.2395 	0.003021484 	0.068481123 	-4.3094505e-06 	0
0.48138138 	0.00015931704 	2.3386369e-08 	7235.9164 	0.0030403272 	0.068341982 	-3.3678915e-06 	0
0.48348348 	0.00015999555 	2.3293969e-08 	7282.3962 	0.0030599386 	0.068346291 	-3.6730511e-06 	0
0.48558559 	0.00015971582 	2.7610206e-08 	6842.7009 	0.0030804995 	0.06852853 	-5.5316013e-06 	0
0.48768769 	0.00015943608 	3.1926442e-08 	6403.0056 	0.0031010604 	0.068710768 	-7.3901514e-06 	0
0.48978979 	0.00015915635 	3.6242679e-08 	5963.3104 	0.0031216212 	0.068893006 	-9.2487015e-06 	0
0.49189189 	0.00015986903 	3.2456124e-08 	6355.3617 	0.0031416687 	0.068787013 	-7.6948174e-06 	0
0.49399399 	0.00016062293 	2.8333065e-08 	6781.9551 	0.0031616948 	0.068669049 	-5.9992163e-06 	0
0.4960961 	0.00016137682 	2.4210005e-08 	7208.5485 	0.0031817209 	0.068551085 	-4.3036153e-06 	0
0.4981982 	0.00016205092 	2.3352555e-08 	7322.8832 	0.0032020267 	0.068544555 	-4.0850315e-06 	0
0.5003003 	0.00016259913 	2.8163254e-08 	6896.2861 	0.0032228169 	0.068732199 	-6.4357884e-06 	0
0.5024024 	0.00016314734 	3.2973954e-08 	6469.6889 	0.0032436071 	0.068919844 	-8.7865453e-06 	0
0.5045045 	0.00016369555 	3.7784654e-08 	6043.0918 	0.0032643973 	0.069107489 	-1.1137302e-05 	0
0.50660661 	0.00016386566 	3.5340652e-08 	6265.2241 	0.0032847852 	0.069073213 	-9.9388615e-06 	0
0.50870871 	0.00016392402 	3.0752273e-08 	6679.1107 	0.0033050543 	0.06897334 	-7.6913335e-06 	0
0.51081081 	0.00016398238 	2.6163895e-08 	7092.9972 	0.0033253234 	0.068873468 	-5.4438055e-06 	0
0.51291291 	0.00016412069 	2.2235449e-08 	7451.1793 	0.0033456213 	0.068792475 	-3.5246296e-06 	0
0.51501502 	0.00016543427 	2.7515895e-08 	7037.3003 	0.0033663176 	0.068981262 	-6.1950225e-06 	0
0.51711712 	0.00016674785 	3.279634e-08 	6623.4212 	0.0033870138 	0.069170049 	-8.8654154e-06 	0
0.51921922 	0.00016806143 	3.8076785e-08 	6209.5421 	0.0034077101 	0.069358836 	-1.1535808e-05 	0
0.52132132 	0.00016867647 	3.9615617e-08 	6091.449 	0.0034282228 	0.069448395 	-1.2307815e-05 	0
0.52342342 	0.00016806432 	3.4581128e-08 	6492.9972 	0.0034484129 	0.06936363 	-9.7447077e-06 	0
0.52552553 	0.00016745216 	2.954664e-08 	6894.5454 	0.003468603 	0.069278864 	-7.1816008e-06 	0
0.52762763 	0.00016684 	2.4512151e-08 	7296.0936 	0.0034887931 	0.069194098 	-4.6184938e-06 	0
0.52972973 	0.0001676491 	2.5323255e-08 	7260.4709 	0.0035087454 	0.069256507 	-4.9801956e-06 	0
0.53183183 	0.00016965591 	3.1034835e-08 	6858.9382 	0.0035284986 	0.069443287 	-7.7928545e-06 	0
0.53393393 	0.00017166271 	3.6746415e-08 	6457.4054 	0.0035482518 	0.069630067 	-1.0605513e-05 	0
0.53603604 	0.00017366952 	4.2457995e-08 	6055.8726 	0.003568005 	0.069816847 	-1.3418172e-05 	0
0.53813814 	0.00017332148 	4.0068945e-08 	6228.678 	0.0035874143 	0.069816737 	-1.2227937e-05 	0
0.54024024 	0.00017208467 	3.4622579e-08 	6618.2483 	0.0036066938 	0.069746091 	-9.5269419e-06 	0
0.54234234 	0.00017084787 	2.9176214e-08 	7007.8186 	0.0036259733 	0.069675445 	-6.8259468e-06 	0
0.54444444 	0.00016961107 	2.3729848e-08 	7397.3889 	0.0036452528 	0.069604799 	-4.1249518e-06 	0
0.54654655 	0.00017139802 	2.7390704e-08 	7171.2071 	0.0036623808 	0.069730754 	-5.7004872e-06 	0
0.54864865 	0.00017399247 	3.3472994e-08 	6781.657 	0.0036789379 	0.069909767 	-8.4107289e-06 	0
0.55075075 	0.00017658691 	3.9555283e-08 	6392.1068 	0.0036954951 	0.070088779 	-1.1120971e-05 	0
0.55285285 	0.00017918136 	4.5637573e-08 	6002.5566 	0.0037120523 	0.070267791 	-1.3831212e-05 	0
0.55495495 	0.00017801701 	4.1560042e-08 	6268.9359 	0.0037282837 	0.070243428 	-1.1913746e-05 	0
0.55705706 	0.00017621333 	3.5754451e-08 	6646.8808 	0.0037444598 	0.070184474 	-9.2091627e-06 	0
0.55915916 	0.00017440966 	2.994886e-08 	7024.8257 	0.0037606359 	0.07012552 	-6.5045796e-06 	0
0.56126126 	0.00017260598 	2.4143269e-08 	7402.7706 	0.0037768119 	0.070066566 	-3.7999965e-06 	0
0.56336336 	0.00017467135 	2.8052359e-08 	7177.4994 	0.0037896226 	0.07018494 	-5.1838655e-06 	0
0.56546547 	0.00017772049 	3.4424564e-08 	6799.5755 	0.0038015817 	0.070349075 	-7.5999448e-06 	0
0.56756757 	0.00018076962 	4.0796768e-08 	6421.6517 	0.0038135408 	0.070513211 	-1.0016024e-05 	0
0.56966967 	0.00018381876 	4.7168973e-08 	6043.7278 	0.0038254999 	0.070677347 	-1.2432104e-05 	0
0.57177177 	0.00018290038 	4.4297744e-08 	6217.8789 	0.0038372701 	0.070681228 	-1.1227716e-05 	0
0.57387387 	0.00018059849 	3.8203246e-08 	6584.5436 	0.0038489745 	0.070629227 	-8.7608388e-06 	0
0.57597598 	0.00017829661 	3.2108748e-08 	6951.2082 	0.0038606788 	0.070577227 	-6.2939616e-06 	0
0.57807808 	0.00017599472 	2.601425e-08 	7317.8728 	0.0038723831 	0.070525226 	-3.8270845e-06 	0
0.58018018 	0.00017686651 	2.7012802e-08 	7273.7158 	0.0038812585 	0.070582192 	-3.8151741e-06 	0
0.58228228 	0.00018023527 	3.3585086e-08 	6907.0691 	0.0038879132 	0.07072583 	-5.7234652e-06 	0
0.58438438 	0.00018360402 	4.0157369e-08 	6540.4224 	0.003894568 	0.070869468 	-7.6317563e-06 	0
0.58648649 	0.00018697278 	4.6729653e-08 	6173.7757 	0.0039012227 	0.071013106 	-9.5400474e-06 	0
0.58858859 	0.00018803319 	4.8422014e-08 	6080.9114 	0.0039078341 	0.071083257 	-9.9902747e-06 	0
0.59069069 	0.00018531144 	4.2118721e-08 	6436.6341 	0.0039143743 	0.071033 	-8.051494e-06 	0
0.59279279 	0.00018258969 	3.5815429e-08 	6792.3568 	0.0039209146 	0.070982744 	-6.1127133e-06 	0
0.59489489 	0.00017986793 	2.9512136e-08 	7148.0795 	0.0039274549 	0.070932487 	-4.1739326e-06 	0
0.596997 	0.00017757979 	2.4106708e-08 	7454.4805 	0.0039336835 	0.070893585 	-2.4707477e-06 	0
0.5990991 	0.00018115056 	3.0793135e-08 	7098.7695 	0.0039357294 	0.071014384 	-3.8751727e-06 	0
0.6012012 	0.00018472133 	3.7479563e-08 	6743.0585 	0.0039377753 	0.071135183 	-5.2795978e-06 	0
0.6033033 	0.00018829211 	4.416599e-08 	6387.3474 	0.0039398212 	0.071255982 	-6.6840229e-06 	0
0.60540541 	0.00019186288 	5.0852418e-08 	6031.6364 	0.0039418671 	0.071376781 	-8.0884479e-06 	0
0.60750751 	0.00019039419 	4.7572332e-08 	6208.3041 	0.0039439151 	0.071365219 	-7.8500269e-06 	0
0.60960961 	0.00018733102 	4.113885e-08 	6553.4159 	0.0039459638 	0.071311778 	-7.091811e-06 	0
0.61171171 	0.00018426784 	3.4705369e-08 	6898.5276 	0.0039480125 	0.071258338 	-6.3335951e-06 	0
0.61381381 	0.00018120467 	2.8271888e-08 	7243.6394 	0.0039500612 	0.071204897 	-5.5753791e-06 	0
0.61591592 	0.00018028471 	2.6016064e-08 	7369.5612 	0.0039507992 	0.071199796 	-5.1098117e-06 	0
0.61801802 	0.00018397726 	3.274456e-08 	7024.453 	0.0039487211 	0.071299652 	-5.2589982e-06 	0
0.62012012 	0.00018766982 	3.9473055e-08 	6679.3449 	0.003946643 	0.071399508 	-5.4081848e-06 	0
0.62222222 	0.00019136237 	4.6201551e-08 	6334.2367 	0.0039445649 	0.071499365 	-5.5573714e-06 	0
0.62432432 	0.00019505492 	5.2930047e-08 	5989.1285 	0.0039424868 	0.071599221 	-5.706558e-06 	0
0.62642643 	0.00019260738 	4.8083396e-08 	6239.289 	0.0039404995 	0.071560727 	-4.8382303e-06 	0
0.62852853 	0.00018928657 	4.1590445e-08 	6574.1128 	0.003938525 	0.071502557 	-3.8251845e-06 	0
0.63063063 	0.00018596575 	3.5097495e-08 	6908.9366 	0.0039365506 	0.071444386 	-2.8121388e-06 	0
0.63273273 	0.00018264493 	2.8604545e-08 	7243.7604 	0.0039345762 	0.071386216 	-1.799093e-06 	0
0.63483483 	0.00018142298 	2.6031221e-08 	7379.7454 	0.0039316201 	0.071369203 	-1.1911927e-06 	0
0.63693694 	0.00018517677 	3.2744398e-08 	7044.9168 	0.0039263397 	0.071450228 	-1.5252292e-06 	0
0.63903904 	0.00018893056 	3.9457575e-08 	6710.0881 	0.0039210594 	0.071531254 	-1.8592657e-06 	0
0.64114114 	0.00019268434 	4.6170753e-08 	6375.2595 	0.003915779 	0.071612279 	-2.1933022e-06 	0
0.64324324 	0.00019643813 	5.288393e-08 	6040.4308 	0.0039104986 	0.071693304 	-2.5273386e-06 	0
0.64534535 	0.00019497368 	5.0108359e-08 	6179.498 	0.0039053458 	0.071670534 	-2.3041567e-06 	0
0.64744745 	0.00019146351 	4.3612895e-08 	6504.3477 	0.0039002429 	0.071607073 	-1.8625274e-06 	0
0.64954955 	0.00018795334 	3.711743e-08 	6829.1973 	0.0038951401 	0.071543611 	-1.420898e-06 	0
0.65165165 	0.00018444317 	3.0621966e-08 	7154.0469 	0.0038900372 	0.07148015 	-9.792686e-07 	0
0.65375375 	0.00018095779 	2.4171881e-08 	7476.6271 	0.0038849267 	0.071417132 	-5.4072451e-07 	0