/*--------------------------------*- C++ -*----------------------------------*\
| =========                 |                                                 |
| \\      /  F ield         | OpenFOAM: The Open Source CFD Toolbox           |
|  \\    /   O peration     | Version:  2206                                  |
|   \\  /    A nd           | Website:  www.openfoam.com                      |
|    \\/     M anipulation  |                                                 |
\*---------------------------------------------------------------------------*/
FoamFile
{
    version     2.0;
    format      ascii;
    arch        "LSB;label=32;scalar=64";
    class       volScalarField;
    location    "1200";
    object      epsilon;
}
// * * * * * * * * * * * * * * * * * * * * * * * * * * * * * * * * * * * * * //

dimensions      [0 2 -3 0 0 0 0];

internalField   nonuniform List<scalar> 
7480
(
5.7736132
15.518519
18.081266
15.977779
12.855151
10.355663
8.6690825
7.5166084
6.6701451
6.00582
5.4669394
5.0253657
4.6620989
4.3620899
4.1131368
3.9049558
3.7298973
3.5821714
3.4565322
3.3493843
3.2561832
3.1742238
3.1012189
3.0353184
2.9752922
2.9201397
2.8691632
2.8216898
2.7771269
2.7349849
2.69498
2.6569169
2.6205901
2.5858291
2.552445
2.5203412
2.4892766
2.4591963
2.4300174
2.4016424
2.3740012
2.3470305
2.3206817
2.2949215
2.2697116
2.2450235
2.220821
2.1970665
2.1737383
2.1508127
2.1282712
2.106101
2.0842866
2.0628192
2.041684
2.0208702
2.0003688
1.9801663
1.9602502
1.9406114
1.9212475
1.9021541
1.8833243
1.8647523
1.8464332
1.8283623
1.8105322
1.7929372
1.7755733
1.7584369
1.7415237
1.7248293
1.7083501
1.6920831
1.6760243
1.6601694
1.6445144
1.6290557
1.6137896
1.5987125
1.5838206
1.5691101
1.5545772
1.5402175
1.5260268
1.5119998
1.4981316
1.4844145
1.4708435
1.4574036
1.4440951
1.4308738
1.4177797
1.4046415
1.3917049
1.3782802
1.3653659
1.3505629
1.3387439
1.3162168
0.34606239
1.598897
2.8405332
3.2971581
3.1718949
2.8635309
2.5625632
2.3181615
2.1195319
1.9495296
1.8012193
1.6730122
1.5635286
1.4705894
1.3917686
1.3243809
1.2666258
1.2171375
1.1745928
1.1377137
1.1053795
1.0766855
1.0508961
1.0274733
1.006054
0.98632849
0.96807752
0.95106112
0.93507719
0.91996687
0.90563454
0.8920114
0.87902636
0.86661778
0.85471328
0.84328363
0.83223625
0.82155529
0.8112134
0.80117464
0.79141083
0.78190038
0.77262562
0.76357235
0.754727
0.74607811
0.73761167
0.72931469
0.72117771
0.7131925
0.70535229
0.69765141
0.69008418
0.68264629
0.67533234
0.66813831
0.66106024
0.65409315
0.64723209
0.64047387
0.63381701
0.6272597
0.62079916
0.614433
0.6081593
0.60197609
0.59588056
0.58987045
0.58394425
0.57810045
0.57233736
0.56665323
0.56104662
0.55551639
0.55006092
0.54467858
0.53936787
0.53412743
0.52895587
0.52385184
0.51881396
0.51384083
0.50893105
0.50408312
0.49929555
0.4945666
0.48989454
0.48527712
0.48071235
0.47619637
0.47172786
0.46729673
0.46290871
0.45852723
0.45419728
0.44977515
0.44545095
0.4407089
0.43666802
0.42937733
0.010411128
0.063511954
0.16370409
0.28148187
0.38476206
0.47599723
0.55956596
0.63106997
0.6868264
0.72818495
0.75674228
0.77326703
0.77907722
0.77640151
0.76782312
0.75573159
0.74179375
0.72700372
0.71194863
0.69695848
0.68224769
0.66794876
0.65411702
0.64080659
0.62805773
0.61585995
0.60426039
0.59319115
0.58260412
0.57245881
0.56274125
0.55343341
0.54450938
0.53594451
0.5277014
0.51977283
0.51210582
0.50469924
0.49753723
0.49059888
0.48386707
0.47732874
0.47097278
0.46478881
0.45876736
0.45289982
0.44717604
0.44158734
0.43612645
0.43078713
0.42556417
0.42045244
0.41544719
0.41054421
0.40573902
0.40102812
0.39640777
0.39187393
0.38742274
0.38305149
0.37875819
0.37454075
0.37039665
0.36632359
0.36231969
0.35838301
0.3545112
0.35070233
0.34695492
0.34326746
0.3396384
0.3360662
0.3325495
0.32908714
0.32567771
0.32231983
0.31901226
0.31575381
0.31254332
0.30937965
0.30626169
0.30318831
0.30015843
0.29717091
0.29422462
0.29131837
0.28845093
0.28562088
0.28282682
0.28006673
0.27733912
0.27463992
0.27196899
0.26931382
0.26668427
0.26403414
0.26141192
0.25863844
0.25615994
0.25184148
0.00038707536
0.0025339108
0.009088316
0.019226152
0.032036659
0.047153154
0.066748027
0.090996867
0.12645742
0.1701569
0.2172517
0.26305659
0.30619662
0.34564901
0.3801614
0.40862132
0.43054584
0.44620768
0.4564537
0.46233658
0.46483115
0.46473248
0.46266256
0.4591117
0.45448523
0.44909052
0.44318975
0.43696752
0.4305523
0.42404493
0.41752238
0.41104314
0.40464752
0.39836626
0.39220953
0.38619944
0.38030861
0.37456551
0.36896569
0.36350784
0.35818914
0.35300674
0.34795764
0.34303812
0.33824429
0.33357203
0.32901543
0.32456993
0.32023123
0.31599536
0.31185884
0.30781795
0.30386923
0.30000931
0.29623462
0.29254222
0.28892892
0.28539147
0.28192674
0.27853234
0.27520627
0.27194645
0.2687506
0.26561661
0.26254262
0.25952674
0.25656691
0.25366135
0.25080858
0.24800712
0.24525547
0.24255217
0.23989591
0.23728547
0.23471953
0.23219683
0.22971617
0.22727644
0.22487655
0.22251544
0.22019206
0.21790541
0.21565449
0.2134383
0.21125586
0.20910615
0.20698813
0.20490072
0.20284273
0.20081284
0.19880963
0.19683107
0.19487544
0.19293821
0.19101863
0.18910247
0.18719484
0.1852288
0.18341803
0.18034
4.279813e-05
0.00015127987
0.00054226122
0.0014299274
0.0029230645
0.0049377922
0.0074762872
0.010698234
0.015222016
0.021925226
0.031455902
0.046272403
0.066519334
0.090990479
0.11834409
0.14739914
0.1772573
0.20674146
0.23441722
0.25894077
0.2794464
0.29570767
0.30801151
0.31689548
0.32293821
0.32665082
0.32848082
0.32881452
0.3279789
0.32623839
0.32380279
0.32084148
0.3174899
0.31385491
0.31001862
0.30605521
0.30199725
0.297893
0.29377478
0.28966515
0.28558172
0.28153919
0.27754879
0.27361866
0.26975499
0.26596221
0.26224195
0.25859504
0.25502179
0.25152241
0.24809694
0.2447447
0.24146468
0.23825566
0.235116
0.23204423
0.22903854
0.22609694
0.22321733
0.2203981
0.21763784
0.21493504
0.21228796
0.20969498
0.20715456
0.20466514
0.20222502
0.19983273
0.19748698
0.19518645
0.19292985
0.19071586
0.1885433
0.18641104
0.18431792
0.18226279
0.18024457
0.17826224
0.1763148
0.17440129
0.17252076
0.17067229
0.16885497
0.16706792
0.16531024
0.16358106
0.16187947
0.16020457
0.15855535
0.15693083
0.15532972
0.15375094
0.15219234
0.1506528
0.14912777
0.14761628
0.1461075
0.14458161
0.14315481
0.14075768
1.8298796e-05
3.1994053e-05
6.8834862e-05
0.00014867409
0.00029976037
0.00054909594
0.00092160705
0.0014386825
0.0021340193
0.003081509
0.0043744239
0.0062697383
0.0090827041
0.013135547
0.019268143
0.028557685
0.041044585
0.056746769
0.075183056
0.095806121
0.11788394
0.14036827
0.16199407
0.18161238
0.19848854
0.21238421
0.22343716
0.23196536
0.23832429
0.24284743
0.24583731
0.24756585
0.24826886
0.24814366
0.24735289
0.24603775
0.24430093
0.24223415
0.23991306
0.23739768
0.23473653
0.23196929
0.22912843
0.22624037
0.2233264
0.22040372
0.21748598
0.21458362
0.21170491
0.20885651
0.20604381
0.20327077
0.20054053
0.19785537
0.1952168
0.19262612
0.19008364
0.18758927
0.18514265
0.18274356
0.18039168
0.17808652
0.1758273
0.17361316
0.1714433
0.16931676
0.16723245
0.16518937
0.16318661
0.16122323
0.15929822
0.15741056
0.15555933
0.15374363
0.15196249
0.15021496
0.14850015
0.14681717
0.14516518
0.14354333
0.14195082
0.14038683
0.13885057
0.13734127
0.13585815
0.13440045
0.13296738
0.13155818
0.130172
0.12880806
0.12746524
0.12614295
0.12483902
0.12355393
0.1222819
0.12102772
0.1197752
0.1185252
0.11735138
0.11538388
1.4139007e-05
1.7819625e-05
2.5326512e-05
3.886632e-05
6.1550454e-05
9.7342779e-05
0.00015146216
0.00023048391
0.00034261033
0.00049987904
0.00071718305
0.0010202405
0.001448791
0.0020528777
0.0029206354
0.0042185602
0.006138695
0.0089041513
0.013201238
0.019684823
0.028611792
0.040179395
0.054081934
0.06996327
0.08717466
0.10478258
0.12173764
0.13716562
0.15056296
0.16179736
0.17097446
0.17829729
0.18398919
0.18827027
0.19135012
0.19342422
0.19465793
0.1951941
0.19515618
0.19464816
0.19375707
0.19255568
0.19110478
0.18945529
0.18764953
0.18572259
0.18370377
0.18161699
0.17948185
0.17731459
0.17512861
0.17293495
0.17074263
0.16855902
0.16639013
0.16424088
0.16211512
0.16001577
0.157945
0.15590459
0.15389598
0.15192021
0.1499779
0.14806943
0.14619506
0.14435479
0.14254832
0.14077538
0.13903567
0.13732879
0.13565423
0.13401144
0.13239982
0.13081881
0.12926776
0.12774601
0.1262529
0.12478778
0.12334999
0.12193888
0.1205538
0.1191941
0.11785913
0.11654825
0.11526082
0.1139962
0.11275373
0.11153278
0.11033263
0.10915268
0.10799197
0.10685019
0.10572534
0.10461861
0.10352416
0.10244906
0.10137631
0.1003153
0.099321727
0.097651062
1.2917095e-05
1.4457413e-05
1.7042152e-05
2.1070603e-05
2.7057071e-05
3.5626489e-05
4.7579121e-05
6.3991229e-05
8.6279459e-05
0.0001164619
0.00015729095
0.00021279138
0.00028911233
0.00039483345
0.00054237538
0.00075256553
0.0010560788
0.001490428
0.0021310923
0.0031036135
0.0045723017
0.0067276062
0.0102019
0.015420247
0.022676823
0.032092762
0.043464901
0.056430554
0.070356254
0.084402048
0.097746029
0.1098002
0.12028622
0.12916686
0.13653019
0.14251298
0.14726596
0.15094357
0.15369537
0.15565768
0.15695119
0.15768151
0.15794004
0.1578054
0.15734473
0.156615
0.1556648
0.15453507
0.15326019
0.15186908
0.15038596
0.14883127
0.1472221
0.14557281
0.14389548
0.14220016
0.14049531
0.13878786
0.13708349
0.13538689
0.13370197
0.13203197
0.13037948
0.12874652
0.12713478
0.1255456
0.12397989
0.12243833
0.12092148
0.1194297
0.11796318
0.11652196
0.11510597
0.1137151
0.11234914
0.11100778
0.10969072
0.1083976
0.10712803
0.1058816
0.10465789
0.10345643
0.10227677
0.10111844
0.09998094
0.098863789
0.097766471
0.096688493
0.095629277
0.094588374
0.09356498
0.092558969
0.091568596
0.09059533
0.089633783
0.088691609
0.087753026
0.086830025
0.085971777
0.084519824
1.2333993e-05
1.3232089e-05
1.4449948e-05
1.6112055e-05
1.8376892e-05
2.1415446e-05
2.5404037e-05
3.0558735e-05
3.7151168e-05
4.554671e-05
5.6242644e-05
6.9931015e-05
8.7618208e-05
0.00011074412
0.00014136471
0.00018259831
0.00023928539
0.00031805473
0.00042933645
0.00059034883
0.00082810567
0.0011759855
0.0017088185
0.0025402534
0.0038158656
0.0058032587
0.0090043864
0.013730135
0.020249223
0.02851537
0.038348374
0.049326217
0.060805322
0.072075837
0.082563257
0.091936476
0.10008127
0.10701182
0.11280061
0.11754637
0.12136082
0.12435763
0.12664427
0.12831909
0.12947042
0.13017623
0.13050492
0.13051584
0.1302601
0.12978155
0.12911757
0.12830015
0.12735655
0.12630994
0.12518011
0.12398381
0.12273534
0.1214468
0.12012838
0.11878867
0.11743491
0.11607324
0.1147088
0.11334586
0.11198803
0.11063833
0.10929926
0.10797283
0.1066607
0.10536426
0.1040846
0.10282256
0.10157877
0.10035371
0.099147736
0.097961048
0.096793762
0.09564591
0.094517458
0.093408304
0.092318299
0.091247247
0.090194912
0.089161032
0.088145309
0.087147431
0.086167051
0.085203829
0.084257347
0.083327298
0.082413054
0.081514622
0.080630532
0.079762336
0.078905291
0.078066852
0.077233224
0.076416186
0.075663567
0.07438077
1.1916916e-05
1.2557937e-05
1.3299423e-05
1.4165352e-05
1.5224623e-05
1.6555445e-05
1.8240143e-05
2.0356433e-05
2.2978859e-05
2.6194739e-05
3.011694e-05
3.4897014e-05
4.0731739e-05
4.7893532e-05
5.6774422e-05
6.7928528e-05
8.2178407e-05
0.00010068794
0.00012515847
0.00015820623
0.00020406125
0.00026851425
0.00036154286
0.0005000864
0.00070933575
0.0010294006
0.00153863
0.0023522861
0.003609147
0.0057020242
0.008959302
0.013650923
0.019862445
0.027499878
0.03627542
0.045691436
0.055152397
0.064142267
0.072334487
0.079586179
0.085871103
0.091221599
0.095700307
0.099386814
0.10236675
0.10472412
0.10653812
0.10788147
0.10881951
0.10941021
0.10970441
0.10974651
0.10957509
0.1092235
0.10872055
0.108091
0.10735621
0.10653455
0.10564175
0.10469127
0.10369456
0.10266144
0.10160028
0.10051821
0.099421276
0.098314698
0.097202905
0.096089609
0.094977954
0.093870607
0.092769807
0.091677414
0.090594958
0.089523708
0.088464709
0.087418796
0.086386639
0.085368761
0.084365566
0.083377348
0.082404307
0.081446564
0.080504168
0.079577113
0.078665335
0.077768734
0.07688716
0.076020453
0.075168371
0.074330761
0.073507182
0.07269776
0.07190131
0.071119375
0.070347918
0.069593836
0.068845543
0.068113311
0.067445792
0.066298952
1.156418e-05
1.2060652e-05
1.2593508e-05
1.3146033e-05
1.3744204e-05
1.4432682e-05
1.526165e-05
1.6276636e-05
1.7513649e-05
1.9003619e-05
2.0778848e-05
2.2875853e-05
2.5352407e-05
2.8286806e-05
3.1772477e-05
3.5935951e-05
4.0956025e-05
4.7085298e-05
5.4643098e-05
6.410583e-05
7.6214519e-05
9.20127e-05
0.00011309405
0.00014203889
0.00018288657
0.00024184167
0.00032982254
0.00046566408
0.00067505439
0.001012895
0.0015682346
0.0024551994
0.0039348339
0.0063280727
0.0098920361
0.014756461
0.020880581
0.028055212
0.035878304
0.043848679
0.051520967
0.058602961
0.064953536
0.070529492
0.075340359
0.079425867
0.082843481
0.08565812
0.087935597
0.089739406
0.091128715
0.09215753
0.092874369
0.093322306
0.09353937
0.09355884
0.09340984
0.093117781
0.092704757
0.092189881
0.091589635
0.090918258
0.090188041
0.089409569
0.088591946
0.087743044
0.086869666
0.085977627
0.085071904
0.084156773
0.083235895
0.082312395
0.081388925
0.080467732
0.079550733
0.078639542
0.077735515
0.076839789
0.075953309
0.075076855
0.074211061
0.073356436
0.072513376
0.071682188
0.070863091
0.070056239
0.069261717
0.068479575
0.067709772
0.066952333
0.066207015
0.065474068
0.064752596
0.0640441
0.063345248
0.062662247
0.061985677
0.061323813
0.060726774
0.059692747
1.1253226e-05
1.1647188e-05
1.2060525e-05
1.2465289e-05
1.2864251e-05
1.3279113e-05
1.3741166e-05
1.4282497e-05
1.4929555e-05
1.5702661e-05
1.6618589e-05
1.7692059e-05
1.8940839e-05
2.038844e-05
2.206314e-05
2.3999925e-05
2.624459e-05
2.8854185e-05
3.193349e-05
3.5605722e-05
4.0036483e-05
4.5455776e-05
5.2198476e-05
6.0717653e-05
7.1736763e-05
8.6340234e-05
0.0001062432
0.00013437882
0.00017503572
0.00023585934
0.00033073834
0.0004802808
0.00072431313
0.0011343955
0.0018077262
0.0029456559
0.0048332786
0.0077072626
0.011698351
0.016791456
0.022815752
0.02942635
0.036196158
0.042750967
0.048845523
0.054356078
0.059237037
0.063487442
0.067133808
0.070218841
0.072792509
0.074906821
0.076612788
0.077958563
0.07898859
0.079743159
0.080258463
0.080566761
0.080696617
0.080673156
0.080518356
0.08025142
0.079889104
0.079445998
0.078934773
0.078366454
0.077750645
0.077095659
0.076408683
0.075695936
0.074962803
0.074213939
0.073453353
0.072684492
0.071910332
0.071133433
0.070355989
0.06957988
0.068806713
0.068037858
0.067274474
0.066517539
0.065767871
0.065026152
0.064292942
0.063568698
0.062853781
0.062148491
0.061453021
0.060767597
0.060092196
0.059427208
0.058772029
0.058128121
0.057492827
0.056871651
0.056257179
0.055655617
0.055118459
0.054180658
1.0975371e-05
1.1290459e-05
1.1620026e-05
1.1937852e-05
1.2237173e-05
1.2525447e-05
1.2819593e-05
1.3140431e-05
1.3507558e-05
1.3937333e-05
1.4443051e-05
1.503527e-05
1.5723309e-05
1.651697e-05
1.7427357e-05
1.8467366e-05
1.9652734e-05
2.1001463e-05
2.2542591e-05
2.4313881e-05
2.6362422e-05
2.8749382e-05
3.154963e-05
3.4908144e-05
3.8999324e-05
4.4062219e-05
5.0450448e-05
5.869808e-05
6.9586083e-05
8.4372856e-05
0.00010524777
0.00013560018
0.00018125071
0.00025313582
0.00036840193
0.00055934528
0.0008870725
0.0014371212
0.0023869706
0.0039848431
0.0064450667
0.0098763476
0.014268659
0.019462182
0.025143665
0.030946223
0.036563705
0.041800981
0.046557818
0.050793938
0.054505565
0.057712287
0.060447086
0.062749285
0.064660472
0.066221863
0.067472819
0.068450001
0.06918698
0.069714099
0.070058509
0.070244365
0.070293053
0.070223444
0.070052119
0.069793624
0.069460728
0.069064597
0.068614968
0.068120332
0.067588097
0.067024715
0.066435805
0.065826237
0.065200253
0.064561536
0.063913282
0.06325826
0.062598869
0.061937182
0.061274989
0.060613826
0.059955016
0.059299688
0.058648804
0.058003184
0.057363514
0.056730386
0.056104264
0.05548561
0.054874645
0.054271924
0.05367714
0.053091741
0.0525137
0.051947879
0.051388652
0.050840315
0.050355289
0.049501615
1.07236e-05
1.0977228e-05
1.1242862e-05
1.1499579e-05
1.1738452e-05
1.1960062e-05
1.2172212e-05
1.2386774e-05
1.2616518e-05
1.2873501e-05
1.3168509e-05
1.3510645e-05
1.3907473e-05
1.4365612e-05
1.489141e-05
1.54914e-05
1.617274e-05
1.6943196e-05
1.7812995e-05
1.8795682e-05
1.9908203e-05
2.1172024e-05
2.2611379e-05
2.4265939e-05
2.61877e-05
2.8443293e-05
3.111625e-05
3.4352322e-05
3.8360694e-05
4.3414783e-05
4.9954891e-05
5.8609662e-05
7.0374279e-05
8.7016534e-05
0.00011137327
0.00014828032
0.00020708411
0.00030279236
0.00046446875
0.00074784435
0.0012312428
0.0020885549
0.0035352702
0.0057621946
0.0088418355
0.012754762
0.017332291
0.022282767
0.027294144
0.032124039
0.036624031
0.040717467
0.044372814
0.047587606
0.050377962
0.052770489
0.054797078
0.056491606
0.057887833
0.059018149
0.059912852
0.060599818
0.061104374
0.061449334
0.061655092
0.061739787
0.061719508
0.061608481
0.06141924
0.061162807
0.060848867
0.060485924
0.060081435
0.059641918
0.059173084
0.058679926
0.058166809
0.057637545
0.057095464
0.056543467
0.055984083
0.055419513
0.054851667
0.054282205
0.053712561
0.05314398
0.05257753
0.052014145
0.051454604
0.050899639
0.05034975
0.049805684
0.049267446
0.0487365
0.048211412
0.047696484
0.047187668
0.046687602
0.046249056
0.045470625
1.0491718e-05
1.0697458e-05
1.0913227e-05
1.1123208e-05
1.1319121e-05
1.1498952e-05
1.1665782e-05
1.1825816e-05
1.1986472e-05
1.2155485e-05
1.2340559e-05
1.2548903e-05
1.2786949e-05
1.3060328e-05
1.3374065e-05
1.3732818e-05
1.4141083e-05
1.4603344e-05
1.512456e-05
1.5710705e-05
1.6369043e-05
1.7108606e-05
1.7939671e-05
1.8876081e-05
1.9936281e-05
2.1144065e-05
2.2527568e-05
2.4128101e-05
2.6005613e-05
2.8237294e-05
3.0923838e-05
3.42476e-05
3.8455611e-05
4.3915715e-05
5.1200539e-05
6.1143973e-05
7.529385e-05
9.6168316e-05
0.00012815518
0.00017992514
0.00026539376
0.00041333751
0.00067791994
0.0011348429
0.0019668968
0.0033605556
0.0054660916
0.0083348426
0.011914331
0.01601584
0.020369013
0.024717688
0.028878815
0.032744174
0.036257838
0.039397813
0.04216465
0.04457286
0.046644869
0.048407175
0.049887794
0.051114653
0.052114576
0.052912737
0.05353235
0.053994566
0.054318504
0.054521332
0.054618392
0.05462333
0.054548257
0.054403895
0.054199721
0.053944089
0.05364436
0.05330701
0.05293774
0.052541556
0.052122857
0.051685503
0.051232881
0.050767957
0.05029333
0.049811271
0.049323767
0.048832556
0.04833915
0.04784488
0.047350886
0.046858218
0.046367686
0.045880269
0.045396295
0.04491729
0.044442379
0.043975401
0.043513682
0.043058501
0.042662378
0.041952699
1.027471e-05
1.0443023e-05
1.0619689e-05
1.0792921e-05
1.0955758e-05
1.1105459e-05
1.1242936e-05
1.1371361e-05
1.1494834e-05
1.1617871e-05
1.1745317e-05
1.188214e-05
1.20332e-05
1.2203077e-05
1.2396014e-05
1.2615922e-05
1.2866396e-05
1.3150798e-05
1.3472441e-05
1.3834805e-05
1.4241746e-05
1.469776e-05
1.5207961e-05
1.5778512e-05
1.6417182e-05
1.7133907e-05
1.7940565e-05
1.885243e-05
1.9890436e-05
2.1082182e-05
2.2460793e-05
2.4078007e-05
2.6005598e-05
2.834033e-05
3.1218935e-05
3.4886771e-05
3.967857e-05
4.6122089e-05
5.4996922e-05
6.7762037e-05
8.6789109e-05
0.00011641538
0.00016533072
0.00024726137
0.00039367683
0.00065767075
0.0011333425
0.0019930601
0.0034019975
0.0054661809
0.0082080696
0.011534468
0.015239942
0.019083382
0.022864777
0.026452136
0.029769365
0.032777971
0.035464845
0.037833569
0.039897902
0.041677445
0.043194709
0.044473224
0.045536295
0.046406259
0.047104062
0.047649062
0.048058946
0.048349744
0.048535891
0.048630326
0.048644605
0.048589014
0.048472685
0.048303715
0.048089272
0.047835695
0.047548582
0.047232875
0.046892931
0.046532593
0.046155241
0.045763854
0.045361049
0.044949131
0.044530122
0.04410581
0.04367775
0.043247358
0.042815792
0.042384304
0.041953569
0.041525218
0.04109891
0.040678124
0.04026138
0.039848905
0.039492386
0.038846818
1.0068758e-05
1.020762e-05
1.0353458e-05
1.0497496e-05
1.0634067e-05
1.0760381e-05
1.0876363e-05
1.0983647e-05
1.1084546e-05
1.1181652e-05
1.1277817e-05
1.1376116e-05
1.1479779e-05
1.1592095e-05
1.1716336e-05
1.1855684e-05
1.2013145e-05
1.2191537e-05
1.239354e-05
1.2621759e-05
1.2878815e-05
1.3167483e-05
1.3490768e-05
1.3852031e-05
1.4255192e-05
1.4705024e-05
1.5207238e-05
1.5768759e-05
1.6398416e-05
1.7107719e-05
1.7910527e-05
1.8825561e-05
1.9878332e-05
2.1102599e-05
2.2541312e-05
2.4263529e-05
2.6363947e-05
2.8969009e-05
3.2304127e-05
3.6704903e-05
4.2680047e-05
5.1014781e-05
6.3196232e-05
8.1572886e-05
0.00011093814
0.00016008735
0.00024531631
0.00040199332
0.00068477821
0.0012136536
0.0021461366
0.0036194905
0.0056971685
0.0083584998
0.011467726
0.014818313
0.018210376
0.021497216
0.024587281
0.027428919
0.0299978
0.032288189
0.034306236
0.036065314
0.037582847
0.038878184
0.039971219
0.040881515
0.041627772
0.042227514
0.042696936
0.043050851
0.043302711
0.043464652
0.043547574
0.043561234
0.043514343
0.043414657
0.043269078
0.043083729
0.042864043
0.042614834
0.042340362
0.042044397
0.041730271
0.04140093
0.041058977
0.040706719
0.040346182
0.039979198
0.039607319
0.039232115
0.038854632
0.038476657
0.038098364
0.037722975
0.03735005
0.036979056
0.036660323
0.036075701
9.8710285e-06
9.9865252e-06
1.0107877e-05
1.0228542e-05
1.0343959e-05
1.0451526e-05
1.0550691e-05
1.064226e-05
1.0727598e-05
1.0808262e-05
1.0885954e-05
1.0962514e-05
1.1039921e-05
1.1120294e-05
1.120588e-05
1.1299008e-05
1.1402008e-05
1.1517164e-05
1.1646699e-05
1.1792764e-05
1.1957448e-05
1.2142827e-05
1.2351019e-05
1.2584236e-05
1.2844873e-05
1.3135632e-05
1.3459631e-05
1.3820509e-05
1.4222634e-05
1.4671465e-05
1.5173609e-05
1.5737351e-05
1.6373444e-05
1.7095935e-05
1.7922187e-05
1.8876542e-05
1.9992686e-05
2.1312812e-05
2.2902458e-05
2.4856874e-05
2.7305221e-05
3.0461865e-05
3.4683749e-05
4.0480955e-05
4.8722411e-05
6.0947239e-05
7.9820656e-05
0.00011096311
0.00016389435
0.00025964384
0.00043782536
0.00076844571
0.0013880478
0.0024356431
0.0040039017
0.0061188293
0.008705754
0.011600544
0.01461613
0.017600102
0.020450537
0.023106064
0.025533695
0.027720122
0.029665062
0.031376462
0.032867202
0.034152854
0.035250177
0.036176137
0.036947269
0.037579304
0.038086948
0.03848378
0.038782222
0.038993558
0.039127985
0.039194679
0.039201872
0.039156929
0.039066426
0.038936225
0.038771544
0.038577023
0.038356783
0.038114488
0.037853384
0.037576363
0.037285981
0.036984539
0.036674029
0.036356386
0.036033056
0.035706036
0.035376005
0.035046028
0.034716571
0.034386617
0.034104672
0.033579047
9.6794415e-06
9.7762427e-06
9.877987e-06
9.9797829e-06
1.0077991e-05
1.0170276e-05
1.0255853e-05
1.0335037e-05
1.0408641e-05
1.0477652e-05
1.0543154e-05
1.0606292e-05
1.0668276e-05
1.0730406e-05
1.0794099e-05
1.08609e-05
1.0932438e-05
1.1010399e-05
1.1096502e-05
1.1192473e-05
1.1300016e-05
1.142081e-05
1.1556525e-05
1.1708841e-05
1.1879481e-05
1.2070261e-05
1.2283161e-05
1.2520378e-05
1.2784415e-05
1.3078226e-05
1.3405317e-05
1.3769907e-05
1.4177209e-05
1.4633833e-05
1.5147911e-05
1.572992e-05
1.6393923e-05
1.7157509e-05
1.8044762e-05
1.9089624e-05
2.033637e-05
2.1849416e-05
2.3729428e-05
2.6109538e-05
2.9221059e-05
3.3440807e-05
3.9330223e-05
4.790925e-05
6.0863004e-05
8.156772e-05
0.00011658992
0.00017815322
0.00029411209
0.00050931441
0.00092535307
0.0016725421
0.0028610064
0.0045425161
0.0066889709
0.009178261
0.011844103
0.014536318
0.017147648
0.01961017
0.021884546
0.023951595
0.025805839
0.027450711
0.028895218
0.030151628
0.031233895
0.032156598
0.032934261
0.033580909
0.034109809
0.034533324
0.034862851
0.035108814
0.035280688
0.035387043
0.035435601
0.035433303
0.035386368
0.035300361
0.035180254
0.035030485
0.034855011
0.034657363
0.034440683
0.034207796
0.033961183
0.033703188
0.033435693
0.033160956
0.03288016
0.032596304
0.032310657
0.03202197
0.031776504
0.031308963
9.4924794e-06
9.5741999e-06
9.6601151e-06
9.7465554e-06
9.830633e-06
9.9103056e-06
9.9846942e-06
1.0053806e-05
1.0118093e-05
1.0178195e-05
1.023484e-05
1.0288796e-05
1.0340849e-05
1.0391816e-05
1.0442579e-05
1.0494106e-05
1.0547451e-05
1.0603749e-05
1.0664213e-05
1.0730117e-05
1.0802772e-05
1.0883502e-05
1.0973643e-05
1.1074536e-05
1.118753e-05
1.1314004e-05
1.1455391e-05
1.1613213e-05
1.1789114e-05
1.1984932e-05
1.2202757e-05
1.2445007e-05
1.2714543e-05
1.301484e-05
1.3350116e-05
1.3725566e-05
1.4147847e-05
1.4625283e-05
1.5168544e-05
1.5791952e-05
1.6514041e-05
1.7359397e-05
1.8363789e-05
1.9573658e-05
2.1058414e-05
2.2926406e-05
2.5319906e-05
2.8513769e-05
3.2913259e-05
3.9207927e-05
4.85849e-05
6.3134206e-05
8.7427306e-05
0.00012932925
0.00020724487
0.00035518377
0.00064128685
0.0011811735
0.0020889145
0.0034320177
0.0052157581
0.0073546829
0.0097058093
0.012126408
0.014508115
0.016779387
0.01889671
0.02083667
0.022589814
0.024155976
0.025540963
0.026754228
0.027807271
0.028712547
0.029482742
0.030130303
0.030667138
0.031104453
0.031452655
0.031721325
0.03191922
0.032054297
0.032133761
0.032164111
0.032151195
0.032100264
0.032016027
0.031902706
0.031764075
0.031603533
0.03142409
0.03122855
0.031019266
0.030798804
0.030568858
0.03033245
0.030091566
0.029844949
0.029636253
0.029226774
9.3090452e-06
9.3785078e-06
9.4515458e-06
9.5253944e-06
9.5977731e-06
9.66693e-06
9.7319751e-06
9.7927254e-06
9.8493883e-06
9.9023618e-06
9.9521451e-06
9.9992795e-06
1.0044315e-05
1.0087809e-05
1.0130334e-05
1.0172507e-05
1.0214993e-05
1.0258517e-05
1.0303873e-05
1.0351929e-05
1.0403613e-05
1.0459898e-05
1.0521798e-05
1.0590353e-05
1.0666625e-05
1.0751698e-05
1.0846682e-05
1.0952728e-05
1.1071041e-05
1.1202908e-05
1.1349734e-05
1.1513073e-05
1.169469e-05
1.1896629e-05
1.2121301e-05
1.2371576e-05
1.2650973e-05
1.2963818e-05
1.3315474e-05
1.3712807e-05
1.4164588e-05
1.4681964e-05
1.5280099e-05
1.5978642e-05
1.6804062e-05
1.7795387e-05
1.9001952e-05
2.0504637e-05
2.2422364e-05
2.4919722e-05
2.8334e-05
3.3130398e-05
4.0206943e-05
5.0984838e-05
6.8535637e-05
9.8641879e-05
0.00015343554
0.00025887239
0.00046167739
0.00085994701
0.0015626174
0.0026460732
0.0041369989
0.0059798369
0.0080543844
0.010228332
0.012395421
0.014482967
0.016445199
0.018255979
0.019903018
0.021383405
0.022700386
0.023861079
0.024874889
0.02575241
0.026504691
0.027142743
0.027677228
0.028118267
0.028475331
0.028757193
0.028971911
0.029126845
0.029228685
0.029283491
0.029296734
0.029273352
0.029217784
0.029134037
0.029025693
0.02889605
0.028747968
0.028584369
0.028407467
0.028220386
0.02802576
0.027822532
0.027651415
0.027300777
9.1283588e-06
9.1877855e-06
9.250272e-06
9.3137241e-06
9.3763466e-06
9.4366594e-06
9.4938127e-06
9.5475135e-06
9.5978021e-06
9.6449036e-06
9.6891514e-06
9.730933e-06
9.7706517e-06
9.8087121e-06
9.8455212e-06
9.8814977e-06
9.917078e-06
9.9527269e-06
9.988953e-06
1.0026317e-05
1.0065432e-05
1.0106965e-05
1.0151629e-05
1.0200183e-05
1.0253422e-05
1.0312172e-05
1.0377294e-05
1.0449676e-05
1.0530243e-05
1.0619967e-05
1.0719874e-05
1.0831069e-05
1.0954756e-05
1.1092277e-05
1.1245154e-05
1.1415136e-05
1.1604283e-05
1.1815055e-05
1.2050414e-05
1.2314014e-05
1.261041e-05
1.2945261e-05
1.3325879e-05
1.3761638e-05
1.4264542e-05
1.4851228e-05
1.554277e-05
1.6369206e-05
1.7374181e-05
1.8612717e-05
2.0183317e-05
2.2218326e-05
2.494431e-05
2.8739442e-05
3.4254915e-05
4.2588799e-05
5.5840355e-05
7.844265e-05
0.00011868424
0.00019652171
0.0003458896
0.00064676803
0.0011993698
0.0020858684
0.0033443319
0.0049413505
0.006777011
0.0087307958
0.010700956
0.012615698
0.014428591
0.016112038
0.017651896
0.019043269
0.020287427
0.021389603
0.02235745
0.023199964
0.023926758
0.024547564
0.025071911
0.025508926
0.025867206
0.026154761
0.026378988
0.026546671
0.026664004
0.026736621
0.026769627
0.026767654
0.026734874
0.026675115
0.026591764
0.02648814
0.026366991
0.02623161
0.026085229
0.025927172
0.025794906
0.025504604
8.9498795e-06
9.0010329e-06
9.0548149e-06
9.1096285e-06
9.1640638e-06
9.216885e-06
9.2673113e-06
9.3149947e-06
9.3598654e-06
9.4020239e-06
9.4416799e-06
9.4791057e-06
9.5145999e-06
9.548468e-06
9.5810164e-06
9.6125527e-06
9.6433863e-06
9.6738339e-06
9.7042308e-06
9.7349398e-06
9.7663569e-06
9.7989157e-06
9.8330905e-06
9.869398e-06
9.9083953e-06
9.9506782e-06
9.99688e-06
1.0047669e-05
1.0103749e-05
1.016586e-05
1.0234782e-05
1.031134e-05
1.0396418e-05
1.0490973e-05
1.0596052e-05
1.0712826e-05
1.0842618e-05
1.0986957e-05
1.114763e-05
1.1326763e-05
1.152693e-05
1.1751261e-05
1.2003647e-05
1.228898e-05
1.2613362e-05
1.2984812e-05
1.3413503e-05
1.3912816e-05
1.4501485e-05
1.5202808e-05
1.6052563e-05
1.7099182e-05
1.8414487e-05
2.0110902e-05
2.2355645e-05
2.5450953e-05
2.9884743e-05
3.6562665e-05
4.6975578e-05
6.4579393e-05
9.5459587e-05
0.00015479061
0.00027029376
0.00050423503
0.00094827013
0.0016852547
0.0027600427
0.0041549315
0.0057867125
0.0075464828
0.0093384067
0.011093104
0.012764753
0.014325334
0.01575969
0.017061596
0.01823086
0.019271235
0.02018894
0.020991626
0.021687663
0.022285656
0.02279412
0.023221276
0.02357492
0.023862357
0.024090361
0.024265178
0.024392531
0.024477652
0.024525297
0.024539831
0.024525181
0.024485093
0.024422852
0.024341983
0.024246272
0.024135583
0.024043851
0.023816023
8.7732475e-06
8.8175362e-06
8.8640911e-06
8.911685e-06
8.9592116e-06
9.005649e-06
9.0502991e-06
9.092796e-06
9.1330011e-06
9.1709269e-06
9.2066909e-06
9.2404764e-06
9.2725014e-06
9.302998e-06
9.3322032e-06
9.360355e-06
9.3876886e-06
9.4144374e-06
9.4408391e-06
9.4671411e-06
9.4936058e-06
9.5205149e-06
9.5481755e-06
9.5769247e-06
9.6071317e-06
9.6392003e-06
9.6735701e-06
9.7107168e-06
9.7511518e-06
9.7954225e-06
9.8441126e-06
9.8978431e-06
9.9572768e-06
1.0023124e-05
1.009615e-05
1.0177189e-05
1.0267163e-05
1.03671e-05
1.0478167e-05
1.0601709e-05
1.0739303e-05
1.0892817e-05
1.1064501e-05
1.1257111e-05
1.1474018e-05
1.1719474e-05
1.199882e-05
1.2318804e-05
1.2688442e-05
1.3119007e-05
1.3626095e-05
1.4230644e-05
1.4961311e-05
1.5859923e-05
1.6984036e-05
1.8426836e-05
2.0326522e-05
2.2915398e-05
2.6588397e-05
3.2089145e-05
4.0577901e-05
5.4721026e-05
7.9453042e-05
0.0001264846
0.00021884813
0.00040665089
0.00077249426
0.0013967144
0.0023274996
0.0035576247
0.0050169668
0.006607319
0.0082394725
0.009847537
0.011387276
0.012831081
0.014163457
0.0153774
0.016471704
0.017448995