/*--------------------------------*- C++ -*----------------------------------*\
| =========                 |                                                 |
| \\      /  F ield         | OpenFOAM: The Open Source CFD Toolbox           |
|  \\    /   O peration     | Version:  2206                                  |
|   \\  /    A nd           | Website:  www.openfoam.com                      |
|    \\/     M anipulation  |                                                 |
\*---------------------------------------------------------------------------*/
FoamFile
{
    version     2.0;
    format      ascii;
    arch        "LSB;label=32;scalar=64";
    class       volScalarField;
    location    "1200";
    object      k;
}
// * * * * * * * * * * * * * * * * * * * * * * * * * * * * * * * * * * * * * //

dimensions      [0 2 -2 0 0 0 0];

internalField   nonuniform List<scalar> 
7480
(
0.032177627
0.062204573
0.068877073
0.063425872
0.054866479
0.047501542
0.042192767
0.038365185
0.03542797
0.03303475
0.031027899
0.029333779
0.027902552
0.026692303
0.025666803
0.024793268
0.024046635
0.023407444
0.022856875
0.022382045
0.021964889
0.02159475
0.021262358
0.020960066
0.02068281
0.020426418
0.020187999
0.019964692
0.019753932
0.019553583
0.019362439
0.019179693
0.019004467
0.018836034
0.018673562
0.01851665
0.018364182
0.01821594
0.018071561
0.017930605
0.017792759
0.01765774
0.017525335
0.017395402
0.017267772
0.017142326
0.017018901
0.016897323
0.0167775
0.016659327
0.016542724
0.016427639
0.016314006
0.016201793
0.016090936
0.01598139
0.01587312
0.015766067
0.015660174
0.015555403
0.015451753
0.015349209
0.015247744
0.015147336
0.015047969
0.014949626
0.014852275
0.014755894
0.014660469
0.01456599
0.014472439
0.014379801
0.014288063
0.014197218
0.014107249
0.01401814
0.013929875
0.013842442
0.013755827
0.013670015
0.013584993
0.013500744
0.013417253
0.013334501
0.01325247
0.013171135
0.013090473
0.013010446
0.012931027
0.012852134
0.012773773
0.012695688
0.012618116
0.012540042
0.012462928
0.012382652
0.012305181
0.012216079
0.012144706
0.012008081
0.0025347231
0.009560758
0.01665544
0.02068682
0.021734382
0.0214647
0.02082957
0.020180438
0.019547197
0.018917811
0.018308149
0.017743254
0.017237194
0.016792103
0.016404756
0.016062306
0.015763751
0.015507532
0.015288148
0.0150972
0.014928295
0.014775719
0.014634834
0.014503072
0.01437933
0.014262254
0.014151489
0.014045101
0.013941795
0.013840788
0.013742126
0.013645811
0.013551614
0.013459384
0.013368589
0.013279463
0.013190912
0.013103413
0.013016869
0.012931054
0.012845842
0.012761185
0.012677081
0.01259352
0.012510491
0.012428001
0.012345969
0.012264356
0.012183151
0.012102346
0.012021961
0.011942004
0.011862485
0.011783421
0.011704802
0.011626646
0.011548955
0.011471713
0.011394901
0.011318527
0.011242623
0.011167208
0.01109228
0.011017846
0.010943917
0.010870498
0.010797579
0.01072516
0.010653251
0.010581859
0.010510984
0.010440626
0.010370789
0.010301482
0.0102327
0.010164441
0.010096705
0.010029491
0.0099627966
0.0098966214
0.0098309621
0.0097658156
0.0097011775
0.0096370424
0.0095734038
0.009510253
0.0094475795
0.0093853693
0.0093236056
0.009262263
0.0092013153
0.0091407056
0.0090804061
0.0090202385
0.0089602726
0.0088998055
0.0088394001
0.0087759705
0.0087195264
0.0086173563
0.00022583973
0.00057627553
0.0013114501
0.0026335472
0.0042087785
0.005822246
0.0072757191
0.0085098958
0.0095740608
0.010502043
0.011298246
0.011957923
0.012485157
0.012897243
0.013217649
0.013474457
0.013682932
0.013851444
0.013986088
0.01409139
0.014171642
0.014230289
0.014269465
0.014292764
0.014303149
0.014301964
0.01429404
0.014277783
0.014254177
0.014223859
0.014188495
0.014148977
0.014105845
0.014059693
0.014010335
0.013958904
0.01390405
0.013847429
0.013788899
0.013728505
0.013666389
0.01360274
0.01353776
0.013471607
0.01340443
0.013336377
0.013267448
0.013197728
0.0131273
0.013056248
0.012984681
0.012912676
0.012840312
0.012767668
0.012694777
0.012621719
0.012548532
0.012475237
0.012401844
0.012328407
0.012254992
0.012181647
0.012108399
0.012035276
0.011962317
0.011889547
0.011816974
0.011744615
0.0116725
0.011600653
0.01152909
0.011457822
0.011386868
0.011316251
0.011245977
0.011176053
0.011106491
0.011037299
0.010968485
0.010900056
0.010832018
0.010764376
0.010697133
0.010630291
0.01056385
0.01049781
0.010432167
0.010366915
0.010302042
0.01023754
0.010173373
0.010109542
0.010045937
0.0099826155
0.0099192399
0.0098560541
0.0097920731
0.0097273369
0.0096668708
0.0095612255
0.00016612472
0.00017840808
0.00020920622
0.00028968781
0.000455299
0.00070005647
0.001154314
0.001792201
0.0026163359
0.0035367682
0.0044944494
0.0054742127
0.0064635646
0.0074396283
0.0083710194
0.0092290439
0.0099955503
0.010665307
0.011243562
0.011740111
0.012164842
0.012526493
0.012833276
0.013091838
0.013308762
0.013489085
0.013638332
0.01376111
0.013860772
0.013940959
0.014004235
0.014052973
0.014089127
0.014114667
0.014130482
0.014138486
0.014136453
0.014128561
0.014113914
0.014093512
0.014067924
0.0140377
0.014003353
0.013965309
0.013923975
0.01387971
0.013832649
0.013783088
0.013731252
0.013677357
0.013621643
0.013564289
0.013505481
0.013445383
0.013384101
0.013321793
0.013258555
0.013194463
0.013129576
0.013064001
0.012997855
0.012931227
0.012864177
0.012796773
0.012729085
0.012661167
0.012593048
0.012524773
0.012456399
0.012387967
0.012319514
0.012251069
0.01218267
0.012114354
0.012046143
0.011978059
0.011910123
0.011842359
0.011774786
0.011707421
0.011640281
0.011573379
0.011506729
0.011440341
0.011374225
0.011308387
0.011242831
0.011177562
0.011112573
0.011047869
0.010983415
0.010919243
0.010855213
0.010791499
0.010727587
0.01066417
0.010599583
0.010535406
0.010473937
0.010369088
0.00016897353
0.00017149868
0.00017347195
0.00017584496
0.00018213045
0.00019454788
0.00022470116
0.00028897169
0.00039626722
0.00059845405
0.00091505848
0.0013526494
0.0019230084
0.0025910925
0.0033469323
0.0041823348
0.0050801028
0.0060102426
0.0069346313
0.0078163956
0.008629117
0.0093605742
0.010010105
0.010582622
0.011084656
0.011522468
0.01190265
0.012231886
0.012516839
0.012762973
0.012974852
0.013156649
0.013312036
0.01344394
0.013555306
0.013649201
0.013726282
0.013789198
0.013839512
0.013878303
0.013906711
0.013925906
0.013936864
0.013940416
0.013937364
0.013928414
0.013914054
0.013894696
0.013870744
0.013842633
0.013810802
0.013775586
0.013737305
0.013696258
0.013652692
0.013606895
0.013559039
0.013509283
0.013457758
0.013404656
0.013350163
0.013294424
0.013237553
0.01317967
0.013120894
0.013061316
0.013000999
0.012940027
0.012878489
0.012816457
0.012753993
0.012691153
0.012627997
0.012564589
0.012500968
0.012437173
0.012373247
0.012309227
0.012245148
0.012181043
0.012116941
0.01205287
0.011988855
0.011924917
0.011861076
0.011797351
0.011733755
0.011670302
0.011606997
0.011543855
0.011480849
0.011418035
0.011355261
0.011292777
0.01122998
0.011167831
0.011104307
0.011041942
0.010981334
0.010879336
0.00017091352
0.00017542806
0.00017756124
0.00017821176
0.00017834016
0.00017819394
0.00017834737
0.00017972007
0.00018414117
0.00019662826
0.00022468933
0.00027763516
0.00036356101
0.00051570077
0.00074969865
0.0010870737
0.0015377927
0.0020942624
0.0027562533
0.0035170213
0.0043567673
0.0052421569
0.0061325402
0.0069904474
0.0077902573
0.0085200371
0.00917782
0.0097664067
0.010290347
0.010754769
0.011165105
0.011526855
0.011845197
0.012124706
0.012369588
0.012584053
0.01277094
0.01293334
0.013073988
0.013195159
0.01329889
0.013386899
0.013460765
0.013521915
0.013571552
0.013610757
0.013640651
0.013662112
0.013675948
0.013682858
0.013683457
0.013678276
0.013667847
0.013652652
0.013633125
0.013609742
0.013582767
0.013552482
0.013519165
0.013483109
0.013444557
0.013403732
0.01336082
0.013316
0.01326947
0.013221384
0.013171851
0.013121009
0.013068993
0.013015913
0.012961867
0.012906943
0.012851239
0.012794849
0.012737835
0.012680263
0.012622199
0.012563701
0.012504827
0.012445626
0.012386147
0.012326433
0.012266524
0.012206458
0.012146268
0.012085986
0.012025638
0.011965251
0.011904839
0.011844435
0.011784019
0.011723667
0.01166323
0.011603007
0.01154236
0.011482409
0.011420959
0.011361137
0.011302488
0.011204482
0.00017050208
0.00017652701
0.00018040212
0.0001822661
0.00018273648
0.00018252867
0.00018195402
0.00018116962
0.0001804952
0.00017981795
0.00018015849
0.00018195874
0.00018702996
0.00019902031
0.00022300779
0.00026684332
0.00033732018
0.00046108956
0.00065743947
0.00094805673
0.0013494809
0.0018614779
0.0024855369
0.003212497
0.0040183153
0.0048662895
0.0057156521
0.0065324554
0.0072959125
0.0079974908
0.0086359526
0.0092131199
0.0097321155
0.010196901
0.01061193
0.010981949
0.0113111
0.011603327
0.011862357
0.012091533
0.012293852
0.012471968
0.012628262
0.012764886
0.012883743
0.012986515
0.013074793
0.01314997
0.013213288
0.01326585
0.013308627
0.013342535
0.013368341
0.013386745
0.013398405
0.013403847
0.01340367
0.013398369
0.013388404
0.013374152
0.013355971
0.013334193
0.013309099
0.013280974
0.013250104
0.013216709
0.013180958
0.013143064
0.013103208
0.013061565
0.013018289
0.012973526
0.012927394
0.012880015
0.012831496
0.012781939
0.012731439
0.012680083
0.012627954
0.012575126
0.01252167
0.012467651
0.012413128
0.012358158
0.012302791
0.012247075
0.012191052
0.012134764
0.012078242
0.012021529
0.011964622
0.011907615
0.011850369
0.011793215
0.011735515
0.011678475
0.011619854
0.011563122
0.011507179
0.011413995
0.00016874987
0.00017516909
0.00018003828
0.00018284806
0.00018413838
0.00018457901
0.000184406
0.00018396059
0.00018328172
0.00018248614
0.00018168093
0.00018095378
0.00018035518
0.00018007955
0.0001805966
0.00018280726
0.00018804535
0.00019928644
0.00022115438
0.00026100761
0.00032673329
0.00044323473
0.00063251309
0.00091615608
0.0013106929
0.0018192775
0.0024405312
0.0031592373
0.0039450887
0.0047586897
0.005562585
0.0063301195
0.0070473016
0.0077090191
0.0083145049
0.0088651301
0.0093634816
0.00981298
0.01021742
0.010580571
0.010906064
0.011197309
0.011457452
0.01168939
0.011895759
0.012078931
0.012241094
0.012384226
0.012510106
0.012620328
0.012716311
0.012799353
0.0128706
0.012931082
0.012981745
0.013023405
0.013056859
0.013082823
0.013101948
0.013114804
0.01312191
0.013123741
0.013120745
0.013113297
0.013101731
0.01308639
0.013067608
0.013045645
0.013020754
0.012993173
0.012963122
0.012930801
0.012896386
0.012860051
0.012821941
0.012782204
0.012740971
0.012698366
0.012654503
0.012609489
0.012563421
0.012516391
0.012468483
0.012419777
0.012370343
0.012320251
0.012269561
0.012218333
0.012166615
0.012114468
0.012061906
0.012009038
0.011955747
0.011902381
0.011848329
0.011794828
0.011739681
0.011686526
0.011633867
0.011546218
0.00016632034
0.00017241171
0.00017760307
0.00018110049
0.00018303884
0.00018389866
0.00018410473
0.00018397414
0.00018365862
0.00018321053
0.00018266547
0.000182031
0.00018133959
0.00018065636
0.0001800211
0.00017945064
0.00017901272
0.00017898659
0.00017985184
0.00018257007
0.00018834345
0.00020021998
0.00022329823
0.00026493525
0.00033732216
0.00046457219
0.00067118251
0.00097874443
0.0013978521
0.0019319429
0.0025726143
0.0032955421
0.0040643021
0.0048406571
0.0055947797
0.0063091162
0.0069756843
0.0075916654
0.0081568212
0.0086725657
0.0091414291
0.0095664689
0.0099508819
0.010297872
0.010610545
0.010891822
0.011144449
0.011370975
0.011573737
0.011754867
0.011916286
0.01205975
0.012186841
0.012298985
0.012397483
0.012483491
0.012558082
0.012622237
0.012676853
0.012722729
0.012760587
0.012791085
0.01281483
0.01283236
0.012844154
0.012850669
0.012852343
0.012849554
0.012842648
0.012831949
0.012817755
0.012800339
0.012779951
0.012756808
0.012731129
0.012703109
0.012672925
0.012640747
0.012606729
0.012571014
0.012533736
0.012495018
0.012454975
0.012413713
0.012371331
0.01232792
0.012283566
0.01223835
0.012192339
0.012145616
0.012098213
0.012050258
0.012001656
0.01195277
0.011903031
0.011853676
0.0118026
0.011753505
0.011704629
0.011623186
0.00016375511
0.00016911471
0.00017407468
0.00017786311
0.00018032329
0.0001816883
0.00018231565
0.00018249942
0.00018241648
0.00018218018
0.00018184508
0.00018143478
0.00018096295
0.00018044477
0.00017988789
0.00017929799
0.00017870794
0.00017812151
0.00017758126
0.00017716139
0.00017698602
0.00017733681
0.00017878919
0.0001823458
0.00018969405
0.00020438691
0.0002327639
0.00028278754
0.00037451572
0.00053221261
0.00078013006
0.0011358076
0.0016052199
0.0021845088
0.0028537311
0.0035791995
0.0043232602
0.0050551155
0.0057555473
0.0064148817
0.0070288822
0.0075961873
0.008117307
0.0085940072
0.0090287101
0.0094241129
0.0097830343
0.010108281
0.010402558
0.010668426
0.010908263
0.01112428
0.011318504
0.011492791
0.011648837
0.011788177
0.011912218
0.012022255
0.012119472
0.012204939
0.012279626
0.012344411
0.012400103
0.012447428
0.012487042
0.012519551
0.012545526
0.012565481
0.012579879
0.012589149
0.012593687
0.012593856
0.012589988
0.012582379
0.012571314
0.012557051
0.012539829
0.012519869
0.012497375
0.012472537
0.01244553
0.012416518
0.012385651
0.012353069
0.012318903
0.012283273
0.012246292
0.012208067
0.012168689
0.012128265
0.01208685
0.01204459
0.012001421
0.011957712
0.011912952
0.011868352
0.011821938
0.011777407
0.01173278
0.011658212
0.00016138494
0.00016588467
0.00017027682
0.00017395476
0.00017666942
0.00017845019
0.00017949495
0.00018003286
0.00018023791
0.00018022886
0.00018008148
0.00017984017
0.00017953049
0.00017916843
0.00017876419
0.00017832326
0.0001778539
0.00017735754
0.00017682936
0.00017629738
0.00017577491
0.00017528941
0.00017490117
0.00017470465
0.00017488457
0.00017581313
0.00017829698
0.00018348925
0.00019406417
0.00021505516
0.00025395614
0.00032553584
0.00045402872
0.00066501908
0.00097924298
0.0014048842
0.0019407133
0.0025690933
0.0032579457
0.0039706229
0.0046768522
0.0053573851
0.0060020007
0.0066057022
0.0071664347
0.0076841228
0.0081599974
0.0085959996
0.0089944371
0.0093577953
0.009688583
0.0099892573
0.01026217
0.010509531
0.010733406
0.010935699
0.011118171
0.011282451
0.01143004
0.011562311
0.011680514
0.011785787
0.011879171
0.011961618
0.012033986
0.012097064
0.012151589
0.012198228
0.012237589
0.012270229
0.012296662
0.012317358
0.01233275
0.012343229
0.012349159
0.012350877
0.012348692
0.012342891
0.012333737
0.012321476
0.012306335
0.012288523
0.012268234
0.01224565
0.012220937
0.012194253
0.012165742
0.01213554
0.01210377
0.012070562
0.012036
0.012000252
0.011963286
0.011925479
0.011886383
0.011847174
0.011806025
0.011766593
0.01172668
0.011659681
0.00015934347
0.00016302597
0.00016673661
0.00017003901
0.00017271128
0.00017469422
0.0001760563
0.00017692843
0.00017743815
0.0001776883
0.00017775655
0.00017769693
0.00017754536
0.00017732541
0.00017705319
0.00017673946
0.00017639181
0.00017601506
0.00017560937
0.00017517983
0.00017473008
0.00017426209
0.00017378229
0.00017331662
0.00017288925
0.00017254462
0.00017237064
0.00017250473
0.00017323949
0.00017519924
0.00017942863
0.0001879929
0.00020517238
0.00023805547
0.00029915835
0.00041226991
0.00060340344
0.0008943639
0.0012947754
0.001804078
0.0024047817
0.0030651277
0.0037496717
0.0044298425
0.0050875915
0.0057130188
0.0063009619
0.0068491101
0.007357108
0.0078258502
0.0082569347
0.0086523627
0.0090143327
0.0093450949
0.0096468758
0.0099218176
0.01017196
0.010399225
0.010605416
0.010792205
0.010961131
0.011113611
0.011250946
0.011374334
0.011484864
0.011583537
0.01167128
0.01174894
0.011817292
0.011877046
0.011928853
0.011973313
0.012010977
0.012042344
0.012067881
0.012088013
0.012103136
0.012113612
0.012119777
0.012121943
0.012120396
0.012115403
0.012107209
0.012096044
0.012082119
0.012065631
0.012046764
0.01202569
0.012002565
0.01197755
0.011950761
0.01192239
0.011892441
0.011861302
0.011828591
0.011795444
0.011760192
0.011726437
0.011691722
0.01163302
0.00015764286
0.00016062484
0.00016368246
0.00016650796
0.00016893571
0.00017089667
0.00017239808
0.00017349537
0.00017425827
0.00017475494
0.00017504675
0.00017518371
0.00017520397
0.00017513554
0.00017499901
0.00017480953
0.00017457763
0.00017431083
0.00017401356
0.00017368943
0.00017334134
0.00017297099
0.0001725793
0.0001721709
0.00017175092
0.00017132259
0.00017090809
0.00017053377
0.0001702393
0.00017010577
0.00017026267
0.00017096132
0.00017273444
0.00017656561
0.00018425293
0.00019978547
0.00023002946
0.00028723054
0.00039487817
0.0005794404
0.00086223426
0.0012533082
0.001750762
0.0023352388
0.0029743166
0.0036341694
0.0042889432
0.0049226473
0.0055262764
0.0060949476
0.006626446
0.0071203748
0.0075774536
0.0079990575
0.0083869506
0.0087430883
0.0090695014
0.0093682175
0.0096412128
0.009890378
0.010117497
0.010324242
0.010512169
0.010682724
0.01083724
0.010976947
0.01110298
0.011216388
0.011318133
0.011409096
0.01149009
0.011561862
0.011625099
0.011680431
0.011728436
0.01176965
0.011804566
0.011833638
0.011857286
0.011875898
0.011889832
0.011899421
0.011904972
0.011906769
0.011905076
0.011900139
0.011892186
0.011881431
0.011868069
0.011852297
0.011834266
0.011814198
0.011792139
0.011768484
0.011742927
0.01171656
0.011687877
0.011660424
0.011631424
0.0115818
0.00015624227
0.00015865437
0.00016114922
0.0001635071
0.00016560806
0.00016739872
0.00016887229
0.00017004898
0.00017095864
0.00017163523
0.00017211548
0.00017243479
0.00017262449
0.00017271067
0.00017271452
0.00017265299
0.00017253875
0.00017238137
0.00017218783
0.00017196325
0.00017171145
0.00017143512
0.000171136
0.00017081577
0.00017047643
0.00017011876
0.00016974675
0.00016936652
0.00016898434
0.00016861551
0.00016829215
0.00016805419
0.00016797989
0.00016819935
0.00016894927
0.000170742
0.00017454506
0.00018214348
0.00019758215
0.00022777468
0.00028624476
0.00039661454
0.00058598636
0.00087363568
0.0012688091
0.0017662365
0.002342987
0.0029658826
0.0036035699
0.0042337049
0.0048427789
0.0054230191
0.0059701609
0.006482315
0.0069591653
0.0074013627
0.0078101576
0.0081871495
0.0085341203
0.0088529257
0.0091454223
0.0094134229
0.0096586672
0.009882807
0.010087393
0.010273874
0.010443598
0.010597818
0.010737695
0.010864299
0.010978616
0.01108156
0.01117397
0.01125662
0.011330222
0.011395434
0.011452862
0.011503065
0.011546561
0.011583826
0.011615302
0.011641398
0.011662491
0.011678931
0.011691043
0.011699129
0.011703468
0.011704323
0.011701935
0.01169654
0.011688334
0.011677568
0.011664336
0.011649045
0.011631468
0.011612655
0.01159126
0.011570788
0.011548063
0.011508358
0.00015508839
0.0001570473
0.00015908151
0.00016103087
0.00016280543
0.00016436598
0.00016570804
0.00016684297
0.00016778429
0.0001685459
0.00016914448
0.00016959888
0.00016992865
0.0001701526
0.00017028804
0.00017035029
0.00017035188
0.00017030291
0.00017021147
0.00017008386
0.00016992489
0.00016973817
0.00016952635
0.00016929139
0.00016903492
0.00016875796
0.00016846184
0.0001681485
0.00016781976
0.00016747872
0.00016713262
0.00016679035
0.00016646556
0.00016619436
0.00016601809
0.00016601931
0.00016633514
0.00016721227
0.00016920017
0.0001732922
0.00018149061
0.00019822483
0.00023080473
0.00029550416
0.0004166394
0.00062157699
0.00092595532
0.0013363812
0.0018420591
0.0024158546
0.0030248686
0.0036414969
0.0042473757
0.0048314732
0.0053873337
0.0059114857
0.0064024868
0.0068601911
0.0072852707
0.0076789105
0.0080425954
0.0083779715
0.0086867475
0.0089706352
0.0092313046
0.0094703582
0.0096893191
0.0098896241
0.01007262
0.010239563
0.010391621
0.010529879
0.010655342
0.010768939
0.01087153
0.010963907
0.011046805
0.011120902
0.011186823
0.011245149
0.011296414
0.011341116
0.011379712
0.011412629
0.011440259
0.01146297
0.011481101
0.01149497
0.011504869
0.011511084
0.011513856
0.011513475
0.011510084
0.011504109
0.011495403
0.01148498
0.01147165
0.011458897
0.011443058
0.011414186
0.00015413254
0.00015573314
0.00015739826
0.00015900922
0.00016049548
0.00016182559
0.00016299751
0.00016402225
0.00016491054
0.00016567005
0.00016630783
0.00016683169
0.00016725071
0.00016757509
0.00016781569
0.0001679835
0.0001680885
0.00016813944
0.00016814393
0.00016810836
0.00016803786
0.0001679365
0.00016780747
0.00016765319
0.00016747555
0.00016727591
0.00016705542
0.0001668152
0.00016655625
0.00016627965
0.00016598751
0.00016568264
0.00016536824
0.00016505294
0.00016474745
0.00016446693
0.00016425093
0.0001641452
0.000164244
0.00016469792
0.00016579025
0.00016816591
0.00017289376
0.00018245651
0.00020204837
0.00023990125
0.00031643717
0.00045760947
0.00068720836
0.0010187982
0.0014528366
0.0019712522
0.0025435007
0.003138888
0.0037345937
0.0043161865
0.004874937
0.005405746
0.0059059841
0.0063746623
0.0068118471
0.0072182861
0.0075951454
0.0079438369
0.0082658977
0.0085629095
0.0088364489
0.0090880545
0.0093192064
0.0095313126
0.0097257025
0.0099036246
0.010066247
0.010214658
0.010349869
0.010472818
0.010584378
0.010685354
0.010776495
0.010858493
0.010931991
0.010997581
0.011055815
0.011107202
0.011152216
0.011191297
0.011224851
0.01125326
0.011276877
0.011296039
0.011311042
0.01132222
0.011329771
0.011334144
0.011335273
0.011334146
0.011329724
0.011325491
0.011317207
0.011300164
0.00015333524
0.00015465168
0.00015602249
0.00015735879
0.00015860378
0.00015972973
0.00016073409
0.00016162711
0.00016242005
0.00016312086
0.0001637349
0.00016426605
0.00016471786
0.00016509444
0.00016540085
0.0001656431
0.00016582737
0.00016595972
0.00016604593
0.00016609127
0.00016610033
0.00016607692
0.0001660242
0.00016594472
0.00016584051
0.00016571312
0.00016556379
0.00016539354
0.00016520325
0.00016499365
0.00016476565
0.00016452044
0.00016425921
0.00016398443
0.00016369982
0.0001634094
0.00016312328
0.00016285397
0.0001626209
0.00016246756
0.00016244792
0.00016267827
0.00016332888
0.00016475651
0.00016776641
0.00017360209
0.00018556146
0.00020978132
0.00025844362
0.00035422319
0.00052479193
0.0007890406
0.0011561463
0.0016177479
0.002148555
0.0027172741
0.0032975841
0.0038717189
0.0044286352
0.0049616237
0.0054668867
0.0059425982
0.0063882173
0.0068040416
0.0071909023
0.007549957
0.0078825512
0.0081901255
0.0084741527
0.0087360955
0.008977378
0.0091993687
0.0094033707
0.0095906147
0.0097622572
0.0099193809
0.010062997
0.010194046
0.010313406
0.010421891
0.010520256
0.010609205
0.010689387
0.010761409
0.010825831
0.010883174
0.010933924
0.010978533
0.011017419
0.011050983
0.011079579
0.011103591
0.011123277
0.011139117
0.01115113
0.011160282
0.011165679
0.011170839
0.011170843
0.011166717
0.00015266565
0.00015375529
0.00015489064
0.00015600481
0.00015705166
0.00015800579
0.00015886263
0.00015962987
0.0001603181
0.00016093627
0.00016149092
0.00016198624
0.00016242474
0.00016280823
0.00016313859
0.00016341828
0.00016365016
0.00016383737
0.00016398335
0.00016409155
0.00016416524
0.00016420737
0.00016422049
0.00016420681
0.00016416814
0.00016410595
0.00016402144
0.00016391557
0.00016378914
0.00016364282
0.00016347721
0.00016329295
0.0001630907
0.00016287136
0.00016263639
0.00016238736
0.00016212734
0.00016186083
0.00016159337
0.00016133699
0.00016110629
0.00016092848
0.00016085175
0.00016094452
0.0001613569
0.00016229204
0.0001642466
0.00016816749
0.00017597213
0.00019206177
0.00022398899
0.00028985488
0.00041539016
0.00062484775
0.00093305175
0.0013404506
0.0018285136
0.0023674892
0.0029288371
0.0034918421
0.0040432463
0.0045748125
0.0050816322
0.0055610642
0.0060119692
0.0064341961
0.006828238
0.0071949976
0.0075356289
0.0078514271
0.0081437544
0.0084139888
0.0086634916
0.0088935835
0.0091055315
0.00930054
0.0094797473
0.0096442242
0.0097949745
0.0099329365
0.010058986
0.01017394
0.010278557
0.010373544
0.01045956
0.010537216
0.010607081
0.010669687
0.010725527
0.010775068
0.010818734
0.010856963
0.010890081
0.010918602
0.010942634
0.010963132
0.010979341
0.01099484
0.011003934
0.011013915
0.0001520999
0.00015300714
0.00015395289
0.00015488671
0.00015577112
0.00015658298
0.00015731567
0.00015797363
0.00015856533
0.00015909938
0.00015958312
0.00016002197
0.00016041949
0.00016077774
0.00016109802
0.00016138142
0.00016162899
0.00016184191
0.00016202164
0.00016216987
0.00016228837
0.00016237888
0.00016244302
0.00016248227
0.00016249792
0.00016249104
0.00016246257
0.00016241325
0.00016234372
0.00016225449
0.00016214602
0.00016201872
0.00016187297
0.00016170919
0.00016152802
0.00016133015
0.00016111672
0.00016088948
0.00016065057
0.00016040397
0.00016015496
0.00015991164
0.00015968841
0.00015950298
0.00015939439
0.00015941677
0.00015966932
0.00016032455
0.00016169149
0.00016449096
0.00016989533
0.00018095113
0.00020352129
0.00024984115
0.00034242742
0.00050887217
0.00076737586
0.001125614
0.0015721364
0.0020802749
0.002620598
0.0031700268
0.0037132713
0.0042406662
0.0047462708
0.0052266824
0.005680198
0.0061062435
0.0065049922
0.0068771035
0.0072235436
0.0075454621
0.0078441082
0.0081207722
0.0083767461
0.0086132967
0.0088316495
0.0090329775
0.0092183952
0.009388956
0.0095456514
0.0096894113
0.0098211063
0.0099415502
0.010051502
0.010151671
0.010242718
0.01032526
0.010399871
0.010467097
0.01052743
0.010581374
0.010629328
0.010671846
0.010709129
0.01074213
0.010770227
0.010797092
0.010816155
0.010841542
0.00015161936
0.00015237879
0.00015317078
0.00015395721
0.0001547078
0.00015540178
0.00015603121
0.0001565976
0.00015710678
0.00015756585
0.0001579818
0.00015836061
0.00015870684
0.00015902362
0.00015931299
0.00015957625
0.00015981415
0.0001600272
0.00016021588
0.00016038076
0.00016052247
0.00016064169
0.00016073909
0.00016081534
0.00016087105
0.00016090675
0.00016092289
0.00016091987
0.00016089802
0.0001608576
0.00016079885
0.00016072195
0.00016062708
0.00016051443
0.00016038423
0.00016023677
0.00016007248
0.00015989205
0.00015969637
0.00015948693
0.00015926589
0.00015903627
0.00015880326
0.00015857321
0.00015835803
0.00015817472
0.00015804849
0.00015802856
0.00015818596
0.00015867155
0.00015969183
0.00016175061
0.00016579637
0.00017385627
0.00019049175
0.0002239597
0.00029390027
0.00042674456
0.00064464811
0.00096028215
0.0013685831
0.0018467047
0.0023654008
0.0028999163
0.0034332378
0.0039544376
0.0044566597
0.0049358214
0.005389714
0.0058173811
0.0062187032
0.0065941122
0.0069443961
0.0072705642
0.0075737543
0.0078551673
0.0081160243
0.0083575357
0.0085808824
0.008787202
0.0089775816
0.0091530531
0.0093145914
0.0094631143
0.0095994839
0.0097245082
0.0098389435
0.0099434987
0.010038835
0.010125579
0.010204303
0.010275579
0.010339885
0.010397822
0.01044969
0.010496446
0.010537598
0.010576943
0.010606932
0.010649143
0.00015120935
0.00015184816
0.00015251457
0.00015317973
0.00015381927
0.00015441494
0.00015495821
0.00015544836
0.00015588881
0.00015628478
0.00015664209
0.00015696637
0.00015726246
0.00015753421
0.00015778451
0.0001580154
0.00015822821
0.00015842368
0.00015860225
0.00015876416
0.00015890958
0.00015903858
0.00015915122
0.00015924754
0.00015932756
0.00015939128
0.00015943867
0.0001594697
0.00015948431
0.00015948246
0.00015946408
0.00015942911
0.00015937749
0.00015930916
0.0001592241
0.00015912234
0.00015900392
0.00015886906
0.00015871804
0.00015855141
0.00015837001
0.00015817509
0.00015796868
0.00015775347
0.00015753386
0.00015731636
0.00015710981
0.00015692988
0.00015679765
0.00015675288
0.00015685649
0.00015721902
0.00015802847
0.00015963755
0.00016284114
0.00016898437
0.00018164486
0.00020741503
0.00026168462
0.0003691871
0.00055463709
0.00083432938
0.0012086578
0.0016587776
0.0021563298
0.0026754883
0.0031978598
0.0037114584
0.0042086584
0.0046848013
0.0051372426
0.0055646919
0.0059667693
0.0063437014
0.0066961125
0.0070248801
0.0073310354
0.007615693
0.007880004
0.0081251221
0.0083521819
0.0085622837
0.0087564844
0.008935792
0.0091011621
0.0092534983
0.0093936515
0.009522423
0.0096405643
0.0097487859
0.009847746
0.0099380907
0.01002038
0.01009527
0.010163159
0.010225023
0.010280492
0.010333519
0.010375475
0.010436058
0.00015085818
0.00015139791
0.00015196109
0.00015252582
0.00015307261
0.00015358564
0.00015405638
0.00015448264
0.00015486592
0.00015520967
0.00015551832
0.0001557966
0.00015604897
0.00015627939
0.00015649115
0.00015668689
0.00015686858
0.00015703756
0.00015719468
0.00015734048
0.00015747519
0.00015759882
0.00015771125
0.00015781226
0.00015790155
0.00015797877
0.00015804355
0.00015809552
0.00015813428
0.00015815946
0.00015817073
0.00015816773
0.00015815014
0.00015811768
0.00015807009
0.00015800713
0.00015792863
0.00015783447
0.00015772459
0.00015759905
0.0001574581
0.00015730212
0.00015713191
0.00015694857
0.0001567539
0.00015655061
0.00015634241
0.00015613535
0.00015593745
0.00015576226
0.00015562973
0.00015557131
0.00015564073
0.00015592571
0.00015660477
0.00015792618
0.00016052626
0.0001655051
0.00017562248
0.00019639068
0.00023992489
0.00032863278
0.00048888979
0.00073924687
0.0010844829
0.0015094768
0.0019871667
0.0024911998
0.0030021774
0.0035072823
0.0039982749
0.0044700314
0.0049195492
0.0053452582
0.0057465561
0.0061234901
0.0064765388
0.0068064602
0.007114187
0.0074007528
0.0076672416
0.0079147515
0.0081443711
0.0083571628
0.0085541522
0.0087363219
0.0089046078
0.0090598979
0.0092030314
0.0093348042
0.0094559603
0.0095672232
0.0096692391
0.0097627245
0.0098481804
0.0099266057
0.0099977523
0.010065758
0.010120808
0.010201444
0.00015055646
0.00015101429
0.00015149209
0.00015197319
0.00015244203
0.00015288508
0.00015329423
0.00015366639
0.00015400167
0.00015430205
0.00015457066
0.0001548112
0.00015502744
0.00015522296
0.00015540102
0.00015556444
0.00015571555
0.00015585616
0.00015598765
0.00015611098
0.00015622676
0.00015633527
0.00015643657
0.00015653052
0.0001566168
0.000156695
0.00015676463
0.00015682515
0.00015687597
0.00015691652
0.00015694623
0.00015696453
0.00015697089
0.00015696481
0.00015694579
0.00015691341
0.00015686725
0.00015680697
0.00015673226
0.00015664288
0.00015653869
0.00015641967
0.00015628595
0.00015613787
0.00015597609
0.00015580171
0.00015561632
0.00015542249
0.0001552237
0.00015502543
0.00015483566
0.00015466604
0.00015453513
0.00015446993
0.00015452035
0.00015476011
0.00015533799
0.00015647487
0.0001586857
0.00016292756
0.00017138685
0.0001887598
0.00022486866
0.00030015517
0.0004412327
0.00066825607
0.00098938747
0.0013926488
0.001852358
0.0023420365
0.0028416458
0.0033377808
0.003821753
0.0042880908
0.0047335161
0.0051562366