/*--------------------------------*- C++ -*----------------------------------*\
| =========                 |                                                 |
| \\      /  F ield         | OpenFOAM: The Open Source CFD Toolbox           |
|  \\    /   O peration     | Version:  2206                                  |
|   \\  /    A nd           | Website:  www.openfoam.com                      |
|    \\/     M anipulation  |                                                 |
\*---------------------------------------------------------------------------*/
FoamFile
{
    version     2.0;
    format      ascii;
    arch        "LSB;label=32;scalar=64";
    class       volScalarField;
    location    "1200";
    object      nut;
}
// * * * * * * * * * * * * * * * * * * * * * * * * * * * * * * * * * * * * * //

dimensions      [0 2 -1 0 0 0 0];

internalField   nonuniform List<scalar> 
7480
(
1.6139974e-05
2.2440724e-05
2.3613645e-05
2.2659952e-05
2.1075578e-05
1.961011e-05
1.8481847e-05
1.7623622e-05
1.6935568e-05
1.6353557e-05
1.5849041e-05
1.5410292e-05
1.502965e-05
1.470009e-05
1.4414942e-05
1.4167524e-05
1.3952571e-05
1.3765885e-05
1.3603029e-05
1.3460992e-05
1.333496e-05
1.3222126e-05
1.3119973e-05
1.3026374e-05
1.2939932e-05
1.2859477e-05
1.2784208e-05
1.2713305e-05
1.2646021e-05
1.2581727e-05
1.2520079e-05
1.2460854e-05
1.2403801e-05
1.2348711e-05
1.2295337e-05
1.2243568e-05
1.2193055e-05
1.214374e-05
1.2095518e-05
1.2048252e-05
1.2001849e-05
1.1956223e-05
1.1911311e-05
1.1867072e-05
1.1823457e-05
1.178043e-05
1.1737942e-05
1.169594e-05
1.1654396e-05
1.1613278e-05
1.1572563e-05
1.1532238e-05
1.1492283e-05
1.145269e-05
1.1413441e-05
1.1374523e-05
1.1335927e-05
1.1297635e-05
1.1259631e-05
1.1221902e-05
1.1184452e-05
1.1147277e-05
1.1110372e-05
1.107373e-05
1.1037347e-05
1.1001222e-05
1.0965343e-05
1.0929706e-05
1.0894308e-05
1.0859147e-05
1.0824219e-05
1.078952e-05
1.0755048e-05
1.0720803e-05
1.0686779e-05
1.0652974e-05
1.0619383e-05
1.0586003e-05
1.0552831e-05
1.0519864e-05
1.0487098e-05
1.0454529e-05
1.0422152e-05
1.0389963e-05
1.0357955e-05
1.0326121e-05
1.0294453e-05
1.0262937e-05
1.0231565e-05
1.0200305e-05
1.0169161e-05
1.0138032e-05
1.0107012e-05
1.0075695e-05
1.0044667e-05
1.0012264e-05
9.9808941e-06
9.9446933e-06
9.9156001e-06
9.859668e-06
1.670895e-06
5.1452522e-06
8.7893112e-06
1.1681273e-05
1.3403503e-05
1.4480724e-05
1.523802e-05
1.5811023e-05
1.6224508e-05
1.6521688e-05
1.6748071e-05
1.6935966e-05
1.7102903e-05
1.7256838e-05
1.7402635e-05
1.7532562e-05
1.7656853e-05
1.7782313e-05
1.7908735e-05
1.8030275e-05
1.8144773e-05
1.8249499e-05
1.8342492e-05
1.8424341e-05
1.8496882e-05
1.8560826e-05
1.8618157e-05
1.86674e-05
1.8708218e-05
1.8740966e-05
1.876711e-05
1.8787577e-05
1.8802806e-05
1.8813313e-05
1.8818856e-05
1.8820445e-05
1.8816789e-05
1.8809383e-05
1.8798382e-05
1.8783788e-05
1.8765739e-05
1.8744467e-05
1.8720262e-05
1.8693325e-05
1.8663853e-05
1.8632055e-05
1.8597952e-05
1.856167e-05
1.8523347e-05
1.8483102e-05
1.8441109e-05
1.8397485e-05
1.8352354e-05
1.8305837e-05
1.8257995e-05
1.8208955e-05
1.8158788e-05
1.8107542e-05
1.8055251e-05
1.8002006e-05
1.7947913e-05
1.7893047e-05
1.7837462e-05
1.7781212e-05
1.7724366e-05
1.7666972e-05
1.7609056e-05
1.755066e-05
1.7491839e-05
1.7432638e-05
1.7373093e-05
1.7313235e-05
1.7253102e-05
1.7192737e-05
1.7132163e-05
1.7071404e-05
1.7010488e-05
1.6949441e-05
1.6888287e-05
1.6827048e-05
1.6765747e-05
1.6704402e-05
1.6643032e-05
1.6581656e-05
1.6520286e-05
1.645894e-05
1.6397628e-05
1.6336365e-05
1.6275151e-05
1.6214018e-05
1.6152911e-05
1.609197e-05
1.6030892e-05
1.5970313e-05
1.590891e-05
1.5849227e-05
1.5786585e-05
1.5728272e-05
1.5670286e-05
1.5565085e-05
4.4090537e-07
4.7059509e-07
9.4555442e-07
2.2175544e-06
4.1434528e-06
6.4094268e-06
8.5141848e-06
1.0327935e-05
1.2011241e-05
1.3631649e-05
1.5181566e-05
1.6642728e-05
1.8007358e-05
1.9281903e-05
2.0478105e-05
2.1622079e-05
2.2715258e-05
2.375177e-05
2.4727852e-05
2.5641491e-05
2.6493587e-05
2.728518e-05
2.8015761e-05
2.8691151e-05
2.9316104e-05
2.9891788e-05
3.0431851e-05
3.0929253e-05
3.1387248e-05
3.1807763e-05
3.2196335e-05
3.2555715e-05
3.2887841e-05
3.3195127e-05
3.3477366e-05
3.373895e-05
3.3975468e-05
3.4193861e-05
3.4393477e-05
3.4575022e-05
3.4739537e-05
3.4888132e-05
3.502195e-05
3.5141933e-05
3.5248994e-05
3.5344031e-05
3.5427359e-05
3.5499662e-05
3.556157e-05
3.5613658e-05
3.5656608e-05
3.5690951e-05
3.5717238e-05
3.5735981e-05
3.5747519e-05
3.5752357e-05
3.5750836e-05
3.5743224e-05
3.5729748e-05
3.5710774e-05
3.5686712e-05
3.5657877e-05
3.5624508e-05
3.5586863e-05
3.5545215e-05
3.5499786e-05
3.5450722e-05
3.5398218e-05
3.5342498e-05
3.5283752e-05
3.522214e-05
3.5157809e-05
3.5090925e-05
3.502166e-05
3.4950133e-05
3.4876462e-05
3.4800771e-05
3.472318e-05
3.4643802e-05
3.4562743e-05
3.4480105e-05
3.4395986e-05
3.4310475e-05
3.4223663e-05
3.4135633e-05
3.4046468e-05
3.3956241e-05
3.3865041e-05
3.3772914e-05
3.3680008e-05
3.3586234e-05
3.3492054e-05
3.3396734e-05
3.3302172e-05
3.3204879e-05
3.3112242e-05
3.3011588e-05
3.2925877e-05
3.2832438e-05
3.2669492e-05
6.4167561e-06
1.1305251e-06
4.3341933e-07
3.9283537e-07
5.8235618e-07
9.3540117e-07
1.7966026e-06
3.1767971e-06
4.8717522e-06
6.6161622e-06
8.3682049e-06
1.0252662e-05
1.2279659e-05
1.4411516e-05
1.6589419e-05
1.876009e-05
2.0885099e-05
2.2943106e-05
2.4926057e-05
2.6830493e-05
2.865235e-05
3.0387747e-05
3.2037102e-05
3.3598928e-05
3.507503e-05
3.6464782e-05
3.7772466e-05
3.9003206e-05
4.0159789e-05
4.1249237e-05
4.2274797e-05
4.3240579e-05
4.4150314e-05
4.5009195e-05
4.5818232e-05
4.6583989e-05
4.7291956e-05
4.7963467e-05
4.8590507e-05
4.9177583e-05
4.9726753e-05
5.0240206e-05
5.0720111e-05
5.116833e-05
5.1586792e-05
5.1977292e-05
5.2340392e-05
5.2677758e-05
5.299063e-05
5.3280243e-05
5.3548023e-05
5.3795087e-05
5.402265e-05
5.4231813e-05
5.4423326e-05
5.4598322e-05
5.4757537e-05
5.4901595e-05
5.5031027e-05
5.5146668e-05
5.5249403e-05
5.533993e-05
5.5418797e-05
5.5486612e-05
5.5543987e-05
5.559143e-05
5.5629297e-05
5.5658048e-05
5.5678194e-05
5.569016e-05
5.5694326e-05
5.5691039e-05
5.5680688e-05
5.5663674e-05
5.564028e-05
5.5610795e-05
5.5575511e-05
5.5534716e-05
5.5488678e-05
5.5437653e-05
5.5381887e-05
5.5321615e-05
5.525706e-05
5.5188439e-05
5.5115959e-05
5.5039824e-05
5.4960221e-05
5.4877361e-05
5.479139e-05
5.4702608e-05
5.4610969e-05
5.4517246e-05
5.4420449e-05
5.4323506e-05
5.4221423e-05
5.4125185e-05
5.4016472e-05
5.3930759e-05
5.3829504e-05
5.3657637e-05
6.0041989e-05
1.749778e-05
4.9945052e-06
1.946204e-06
1.0213374e-06
6.8986279e-07
6.0780902e-07
7.0249142e-07
9.2842459e-07
1.4701446e-06
2.395731e-06
3.5586965e-06
5.0033052e-06
6.6406774e-06
8.5190231e-06
1.0680342e-05
1.3103381e-05
1.57253e-05
1.8462893e-05
2.1235141e-05
2.398152e-05
2.666766e-05
2.9278769e-05
3.1806288e-05
3.4242661e-05
3.6580511e-05
3.8816811e-05
4.0952307e-05
4.2991833e-05
4.4937731e-05
4.6791474e-05
4.8555963e-05
5.0234442e-05
5.182827e-05
5.3342504e-05
5.4784437e-05
5.6149434e-05
5.7446055e-05
5.8677222e-05
5.9843773e-05
6.0948212e-05
6.1994127e-05
6.2984443e-05
6.3921691e-05
6.4808846e-05
6.5648666e-05
6.6442771e-05
6.7192442e-05
6.7899211e-05
6.856512e-05
6.9192482e-05
6.9782962e-05
7.0338316e-05
7.0860328e-05
7.1350486e-05
7.1810801e-05
7.2242332e-05
7.2646125e-05
7.3023062e-05
7.3374645e-05
7.3702333e-05
7.4007269e-05
7.4290376e-05
7.4552736e-05
7.4795393e-05
7.5019209e-05
7.5224801e-05
7.5413002e-05
7.5584696e-05
7.5740613e-05
7.5881424e-05
7.6007744e-05
7.612028e-05
7.6219737e-05
7.6306617e-05
7.6381445e-05
7.6444752e-05
7.6497051e-05
7.6538828e-05
7.6570551e-05
7.6592662e-05
7.6605593e-05
7.6609752e-05
7.6605537e-05
7.6593327e-05
7.6573497e-05
7.6546395e-05
7.6512399e-05
7.6471803e-05
7.6425093e-05
7.6372323e-05
7.6314567e-05
7.6250728e-05
7.6184524e-05
7.6110037e-05
7.6040669e-05
7.5954393e-05
7.5896254e-05
7.5813538e-05
7.5678967e-05
0.00014367222
8.6570788e-05
4.1222129e-05
1.9225601e-05
9.5491914e-06
5.2045137e-06
3.1062053e-06
2.020555e-06
1.4300327e-06
1.1292002e-06
1.0386914e-06
1.1064761e-06
1.3097305e-06
1.8221743e-06
2.6252829e-06
3.7242385e-06
5.1853996e-06
6.9560639e-06
9.0941225e-06
1.1619816e-05
1.4491608e-05
1.76195e-05
2.0894126e-05
2.4216256e-05
2.7517608e-05
3.0761199e-05
3.3928619e-05
3.7007436e-05
3.9988424e-05
4.2865821e-05
4.5637338e-05
4.8302923e-05
5.0863334e-05
5.3318973e-05
5.5671895e-05
5.7927102e-05
6.0084595e-05
6.2148202e-05
6.4121664e-05
6.6007808e-05
6.7809826e-05
6.9529957e-05
7.1170988e-05
7.27359e-05
7.4226924e-05
7.5646383e-05
7.6998349e-05
7.8285551e-05
7.9510867e-05
8.0676706e-05
8.1785177e-05
8.2838129e-05
8.3837937e-05
8.4786885e-05
8.568724e-05
8.6542037e-05
8.7352293e-05
8.8119532e-05
8.8845567e-05
8.9532458e-05
9.0181817e-05
9.0795211e-05
9.1373956e-05
9.1919457e-05
9.2433449e-05
9.2917261e-05
9.3371766e-05
9.3798284e-05
9.4198125e-05
9.4572346e-05
9.4921959e-05
9.52479e-05
9.5551271e-05
9.5833135e-05
9.6094231e-05
9.6335385e-05
9.6557417e-05
9.6761116e-05
9.6947233e-05
9.7116491e-05
9.7269583e-05
9.740718e-05
9.752992e-05
9.7638428e-05
9.7733298e-05
9.7815115e-05
9.7884434e-05
9.7941835e-05
9.7987803e-05
9.8023035e-05
9.8047742e-05
9.8063287e-05
9.8068577e-05
9.8067941e-05
9.8054952e-05
9.8044597e-05
9.8012338e-05
9.8011136e-05
9.7972098e-05
9.7922153e-05
0.00018504739
0.00015738607
0.00011565127
7.6927375e-05
4.8827194e-05
3.0803563e-05
1.9672595e-05
1.2816595e-05
8.5580212e-06
5.8216171e-06
4.073071e-06
2.9206923e-06
2.172997e-06
1.7364978e-06
1.5325168e-06
1.519116e-06
1.6682115e-06
2.1489215e-06
2.9467236e-06
4.1094117e-06
5.728368e-06
7.7616653e-06
1.028089e-05
1.3275714e-05
1.6670179e-05
2.0339923e-05
2.4151783e-05
2.7999493e-05
3.1818786e-05
3.5577757e-05
3.9258326e-05
4.2846092e-05
4.6330256e-05
4.9704661e-05
5.2966656e-05
5.6116493e-05
5.9153454e-05
6.2078448e-05
6.4893652e-05
6.7601279e-05
7.0203841e-05
7.2703638e-05
7.5103143e-05
7.7405117e-05
7.9612104e-05
8.1726521e-05
8.3751786e-05
8.5691065e-05
8.7547504e-05
8.9324005e-05
9.1023166e-05
9.2648085e-05
9.4201016e-05
9.5684258e-05
9.7100427e-05
9.8451013e-05
9.9739325e-05
0.00010096797
0.00010213962
0.00010325619
0.00010431966
0.00010533203
0.00010629493
0.00010721042
0.00010808077
0.00010890755
0.00010969185
0.00011043558
0.0001111403
0.0001118076
0.000112439
0.00011303598
0.00011359968
0.00011413138
0.00011463227
0.00011510354
0.00011554632
0.00011596173
0.0001163508
0.00011671455
0.00011705396
0.00011736998
0.0001176635
0.00011793541
0.00011818655
0.00011841777
0.00011862984
0.00011882359
0.00011899973
0.00011915918
0.00011930236
0.00011943091
0.00011954384
0.00011964595
0.00011973058
0.00011981379
0.00011986914
0.00011995698
0.00011998748
0.00012007177
0.00019841045
0.00019101473
0.00017117794
0.00014280593
0.00011278475
8.6066494e-05
6.4324465e-05
4.7596133e-05
3.5040752e-05
2.5734659e-05
1.888676e-05
1.3849173e-05
1.0125888e-05
7.3919217e-06
5.4120484e-06
3.9965483e-06
3.0135012e-06
2.3982089e-06
2.0655292e-06
1.9755191e-06
2.1013307e-06
2.6281461e-06
3.5293966e-06
4.8988046e-06
6.8180816e-06
9.2818237e-06
1.2333109e-05
1.5918154e-05
1.9909179e-05
2.4147062e-05
2.8490279e-05
3.2844542e-05
3.7159713e-05
4.1408514e-05
4.5570794e-05
4.9631604e-05
5.3581499e-05
5.7415576e-05
6.1131378e-05
6.47277e-05
6.8204648e-05
7.1563081e-05
7.4804258e-05
7.7929937e-05
8.0942129e-05
8.384287e-05
8.6634834e-05
8.9320919e-05
9.1904147e-05
9.4387491e-05
9.6773737e-05
9.9065939e-05
0.0001012668
0.00010337892
0.00010540507
0.0001073474
0.00010920892
0.00011099258
0.00011270134
0.00011433772
0.00011590411
0.00011740287
0.00011883662
0.00012020728
0.00012151656
0.00012276674
0.00012396054
0.00012509968
0.00012618603
0.00012722153
0.00012820802
0.00012914737
0.00013004112
0.00013089098
0.00013169835
0.00013246482
0.00013319185
0.00013388087
0.00013453324
0.00013515028
0.00013573329
0.00013628349
0.0001368021
0.00013729026
0.0001377491
0.00013817973
0.0001385832
0.00013896058
0.00013931284
0.00013964117
0.00013994619
0.00014022985
0.00014049129
0.00014073573
0.00014095646
0.00014117026
0.00014134908
0.00014156094
0.00014168857
0.00014195917
0.00020185037
0.00020218439
0.00019646136
0.00018320226
0.00016408049
0.00014212566
0.00012007972
9.9682905e-05
8.1713285e-05
6.6326392e-05
5.3393661e-05
4.2644535e-05
3.3777959e-05
2.6523348e-05
2.0632333e-05
1.587215e-05
1.2052971e-05
9.0652885e-06
6.7807001e-06
5.0815119e-06
3.8552967e-06
3.0680001e-06
2.6261356e-06
2.4868236e-06
2.6837322e-06
3.347164e-06
4.5026652e-06
6.2792286e-06
8.6847353e-06
1.1780184e-05
1.5532627e-05
1.9816111e-05
2.4449663e-05
2.9259133e-05
3.4120993e-05
3.8966528e-05
4.375859e-05
4.8471321e-05
5.3085137e-05
5.7587532e-05
6.1971528e-05
6.6232845e-05
7.0368794e-05
7.4378293e-05
7.8261352e-05
8.2018514e-05
8.5651085e-05
8.9160958e-05
9.255041e-05
9.5821943e-05
9.8978072e-05
0.00010202155
0.00010495509
0.00010778133
0.00011050304
0.00011312266
0.00011564303
0.00011806716
0.00012039814
0.00012263884
0.00012479196
0.00012686014
0.00012884616
0.00013075247
0.00013258119
0.00013433473
0.00013601596
0.00013762715
0.00013917052
0.00014064829
0.00014206266
0.00014341581
0.0001447098
0.0001459463
0.0001471274
0.00014825492
0.00014933063
0.00015035629
0.00015133358
0.00015226414
0.00015314957
0.00015399142
0.00015479117
0.00015555029
0.00015627019
0.00015695226
0.00015759783
0.00015820825
0.00015878475
0.00015932881
0.00015984128
0.00016032441
0.00016077753
0.0001612062
0.00016160378
0.00016198765
0.0001623281
0.00016270165
0.00016295625
0.00016346779
0.0002025202
0.00020496843
0.00020505999
0.00020099576
0.00019222046
0.00017945499
0.00016400692
0.00014725289
0.00013032934
0.00011403304
9.8817702e-05
8.4897586e-05
7.2358392e-05
6.1186311e-05
5.12972e-05
4.2593286e-05
3.4976188e-05
2.8359449e-05
2.2676528e-05
1.7854886e-05
1.3815286e-05
1.0540785e-05
7.957291e-06
5.9839646e-06
4.5656024e-06
3.6522818e-06
3.1691264e-06
3.0596581e-06
3.4976637e-06
4.4707849e-06
6.1136751e-06
8.5053075e-06
1.1675591e-05
1.5617782e-05
2.0204875e-05
2.5233617e-05
3.0500072e-05
3.5855878e-05
4.1216429e-05
4.6535262e-05
5.1780709e-05
5.6929341e-05
6.1965951e-05
6.6881371e-05
7.1669603e-05
7.6326749e-05
8.0850858e-05
8.5241345e-05
8.9498562e-05
9.3623594e-05
9.7617942e-05
0.00010148353
0.00010522253
0.00010883722
0.00011233007
0.00011570343
0.00011895991
0.00012210232
0.0001251337
0.00012805698
0.00013087503
0.0001335906
0.0001362066
0.00013872574
0.00014115046
0.00014348336
0.00014572734
0.00014788506
0.00014995902
0.00015195173
0.00015386564
0.00015570322
0.00015746683
0.00015915854
0.00016078066
0.00016233532
0.00016382462
0.00016525062
0.0001666153
0.00016792062
0.00016916847
0.00017036069
0.00017149908
0.0001725854
0.00017362136
0.00017460862
0.00017554881
0.00017644357
0.00017729439
0.00017810302
0.00017887061
0.00017959967
0.00018028975
0.00018094675
0.00018156412
0.00018215982
0.00018270232
0.00018327782
0.00018369168
0.00018450145
0.00020269998
0.00020534505
0.00020720816
0.00020716694
0.00020438344
0.00019857725
0.00018999646
0.00017921792
0.00016693914
0.0001538349
0.0001404621
0.00012724439
0.00011441942
0.00010213664
9.0521653e-05
7.9639651e-05
6.951067e-05
6.0125195e-05
5.1501032e-05
4.3635174e-05
3.6485356e-05
3.0054263e-05
2.4343789e-05
1.9339453e-05
1.5050942e-05
1.1503076e-05
8.6746142e-06
6.507153e-06
5.0210492e-06
4.1093944e-06
3.7012543e-06
3.8846629e-06
4.7150115e-06
6.289835e-06
8.7244438e-06
1.203764e-05
1.6233894e-05
2.1173307e-05
2.6625532e-05
3.235961e-05
3.8209011e-05
4.407869e-05
4.9915083e-05
5.5681348e-05
6.1350926e-05
6.6906629e-05
7.2337619e-05
7.7636642e-05
8.279913e-05
8.7822623e-05
9.2705989e-05
9.7449156e-05
0.00010205282
0.00010651817
0.00011084681
0.0001150405
0.00011910132
0.00012303163
0.00012683409
0.00013051144
0.00013406645
0.00013750186
0.00014082049
0.00014402516
0.00014711849
0.00015010315
0.00015298206
0.00015575806
0.00015843388
0.0001610122
0.0001634957
0.00016588702
0.0001681888
0.00017040341
0.00017253336
0.00017458106
0.00017654888
0.00017843914
0.00018025412
0.00018199604
0.00018366708
0.00018526937
0.00018680499
0.00018827598
0.00018968433
0.000191032
0.00019232088
0.00019355289
0.00019472982
0.00019585369
0.00019692591
0.00019794928
0.00019892359
0.00019985502
0.00020073721
0.00020158864
0.0002023758
0.00020319586
0.00020380389
0.00020497187
0.00020306451
0.00020536904
0.00020746185
0.00020875519
0.00020868894
0.00020683808
0.00020301216
0.00019725755
0.00018979713
0.00018096182
0.00017111954
0.00016062901
0.0001497828
0.00013880351
0.00012787412
0.00011713851
0.0001066988
9.6634754e-05
8.6914349e-05
7.7569484e-05
6.8631252e-05
6.0125581e-05
5.2070974e-05
4.4525412e-05
3.750047e-05
3.1033598e-05
2.5169117e-05
1.9930294e-05
1.5431551e-05
1.1712615e-05
8.7607536e-06
6.6226256e-06
5.2306293e-06
4.4960831e-06
4.4556606e-06
5.1930651e-06
6.7797901e-06
9.3405161e-06
1.2897535e-05
1.7444751e-05
2.2811773e-05
2.8734475e-05
3.4959606e-05
4.1311707e-05
4.7691636e-05
5.404129e-05
6.0320216e-05
6.6500203e-05
7.2563043e-05
7.8496794e-05
8.429339e-05
8.9947806e-05
9.5457138e-05
0.00010081987
0.00010603556
0.00011110448
0.0001160275
0.00012080602
0.0001254419
0.0001299373
0.00013429455
0.00013851607
0.00014260445
0.00014656235
0.00015039238
0.00015409718
0.00015767958
0.00016114244
0.00016448857
0.00016772075
0.00017084177
0.00017385441
0.00017676143
0.00017956547
0.00018226917
0.00018487517
0.00018738604
0.00018980434
0.00019213256
0.00019437319
0.00019652864
0.00019860129
0.00020059349
0.00020250752
0.00020434566
0.00020611011
0.00020780304
0.00020942665
0.00021098297
0.00021247431
0.00021390235
0.00021527014
0.00021657775
0.00021783162
0.00021902559
0.00022017867
0.00022125516
0.00022236461
0.00022320423
0.00022479322
0.00020378487
0.00020566309
0.00020751032
0.00020901928
0.00020989607
0.00020985363
0.00020865708
0.00020616204
0.00020232637
0.00019720674
0.0001909377
0.00018370403
0.00017570595
0.00016713243
0.00015815473
0.00014892506
0.00013957149
0.00013020921
0.00012089404
0.00011166961
0.00010257972
9.3661375e-05
8.4962185e-05
7.6424962e-05
6.8074362e-05
5.9952238e-05
5.2107801e-05
4.4590198e-05
3.7483469e-05
3.0865821e-05
2.4789539e-05
1.9398939e-05
1.4815648e-05
1.1084118e-05
8.2937206e-06
6.4222962e-06
5.3684674e-06
5.1666655e-06
5.8792467e-06
7.5831357e-06
1.0381632e-05
1.431403e-05
1.9333637e-05
2.521817e-05
3.1665642e-05
3.841008e-05
4.5278591e-05
5.2173922e-05
5.9035752e-05
6.5821924e-05
7.250417e-05
7.906421e-05
8.5489684e-05
9.1772246e-05
9.7906563e-05
0.00010388931
0.00010971866
0.00011539394
0.00012091536
0.00012628381
0.00013150062
0.0001365675
0.00014148641
0.0001462596
0.00015088937
0.00015537812
0.00015972846
0.00016394309
0.00016802474
0.00017197616
0.00017580012
0.00017949944
0.00018307694
0.00018653537
0.00018987746
0.00019310599
0.00019622368
0.00019923325
0.00020213737
0.0002049387
0.00020763987
0.00021024346
0.00021275204
0.00021516812
0.0002174942
0.00021973273
0.00022188612
0.00022395681
0.00022594709
0.00022785951
0.00022969602
0.00023145992
0.00023315154
0.00023477755
0.00023633203
0.00023783455
0.00023924703
0.00024069272
0.00024180385
0.00024387947
0.00020487973
0.0002063735
0.00020788447
0.00020923474
0.00021027839
0.0002108693
0.00021085784
0.00021010303
0.00020848993
0.00020594854
0.00020246306
0.00019806887
0.00019284089
0.00018687738
0.00018028699
0.00017318092
0.00016566555
0.00015784391
0.00014979954
0.00014159754
0.00013329349
0.00012493374
0.00011657307
0.00010821845
9.9878926e-05
9.1572919e-05
8.3340902e-05
7.5152172e-05
6.6996012e-05
5.8938612e-05
5.1026082e-05
4.3368257e-05
3.6086363e-05
2.9261014e-05
2.3066101e-05
1.7694558e-05
1.3240698e-05
9.8610889e-06
7.5645209e-06
6.2437021e-06
5.9892697e-06
6.7785041e-06
8.7416801e-06
1.1921072e-05
1.6386742e-05
2.2012423e-05
2.8505345e-05
3.5528862e-05
4.2819238e-05
5.021732e-05
5.7632261e-05
6.500459e-05
7.2293228e-05
7.9471042e-05
8.651994e-05
9.3427508e-05
0.00010018546
0.00010678839
0.00011323293
0.00011951724
0.00012564061
0.00013160316
0.00013740566
0.00014304937
0.00014853591
0.00015386712
0.00015904511
0.00016407218
0.00016895079
0.00017368348
0.00017827286
0.00018272164
0.00018703257
0.00019120838
0.00019525186
0.00019916577
0.00020295293
0.00020661612
0.00021015813
0.00021358174
0.00021688972
0.00022008482
0.00022316974
0.00022614721
0.00022901988
0.00023179043
0.00023446147
0.00023703565
0.0002395155
0.00024190378
0.00024420268
0.00024641574
0.00024854354
0.00025059295
0.00025255833
0.00025445981
0.00025625674
0.00025808741
0.0002595123
0.00026214303
0.00020632624
0.00020750228
0.00020870302
0.0002098122
0.00021074998
0.00021145021
0.00021184384
0.00021184938
0.00021137505
0.0002103326
0.00020865238
0.00020629215
0.00020323981
0.00019951043
0.00019514048
0.00019018164
0.00018469439
0.00017874518
0.00017240005
0.00016571928
0.00015875712
0.0001515608
0.00014417915
0.00013664709
0.00012898857
0.00012122232
0.00011337865
0.00010546427
9.7467901e-05
8.9400238e-05
8.1296446e-05
7.3106196e-05
6.4853227e-05
5.6605044e-05
4.8448326e-05
4.0570101e-05
3.3071283e-05
2.616657e-05
2.0105179e-05
1.502134e-05
1.1170179e-05
8.5556658e-06
7.0721831e-06
6.9252264e-06
7.9429459e-06
1.0347163e-05
1.4117106e-05
1.9284387e-05
2.5631851e-05
3.2797019e-05
4.0428305e-05
4.8283034e-05
5.6221767e-05
6.4160482e-05
7.2042431e-05
7.9829551e-05
8.7496644e-05
9.5026435e-05
0.00010240709
0.00010963065
0.00011669189
0.00012358758
0.00013031599
0.00013687643
0.00014326904
0.00014949452
0.00015555402
0.0001614491
0.00016718161
0.00017275362
0.00017816739
0.0001834253
0.00018852989
0.00019348375
0.00019828952
0.00020294993
0.00020746771
0.00021184566
0.00021608659
0.00022019333
0.00022416869
0.00022801551
0.00023173663
0.00023533486
0.00023881302
0.00024217392
0.00024542035
0.00024855512
0.00025158096
0.00025450083
0.00025731712
0.00026003356
0.00026265101
0.00026517646
0.00026760461
0.00026995612
0.00027218769
0.00027445378
0.00027623687
0.00027949401
0.00020809499
0.00020901543
0.0002099571
0.00021083763
0.0002116049
0.00021222687
0.00021267905
0.00021292937
0.00021292989
0.00021261993
0.00021193522
0.00021081665
0.00020921718
0.00020710571
0.00020446811
0.00020130602
0.00019763398
0.00019347711
0.00018886811
0.00018384342
0.00017844056
0.00017269572
0.00016664569
0.00016032457
0.00015376118
0.0001469782
0.00013999984
0.00013284536
0.00012552206
0.00011803347
0.00011039979
0.00010260676
9.4641123e-05
8.6513549e-05
7.8245947e-05
6.9781278e-05
6.1193059e-05
5.2576287e-05
4.4145167e-05
3.6027345e-05
2.8503306e-05
2.1862914e-05
1.627225e-05
1.2117275e-05
9.3328298e-06
7.8758782e-06
7.9516329e-06
9.4561017e-06
1.2493536e-05
1.7089716e-05
2.3143821e-05
3.0320009e-05
3.820524e-05
4.6466377e-05
5.4898726e-05
6.3384369e-05
7.1847382e-05
8.023645e-05
8.8517471e-05
9.6667296e-05
0.00010467
0.00011251479
0.00012019437
0.00012770401
0.00013504076
0.00014220297
0.00014918999
0.00015600194
0.00016263954
0.00016910395
0.00017539672
0.00018151966
0.00018747485
0.0001932645
0.00019889099
0.00020435681
0.00020966452
0.0002148168
0.00021981635
0.00022466596
0.00022936843
0.0002339266
0.00023834333
0.0002426215
0.000246764
0.00025077373
0.00025465358
0.0002584065
0.00026203536
0.00026554328
0.00026893281
0.00027220785
0.00027536951
0.00027842487
0.00028136896
0.000284223
0.00028694091
0.00028969446
0.00029188221
0.00029583977
0.00021016024
0.00021087607
0.00021160772
0.00021229454
0.00021289733
0.00021339604
0.0002137838
0.0002140545
0.0002141923
0.00021416847
0.00021394394
0.00021347356
0.00021271121
0.00021161453
0.00021014844
0.0002082872
0.00020601471
0.00020332436
0.00020021821
0.00019670539
0.00019280025
0.00018852038
0.00018388599
0.00017891879
0.00017364036
0.00016807014
0.0001622269
0.00015612847
0.00014978827
0.0001432138
0.00013641668
0.00012940001
0.00012215803
0.00011468636
0.00010699408
9.9047293e-05
9.0837245e-05
8.2395893e-05
7.3677893e-05
6.4721969e-05
5.5647534e-05
4.6688033e-05
3.7990699e-05
2.9948968e-05
2.2833455e-05
1.6943199e-05
1.2632568e-05
9.8527463e-06
8.7785789e-06
9.3046858e-06
1.15494e-05
1.5480813e-05
2.1115872e-05
2.8179669e-05
3.6229151e-05
4.4844652e-05
5.3742192e-05
6.2757831e-05
7.17913e-05
8.0775835e-05
8.9667125e-05
9.8435456e-05
0.00010706038
0.00011552786
0.00012382821
0.00013195489
0.00013990354
0.00014767148
0.00015525726
0.00016266036
0.000169881
0.00017691995
0.00018377843
0.00019045799
0.00019696046
0.00020328787
0.00020944247
0.00021542661
0.00022124279
0.00022689361
0.00023238175
0.00023770995
0.00024288101
0.00024789779
0.00025276316
0.00025748005
0.00026205142
0.00026648027
0.00027076956
0.0002749225
0.0002789418
0.00028283144
0.00028659278
0.00029023294
0.00029374732
0.00029715762
0.000300415
0.00030370942
0.00030635014
0.00031108479
0.00021250188
0.0002130533
0.00021361557
0.00021414345
0.00021460546
0.00021498532
0.0002152807
0.00021549487
0.00021562797
0.00021567237
0.00021561166
0.00021542127
0.00021507054
0.0002145255
0.00021375187
0.00021271762
0.00021139467
0.00020976011
0.00020779694
0.0002054941
0.000202846
0.00019985175
0.00019651442
0.00019284038
0.00018883846
0.00018451863
0.00017989147
0.00017496809
0.00016975896
0.00016427178
0.00015851415
0.00015249155
0.00014620454
0.0001396494
0.00013282719
0.00012572583
0.00011832701
0.00011063315
0.00010261421
9.424621e-05
8.5550354e-05
7.6515927e-05
6.7137948e-05
5.7589612e-05
4.8093768e-05
3.8894028e-05
3.0417255e-05
2.2937601e-05
1.7004595e-05
1.2786342e-05
1.0313235e-05
9.8398969e-06
1.118795e-05
1.4427042e-05
1.9569087e-05
2.6428699e-05
3.4564677e-05
4.3485067e-05
5.282026e-05
6.2350009e-05
7.1944596e-05
8.1519805e-05
9.1019677e-05
0.00010040682
0.00010965558
0.00011874822
0.00012767241
0.00013641962
0.00014498405
0.00015336192
0.00016155094
0.00016954994
0.0001773586
0.00018497727
0.0001924068
0.00019964846
0.00020670384
0.00021357479
0.00022026339
0.00022677188
0.00023310267
0.00023925829
0.00024524135
0.00025105458
0.00025670077
0.0002621828
0.00026750356
0.00027266608
0.00027767334
0.00028252858
0.00028723461
0.00029179545
0.00029621268
0.00030049338
0.00030463335
0.00030865475
0.00031250592
0.00031639592
0.00031953955
0.00032513042
0.00021510478
0.00021552314
0.00021594828
0.00021634642
0.00021669179
0.00021696961
0.00021717744
0.00021731997
0.00021740273
0.00021742804
0.00021739314
0.00021728921
0.00021710136
0.00021680946
0.00021638966
0.00021581606
0.00021506217
0.00021410236
0.00021291313
0.0002114739
0.00020976754
0.00020778046
0.00020550262
0.00020292734
0.00020005096
0.00019687233
0.00019339222
0.00018961294
0.0001855379
0.00018117036
0.00017651354
0.00017157022
0.00016634143
0.00016082509
0.00015501919
0.00014891796
0.00014250851
0.00013578243
0.00012872293
0.00012130406
0.00011351411
0.00010533261
9.6716819e-05
8.7696231e-05
7.8251488e-05
6.8396483e-05
5.8339011e-05
4.8286217e-05
3.8660144e-05
2.9854393e-05
2.2281499e-05
1.6541368e-05
1.2675039e-05
1.1030228e-05
1.1404391e-05
1.3934226e-05
1.8524221e-05
2.5102966e-05
3.3255514e-05
4.2434938e-05
5.2184452e-05
6.2217698e-05
7.2368791e-05
8.2533325e-05
9.2642442e-05
0.00010265032
0.00011252564
0.0001222467
0.00013179839
0.00014117015
0.00015035468
0.00015934707
0.00016814414
0.00017674402
0.00018514582
0.00019334945
0.00020135539
0.00020916461
0.00021677845
0.00022419858
0.0002314269
0.00023846555
0.00024531683
0.0002519832
0.00025846723
0.00026477163
0.00027089919
0.00027685284
0.00028263549
0.00028825037
0.00029370032
0.00029898933
0.00030411917
0.00030909681
0.00031391848
0.00031860672
0.00032310707
0.00032764844
0.00033134637
0.00033787493
0.00021795767
0.00021826748
0.00021858082
0.00021887261
0.00021912172
0.00021931454
0.00021944753
0.00021952409
0.00021955011
0.00021953104
0.0002194702
0.00021936749
0.0002192187
0.00021901525
0.00021874449
0.00021839039
0.00021793423
0.00021735554
0.00021663312
0.00021574591
0.00021467377
0.000213398
0.00021190181
0.00021017059
0.00020819204
0.00020595612
0.00020345494
0.0002006825
0.00019763449
0.00019430774
0.00019069987
0.00018680897
0.00018263303
0.00017816889
0.00017341266
0.00016835912
0.00016299921
0.0001573229
0.00015131734
0.0001449629
0.0001382403
0.00013112946
0.00012359447
0.00011561926
0.00010717588
9.821564e-05
8.8789402e-05
7.88241e-05
6.8423844e-05
5.7791869e-05
4.7239642e-05
3.7296634e-05
2.829733e-05
2.1034224e-05
1.5758362e-05
1.270952e-05
1.2122443e-05
1.3876016e-05
1.790471e-05
2.4181916e-05
3.2319706e-05
4.173241e-05
5.1882421e-05
6.241389e-05
7.3120523e-05
8.3875645e-05
9.459654e-05
0.00010522842
0.00011573409
0.00012608777
0.00013627146
0.00014627252
0.0001560821
0.00016569409
0.0001751044
0.00018431042
0.00019331072
0.00020210471
0.00021069251
0.00021907479
0.00022725266
0.00023522757
0.00024300128
0.0002505758
0.00025795335
0.0002651363
0.00027212723
0.00027892885
0.00028554395
0.00029197561
0.00029822665
0.00030430095
0.00031020043
0.00031593186
0.00032149193
0.00032690347
0.00033210928
0.00033735874
0.00034166363
0.00034921345
0.0002210521
0.00022127269
0.00022149419
0.00022169818
0.00022186743
0.00022198958
0.00022206019
0.0002220809
0.00022205632
0.00022199188
0.00022189258
0.00022176195
0.00022160129
0.00022140909
0.00022118082
0.00022090897
0.00022058311
0.00022019028
0.00021971549
0.00021914227
0.00021845322
0.00021763062
0.00021665687
0.00021551502
0.00021418908
0.0002126643
0.00021092737
0.00020896645
0.00020677118
0.00020433256
0.00020164274
0.0001986948
0.00019548245
0.0001919995
0.00018823956
0.00018419582
0.00017985987
0.00017522183
0.00017027013
0.00016498952
0.0001593619
0.00015336792
0.00014698003
0.00014017174
0.00013291563
0.00012516498
0.00011690979
0.00010809402
9.8682514e-05
8.8742243e-05
7.8151913e-05
6.7146908e-05
5.5900038e-05
4.4985398e-05
3.4822049e-05
2.6053989e-05
1.9353646e-05
1.4956749e-05
1.3349356e-05
1.426474e-05
1.7717713e-05
2.3676403e-05
3.1780729e-05
4.1412314e-05
5.1956575e-05
6.298597e-05
7.4250614e-05
8.5600077e-05
9.6937259e-05
0.00010819812
0.00011933936
0.00013033105
0.00014115224
0.00015178816
0.00016222838
0.00017246559
0.00018249475
0.00019231255
0.00020191696
0.00021130694
0.00022048224
0.00022944323
0.00023819077
0.00024672614
0.00025505094
0.00026316708
0.0002710767
0.00027878217
0.00028628602
0.00029359111
0.00030070012
0.00030761672
0.00031434293
0.00032088524