/*--------------------------------*- C++ -*----------------------------------*\
| =========                 |                                                 |
| \\      /  F ield         | OpenFOAM: The Open Source CFD Toolbox           |
|  \\    /   O peration     | Version:  2206                                  |
|   \\  /    A nd           | Website:  www.openfoam.com                      |
|    \\/     M anipulation  |                                                 |
\*---------------------------------------------------------------------------*/
FoamFile
{
    version     2.0;
    format      ascii;
    arch        "LSB;label=32;scalar=64";
    class       volScalarField;
    location    "1200";
    object      p;
}
// * * * * * * * * * * * * * * * * * * * * * * * * * * * * * * * * * * * * * //

dimensions      [0 2 -2 0 0 0 0];

internalField   nonuniform List<scalar> 
7480
(
0.062836588
0.051923626
0.036520564
0.027162537
0.021881744
0.018711257
0.016711573
0.015182654
0.013841907
0.012724388
0.011837823
0.01114129
0.010613544
0.01022817
0.0099542795
0.0097694461
0.0096533423
0.0095916875
0.0095650792
0.0095612812
0.0095820229
0.0096043386
0.0096200091
0.0096315392
0.0096368903
0.0096348388
0.0096261842
0.0096111064
0.0095881854
0.0095579811
0.0095217391
0.0094799227
0.0094330173
0.0093817978
0.0093262535
0.00926655
0.0092028852
0.0091351679
0.0090637944
0.00898918
0.0089113858
0.0088303141
0.0087465049
0.008660043
0.0085709135
0.0084795035
0.0083856274
0.0082894064
0.0081910421
0.0080902889
0.0079874844
0.0078825991
0.0077756512
0.0076668075
0.0075558338
0.0074429602
0.0073280982
0.0072112512
0.0070924148
0.006971531
0.0068487215
0.0067238458
0.0065970074
0.0064680996
0.006337148
0.0062041053
0.0060689345
0.0059316059
0.005792085
0.0056503667
0.0055063963
0.0053601703
0.0052116339
0.0050607958
0.0049075952
0.0047520412
0.0045940812
0.0044337445
0.0042709908
0.0041058696
0.0039383629
0.0037685476
0.0035964583
0.003422189
0.0032458846
0.0030676681
0.0028878614
0.0027066584
0.0025247426
0.0023422609
0.0021610816
0.0019801275
0.0018063872
0.0016304385
0.0014832299
0.0013113946
0.0012515575
0.0010468682
0.0018269327
-0.0018078436
0.059146125
0.050916859
0.038583568
0.02930492
0.023002843
0.019209927
0.016956649
0.015335018
0.013957292
0.012824111
0.011926626
0.011220414
0.010684418
0.010291216
0.010009757
0.0098180615
0.0096960859
0.0096291011
0.0096009122
0.0095985366
0.0096118515
0.0096272168
0.0096405672
0.009650089
0.009653633
0.0096500324
0.0096400321
0.0096237498
0.0095997605
0.0095686291
0.0095315748
0.009489028
0.0094414663
0.0093896542
0.0093335709
0.0092733803
0.0092092767
0.009141162
0.0090694245
0.0089944771
0.0089163758
0.0088350212
0.0087509516
0.0086642471
0.0085748922
0.0084832726
0.0083892004
0.0082927972
0.0081942625
0.0080933495
0.0079903955
0.0078853692
0.0077782886
0.0076693197
0.0075582276
0.0074452424
0.0073302747
0.0072133278
0.0070943969
0.0069734235
0.0068505289
0.0067255722
0.0065986568
0.0064696759
0.0063386546
0.0062055457
0.0060703119
0.0059329233
0.0057933452
0.0056515724
0.00550755
0.0053612745
0.0052126907
0.0050618074
0.0049085638
0.0047529687
0.0045949695
0.0044345953
0.0042718058
0.0041066505
0.0039391112
0.0037692648
0.0035971459
0.0034228483
0.0032465169
0.0030682748
0.0028884437
0.0027072176
0.00252528
0.0023427777
0.0021615794
0.0019806073
0.0018068519
0.0016308885
0.0014836715
0.001311828
0.0012519962
0.0010473895
0.0018273476
-0.0018072826
0.055378709
0.048603857
0.037817303
0.029070615
0.023263221
0.019721052
0.017455102
0.015738352
0.014276416
0.013092522
0.012158216
0.011421166
0.010861191
0.010447762
0.010148864
0.00994261
0.009807796
0.0097292736
0.0096917008
0.0096804098
0.0096824717
0.0096900522
0.0096971386
0.0097009106
0.0096994218
0.0096915419
0.0096778277
0.0096581497
0.0096311178
0.0095973433
0.009557987
0.0095133729
0.0094639556
0.0094104677
0.0093528653
0.0092912826
0.0092259241
0.0091566929
0.0090839202
0.009008029
0.0089290623
0.0088469132
0.0087621177
0.0086747422
0.0085847676
0.0084925746
0.0083979681
0.0083010713
0.0082020782
0.0081007376
0.0079973867
0.007891989
0.0077845615
0.0076752675
0.0075638697
0.0074505984
0.0073353613
0.0072181607
0.0070989912
0.0069777932
0.0068546867
0.0067295296
0.006602425
0.0064732649
0.0063420743
0.0062088049
0.0060734191
0.0059358865
0.0057961718
0.0056542695
0.005510124
0.0053637315
0.0052150367
0.0050640479
0.0049107038
0.0047550132
0.0045969233
0.0044364628
0.0042735911
0.0041083577
0.003940744
0.0037708268
0.0035986406
0.003424279
0.0032478868
0.0030695869
0.0028897011
0.0027084231
0.0025264368
0.0023438886
0.0021626482
0.0019816358
0.0018078479
0.0016318495
0.0014846181
0.0013127476
0.0012529454
0.0010483448
0.0018284303
-0.0018065493
0.052475741
0.046885589
0.037562502
0.029382148
0.023837636
0.020273846
0.017914751
0.016147194
0.014652891
0.01343921
0.012471112
0.0116989
0.011109881
0.010670808
0.010348584
0.010121511
0.0099674763
0.0098717867
0.0098190174
0.0097943282
0.0097851149
0.0097830697
0.0097815388
0.0097776568
0.0097692785
0.0097553119
0.009736222
0.0097116255
0.0096801572
0.0096424969
0.0095996938
0.0095519434
0.0094996963
0.0094436452
0.0093837102
0.009319917
0.0092525575
0.0091815619
0.0091071174
0.0090297068
0.0089493461
0.0088659139
0.0087799447
0.0086914838
0.0086005068
0.0085073853
0.0084119107
0.0083142121
0.0082144744
0.008112439
0.008008444
0.0079024445
0.0077944559
0.0076846367
0.0075727455
0.0074590133
0.0073433422
0.0072257335
0.0071061801
0.0069846217
0.0068611762
0.0067356989
0.0066082924
0.0064788474
0.0063473877
0.0062138635
0.0060782367
0.0059404761
0.0058005457
0.0056584389
0.0055140994
0.0053675229
0.0052186536
0.0050674991
0.0049139977
0.0047581577
0.0045999258
0.0044393305
0.0042763307
0.0041109754
0.0039432459
0.0037732187
0.0036009279
0.0034264669
0.0032499803
0.0030715908
0.0028916202
0.0027102618
0.0025282
0.0023455803
0.0021642745
0.0019831996
0.0018093598
0.0016333074
0.0014860493
0.0013141364
0.0012543692
0.0010497193
0.001830099
-0.001805564
0.049757257
0.045058097
0.037097565
0.029735066
0.024475498
0.020858151
0.018376193
0.01651321
0.014947668
0.013716778
0.012745263
0.01196551
0.011360287
0.010898948
0.01055698
0.010312025
0.010141592
0.010030996
0.009962709
0.0099232178
0.0099011624
0.0098875677
0.0098767377
0.0098652391
0.0098500649
0.0098299404
0.0098053259
0.0097756717
0.009739556
0.0096977251
0.0096510978
0.0095997791
0.0095442435
0.0094851815
0.0094224883
0.0093560579
0.0092862915
0.0092131405
0.0091366476
0.0090573602
0.0089752663
0.0088902301
0.0088027879
0.0087129585
0.0086207132
0.0085264146
0.0084298335
0.0083311065
0.0082304108
0.0081274796
0.0080226539
0.0079158765
0.0078071618
0.0076966636
0.0075841346
0.007469807
0.0073535743
0.0072354366
0.0071153859
0.006993361
0.0068694774
0.0067435861
0.0066157898
0.0064859768
0.0063541699
0.0062203172
0.0060843795
0.0059463252
0.0058061169
0.0056637468
0.0055191576
0.0053723447
0.0052232512
0.0050718842
0.0049181809
0.0047621493
0.0046037355
0.0044429675
0.0042798036
0.0041142925
0.0039464149
0.003776247
0.0036038225
0.0034292346
0.0032526274
0.0030741235
0.0028940445
0.0027125835
0.002530425
0.002347714
0.0021663238
0.0019851687
0.0018112603
0.0016351391
0.0014878388
0.0013158719
0.0012561295
0.0010514195
0.0018321729
-0.001804337
0.04724118
0.043149283
0.036409196
0.029868371
0.02490165
0.021346901
0.018825278
0.016907327
0.015305233
0.014034428
0.01302324
0.012203201
0.011571504
0.011091547
0.010740392
0.010483665
0.010296268
0.010174899
0.010097399
0.010049576
0.010019944
0.0099976368
0.0099778724
0.0099577213
0.0099345422
0.0099076311
0.0098775963
0.0098433352
0.009803006
0.0097573806
0.0097072112
0.009652481
0.0095937014
0.0095316024
0.0094660635
0.0093969259
0.0093246589
0.0092491949
0.0091705124
0.0090891975
0.0090052093
0.0089183975
0.0088293124
0.0087379418
0.0086442535
0.0085486129
0.0084507687
0.0083508639
0.0082490679
0.0081451019
0.0080393121
0.0079316277
0.0078220646
0.0077107719
0.007597497
0.0074824719
0.0073655791
0.0072468196
0.0071261844
0.0070036108
0.0068792111
0.0067528315
0.006624575
0.0064943279
0.0063621117
0.0062278713
0.0060915667
0.0059531658
0.0058126298
0.0056699492
0.0055250658
0.005377974
0.0052286165
0.0050769992
0.0049230582
0.0047668012
0.0046081733
0.0044472022
0.0042838453
0.004118151
0.0039500994
0.0037797662
0.0036071847
0.0034324476
0.0032556989
0.0030770606
0.0028968543
0.0027152728
0.0025330005
0.0023501819
0.0021686917
0.001987442
0.0018134501
0.0016372477
0.0014898892
0.001317858
0.0012581221
0.0010533518
0.001834518
-0.0018029097
0.045044518
0.04135917
0.035589389
0.029804851
0.02518285
0.021748019
0.01922172
0.01727215
0.015659281
0.0143629
0.013322317
0.012474351
0.011811839
0.011301287
0.010921297
0.01063735
0.010427315
0.010292984
0.010207056
0.010151104
0.010114581
0.010088723
0.010067225
0.010045307
0.010019148
0.0099875739
0.009952025
0.009912245
0.0098668692
0.0098172649
0.009763889
0.0097062342
0.0096446984
0.0095799953
0.0095119199
0.0094403071
0.0093657088
0.0092880167
0.009207187
0.0091238654
0.0090379718
0.0089493427
0.0088585596
0.0087655762
0.0086703593
0.0085732886
0.0084740922
0.0083729243
0.0082699434
0.0081648537
0.0080580119
0.0079493332
0.0078388347
0.007726663
0.0076125569
0.007496752
0.0073791218
0.0072596685
0.0071383805
0.0070151912
0.0068902107
0.0067632806
0.0066345046
0.0065037672
0.0063710885
0.0062364093
0.0060996891
0.0059608957
0.0058199881
0.0056769556
0.0055317386
0.0053843308
0.0052346738
0.0050827723
0.0049285615
0.0047720485
0.0046131776
0.0044519759
0.0042884
0.0041224977
0.0039542485
0.0037837277
0.0036109679
0.0034360615
0.003259152
0.0030803612
0.0029000102
0.0027182914
0.0025358895
0.0023529484
0.0021713436
0.0019899858
0.0018158959
0.0016396007
0.001492167
0.0013200611
0.0012603098
0.001055474
0.0018370776
-0.0018012876
0.043129358
0.039802002
0.034780266
0.029631842
0.025351954
0.022059901
0.019560931
0.017602498
0.015984964
0.014669854
0.01360841
0.012743061
0.012058592
0.011522684
0.011119275
0.010811138
0.010576427
0.01042072
0.010313824
0.010239421
0.010189167
0.010155932
0.010131181
0.010106942
0.0100808
0.010050926
0.010016717
0.0099773724
0.0099304327
0.009877678
0.0098205548
0.0097592355
0.009694663
0.0096275858
0.0095574107
0.0094837825
0.009407293
0.0093277346
0.0092450356
0.0091599248
0.0090722829
0.0089819463
0.0088895437
0.0087949946
0.0086982745
0.0085997815
0.0084992205
0.0083967674
0.0082925712
0.0081863185
0.0080783831
0.0079686641
0.0078571805
0.0077440772
0.0076290823
0.0075124399
0.0073940173
0.0072738174
0.0071518241
0.0070279671
0.0069023551
0.006774825
0.0066454822
0.0065142074
0.0063810201
0.0062458586
0.0061086817
0.0059694558
0.0058281382
0.0056847173
0.0055391319
0.0053913747
0.0052413859
0.0050891694
0.0049346594
0.0047778626
0.0046187221
0.0044572643
0.0042934451
0.0041273117
0.0039588428
0.0037881134
0.0036151553
0.0034400605
0.003262972
0.0030840112
0.0029034989
0.0027216271
0.0025390804
0.0023560023
0.0021742684
0.0019927893
0.001818587
0.0016421874
0.0014946607
0.0013224694
0.0012626783
0.0010577676
0.0018398202
-0.0017994547
0.041416166
0.038437641
0.034050679
0.029440996
0.025465351
0.022312246
0.019855898
0.017902167
0.016285999
0.014961088
0.013884628
0.013003945
0.012299254
0.011742669
0.011316144
0.010987155
0.010734058
0.010558055
0.010432097
0.010341019
0.010275957
0.010228605
0.010191403
0.010156664
0.01012393
0.010092542
0.010058483
0.010019783
0.0099758471
0.0099262513
0.0098713535
0.0098103337
0.009744147
0.0096744963
0.0096016214
0.0095256585
0.009447416
0.0093663651
0.0092822169
0.0091957326
0.0091067
0.009014947
0.0089211619
0.0088252283
0.0087271446
0.0086273363
0.0085254847
0.0084218002
0.008316425
0.0082090287
0.0081000092
0.0079892481
0.0078767703
0.0077627202
0.007646815
0.0075293101
0.0074100653
0.0072890862
0.0071663535
0.0070417938
0.0069155149
0.0067873493
0.0066574045
0.006525556
0.0063918237
0.0062561453
0.0061184784
0.0059787869
0.0058370272
0.0056931864
0.0055472024
0.0053990666
0.0052487176
0.005096159
0.0049413236
0.0047842177
0.0046247833
0.0044630463
0.0042989615
0.0041325757
0.0039638666
0.0037929089
0.0036197337
0.0034444326
0.0032671479
0.0030880005
0.0029073111
0.0027252711
0.0025425648
0.0023593356
0.0021774589
0.0019958454
0.0018215164
0.0016450009
0.0014973627
0.0013250748
0.0012652174
0.0010602199
0.0018427183
-0.0017973877
0.039860768
0.03720069
0.033371185
0.029245523
0.025553299
0.022535541
0.020127883
0.0181846
0.016571913
0.015240946
0.014152073
0.013257574
0.01253529
0.011959922
0.011511936
0.011163411
0.010892575
0.010696756
0.010553222
0.010447453
0.010368665
0.010308328
0.010260362
0.010216269
0.010175005
0.010135785
0.010094366
0.01004977
0.010004118
0.0099553385
0.0099019935
0.0098440971
0.00978157
0.0097147096
0.0096430615
0.0095664393
0.0094864706
0.0094034655
0.0093175856
0.0092298311
0.009139728
0.0090469353
0.008952147
0.0088551602
0.0087559893
0.0086550933
0.0085521284
0.008447355
0.0083409136
0.0082324596
0.0081224241
0.0080106709
0.0078972362
0.0077822653
0.0076654648
0.0075471052
0.0074270372
0.0073052719
0.0071817882
0.0070565109
0.0069295476
0.0068007261
0.0066701571
0.0065377119
0.0064034106
0.0062671902
0.0061290078
0.0059888255
0.0058465984
0.0057023126
0.0055559049
0.0054073661
0.0052566331
0.0051037088
0.0049485254
0.0047910882
0.0046313385
0.0044693014
0.0043049308
0.0041382731
0.0039693052
0.0037981012
0.0036246914
0.0034491671
0.00327167
0.0030923205
0.0029114389
0.0027292162
0.0025463363
0.0023629425
0.0021809092
0.0019991489
0.0018246785
0.0016480358
0.001500267
0.0013278711
0.001267919
0.0010628204
0.0018457455
-0.0017950597
0.038439856
0.03605963
0.032712255
0.029026609
0.025610081
0.022733036
0.020383207
0.018457207
0.016850139
0.01551489
0.014414887
0.013507327
0.012768754
0.012175435
0.011707512
0.011339928
0.01105159
0.010837028
0.010676671
0.010555478
0.010462873
0.01039043
0.010332166
0.010279685
0.010230812
0.010184531
0.010136794
0.010086976
0.010036342
0.0099825529
0.0099245717
0.0098646125
0.0098028575
0.0097378749
0.0096690262
0.0095960236
0.009518994
0.0094376125
0.0093515992
0.0092626606
0.0091711197
0.0090770737
0.0089813886
0.0088836335
0.0087837132
0.0086820653
0.0085782808
0.008472669
0.0083653673
0.0082560199
0.0081451043
0.0080324677
0.0079181648
0.0078023451
0.0076847047
0.0075655342
0.0074446751
0.0073221461
0.0071979258
0.0070719388
0.0069442939
0.0068148137
0.0066836145
0.0065505635
0.0064156821
0.0062789059
0.0061401923
0.0059995026
0.0058567905
0.0057120415
0.0055651914
0.0054162305
0.0052650945
0.0051117856
0.0049562351
0.004798448
0.0046383645
0.0044760092
0.0043113352
0.0041443883
0.0039751446
0.0038036778
0.0036300175
0.0034542545
0.00327653
0.0030969638
0.0029158758
0.0027334567
0.0025503897
0.0023668183
0.0021846152
0.0020026957
0.0018280697
0.0016512885
0.0015033694
0.0013308537
0.0012707766
0.0010655606
0.0018488764
-0.0017924387
0.037136872
0.035000825
0.032065451
0.028775284
0.025626226
0.022897343
0.020617044
0.018717859
0.017120991
0.015784417
0.014675224
0.013755483
0.013001447
0.012390738
0.011903675
0.01151734
0.011211641
0.010978968
0.010801856
0.010665368
0.010559239
0.010474777
0.010405752
0.010344484
0.010288006
0.010235036
0.010181912
0.010127503
0.010072324
0.010014301
0.0099528157
0.0098895242
0.0098242734
0.009755715
0.0096847312
0.0096123447
0.0095371806
0.0094584005
0.0093758504
0.0092897629
0.0091998268
0.0091058225
0.0090092687
0.0089104415
0.0088096432
0.0087073713
0.0086030276
0.0084968822
0.0083890131
0.0082790272
0.0081674505
0.0080541102
0.0079390884
0.0078225439
0.0077041645
0.0075842676
0.0074626856
0.0073394484
0.0072145355
0.0070878727
0.0069595718
0.006829451
0.006697634
0.0065639843
0.0064285255
0.0062911926
0.0061519439
0.0060107403
0.0058675346
0.0057223122
0.0055750081
0.0054256125
0.00527406
0.0051203525
0.0049644204
0.0048062686
0.0046458363
0.0044831479
0.0043181554
0.0041509045
0.0039813702
0.0038096262
0.0036357011
0.0034596854
0.0032817198
0.0031019234
0.0029206159
0.0027379874
0.0025547205
0.0023709592
0.0021885736
0.0020064829
0.001831687
0.0016547562
0.0015066663
0.0013340192
0.001273785
0.001068433
0.0018520853
-0.001789488
0.03593818
0.034015577
0.031431153
0.028492869
0.025599344
0.023023549
0.020823595
0.018961422
0.017381039
0.016047487
0.014932097
0.014001809
0.013233529
0.012606253
0.012100832
0.011696173
0.011373231
0.011122808
0.01092902
0.010777388
0.010657664
0.010561144
0.010481354
0.010411073
0.010346805
0.010286998
0.010228226
0.010168952
0.010109386
0.010047773
0.0099833553
0.0099171829
0.0098489917
0.0097777842
0.0097044048
0.0096294565
0.0095515079
0.0094709092
0.0093889872
0.009304706
0.0092172649
0.0091264908
0.0090325529
0.0089350521
0.008834251
0.0087312839
0.0086261365
0.0085194161
0.0084111342
0.0083007493
0.0081887808
0.0080749882
0.0079594684
0.007842387
0.0077234237
0.0076029318
0.0074807359
0.0073568823
0.0072313529
0.0071040774
0.0069751725
0.0068444526
0.0067120509
0.0065778281
0.0064418115
0.0063039357
0.006164161
0.0060224486
0.0058787512
0.0057330544
0.0055852929
0.0054354573
0.0052834813
0.0051293669
0.0049730439
0.0048145172
0.0046537252
0.0044906922
0.0043253695
0.0041578025
0.0039879655
0.0038159319
0.0036417298
0.0034654491
0.0032872301
0.0031071915
0.0029256524
0.0027428026
0.002559324
0.002375361
0.0021927806
0.0020105074
0.0018355275
0.0016584364
0.0015101547
0.0013373642
0.0012769389
0.0010714306
0.0018553449
-0.0017861655
0.034832139
0.033096752
0.030811523
0.028184477
0.025531844
0.02311082
0.020999699
0.019183875
0.017626714
0.016301206
0.015183331
0.014244844
0.013464058
0.012821436
0.012298677
0.011876317
0.011536386
0.011268605
0.011058325
0.010891621
0.010758255
0.010649593
0.010558984
0.010479524
0.010407364
0.010340582
0.010275897
0.010211577
0.010147547
0.010082194
0.010014619
0.009945556
0.0098748239
0.0098015553
0.0097262204
0.0096491272
0.0095691495
0.0094867803
0.0094028916
0.0093163834
0.0092276053
0.0091375704
0.0090453919
0.0089503542
0.0088524979
0.0087517899
0.0086475656
0.0085407143
0.0084318655
0.0083209104
0.0082085759
0.0080945019
0.0079787138
0.0078613311
0.0077419977
0.007621099
0.0074984475
0.0073741113
0.0072480783
0.0071202852
0.0069908571
0.0068596052
0.0067266756
0.0065919263
0.0064553901
0.0063170022
0.0061767257
0.0060345232
0.0058903478
0.0057441863
0.0055959736
0.005445701
0.0052933021
0.0051387792
0.0049820618
0.0048231553
0.0046619975
0.0044986127
0.0043329517
0.0041650599
0.0039949108
0.0038225781
0.0036480888
0.0034715329
0.0032930501
0.0031127587
0.0029309774
0.0027478957
0.0025641945
0.002380019
0.0021972324
0.0020147657
0.0018395879
0.001662326
0.0015138312
0.0013408852
0.0012802331
0.0010745458
0.0018586256
-0.0017824236
0.033808685
0.032238096
0.030208602
0.027855943
0.0254281
0.02316072
0.021144409
0.019382815
0.017855344
0.016543049
0.01542676
0.014482912
0.013691764
0.013035373
0.012496533
0.012057307
0.011700828
0.011416166
0.011189673
0.011008022
0.010861048
0.010740204
0.010638716
0.010549924
0.010469714
0.010395814
0.010325067
0.010255575
0.010186952
0.010117677
0.010046785
0.0099747476
0.0099013885
0.0098259003
0.0097485508
0.0096695945
0.0095881153
0.009504368
0.0094188893
0.009330833
0.0092406825
0.0091490121
0.0090549954
0.0089592512
0.0088622961
0.0087633112
0.0086615515
0.0085572681
0.0084501585
0.0083397442
0.0082271638
0.0081126321
0.0079965057
0.0078789114
0.0077593838
0.0076382895
0.0075153864
0.0073907501
0.00726437
0.0071361924
0.0070063545
0.0068746665
0.0067412911
0.0066060851
0.0064690887
0.0063302384
0.0061895015
0.0060468426
0.0059022168
0.0057556125
0.0056069654
0.0054562688
0.0053034561
0.0051485309
0.0049914226
0.0048321375
0.0046706131
0.0045068743
0.0043408712
0.0041726497
0.0040021827
0.0038295442
0.0036547604
0.0034779215
0.0032991667
0.0031186137
0.0029365812
0.0027532583
0.0025693248
0.0023849271
0.0022019235
0.0020192532
0.0018438642
0.0016664216
0.0015176915
0.0013445784
0.0012836617
0.0010777706
0.0018618948
-0.0017782085
0.032859063
0.031434005
0.029623881
0.027512734
0.025293029
0.023175992
0.021258212
0.019557142
0.018065199
0.0167711
0.015660542
0.014714435
0.013915342
0.013247034
0.012693586
0.012238532
0.011866137
0.011565174
0.011322842
0.011126448
0.010965964
0.010832944
0.010720546
0.010622307
0.010533908
0.010452773
0.010375823
0.010301011
0.010227668
0.010154336
0.010079998
0.010004889
0.0099287978
0.0098509604
0.0097715122
0.0096906389
0.00960754
0.0095223488
0.0094355154
0.0093463654
0.0092551697
0.0091622661
0.0090670723
0.0089702279
0.0088717842
0.0087712693
0.0086695034
0.0085662946
0.008460868
0.0083529467
0.0082425229
0.0081291116
0.0080131657
0.0078952974
0.0077754445
0.0076541645
0.0075311378
0.0074063813
0.0072798414
0.0071514521
0.0070213566
0.0068893621
0.0067556526
0.006620085
0.0064827104
0.006343468
0.0062023308
0.0060592667
0.0059142333
0.0057672219
0.0056181699
0.0054670732
0.0053138659
0.0051585534
0.0050010656
0.0048414103
0.0046795249
0.0045154352
0.0043490914
0.0041805398
0.0040097531
0.0038368057
0.0036617233
0.0034845963
0.0033055635
0.0031247426
0.0029424518
0.0027588801
0.0025747061
0.0023900777
0.0022068475
0.0020239644
0.0018483511
0.0016707184
0.0015217308
0.001348439
0.0012872179
0.0010810957
0.0018651158
-0.0017734596
0.031975627
0.030679446
0.029058272
0.027159595
0.025131439
0.023159832
0.021342423
0.019706673
0.018255321
0.016984036
0.01588324
0.014938067
0.014133594
0.013455407
0.012888991
0.012419321
0.012031814
0.011715238
0.011457544
0.011246695
0.011072859
0.01092772
0.010804417
0.010696651
0.010599954
0.010511483
0.010428198
0.01034793
0.010269756
0.010192253
0.010114348
0.010036065
0.0099571429
0.009876855
0.0097952186
0.0097123501
0.0096275394
0.0095408326
0.0094526003
0.0093622573
0.0092699802
0.009176078
0.0090800779
0.0089823677
0.0088829222
0.0087814794
0.0086787791
0.0085741655
0.0084677048
0.0083602545
0.0082511568
0.0081396363
0.0080258905
0.0079096046
0.0077903408
0.0076689836
0.0075457059
0.0074207845
0.0072941613
0.007165705
0.0070355195
0.0069033798
0.0067694817
0.0066336781
0.0064960336
0.0063564922
0.0062150351
0.0060716352
0.0059262538
0.0057788864
0.0056294729
0.0054780126
0.0053244412
0.0051687665
0.0050109197
0.0048509105
0.0046886771
0.0045242464
0.004357569
0.0041886921
0.0040175884
0.003844333
0.0036689515
0.0034915346
0.003312221
0.0031311281
0.0029485742
0.0027647481
0.0025803272
0.0023954611
0.0022119958
0.0020288918
0.0018530421
0.0016752107
0.0015259428
0.0013524609
0.0012908936
0.0010845106
0.0018682474
-0.0017681089
0.031151684
0.029969903
0.02851219
0.026800505
0.024947777
0.023115523
0.021398777
0.019831802
0.018425302
0.017181006
0.016093785
0.015152718
0.01434549
0.013659568
0.01308194
0.012599001
0.012197331
0.01186593
0.011593447
0.011368512
0.011181548
0.011024401
0.010890237
0.010772901
0.010667821
0.010571929
0.010482195
0.010396349
0.010313244
0.01023146
0.010149875
0.010068323
0.0099864844
0.0099036593
0.0098197573
0.0097348237
0.009648223
0.0095599243
0.009470223
0.0093786117
0.0092852009
0.0091902579
0.009093357
0.0089948017
0.0088946139
0.0087925506
0.0086890696
0.0085836368
0.0084764416
0.0083680258
0.0082577184
0.0081459892
0.0080329978
0.007918052
0.007800873
0.0076813197
0.0075589662
0.0074342116
0.0073074335
0.0071788304
0.0070485864
0.0069164132
0.0067824748
0.0066465848
0.0065088074
0.0063690868
0.0062274135
0.0060837674
0.0059381159
0.00579046
0.0056407435
0.0054889699
0.0053350774
0.0051790772
0.0050209021
0.0048605648
0.0046980043
0.00453325
0.0043662526
0.0041970612
0.0040256485
0.003852091
0.0036764142
0.0034987093
0.0033191153
0.0031377495
0.0029549303
0.0027708465
0.0025861742
0.0024010653
0.002217358
0.0020340263
0.0018579286
0.0016798909
0.0015303198
0.001356637
0.0012946794
0.0010880027
0.0018712433
-0.0017620801
0.030381349
0.029301342
0.02798567
0.026438728
0.024746044
0.023046253
0.021429199
0.01993327
0.018575101
0.017361498
0.016291399
0.015357522
0.014550159
0.013858702
0.01327169
0.012776929
0.012362163
0.012016811
0.011730198
0.011491623
0.011291821
0.011122831
0.01097789
0.010850979
0.01073746
0.010634078
0.0105378
0.010446266
0.010358134
0.010271967
0.010186596
0.010101685
0.01001685
0.0099314049
0.0098451654
0.0097581063
0.0096696501
0.0095796992
0.0094884748
0.0093955344
0.0093009273
0.0092048775
0.009107014
0.0090075807
0.0089066014
0.0088038309
0.0086996614
0.0085936812
0.0084859603
0.0083768584
0.008265879
0.0081535248
0.0080394707
0.0079237084
0.0078069006
0.007688462
0.0075677616
0.0074448136
0.007319208
0.0071910046
0.0070607182
0.0069284213
0.0067944388
0.006658547
0.0065207648
0.0063810014
0.0062392396
0.0060954607
0.0059496375
0.0058017789
0.0056518338
0.0054998121
0.005345655
0.0051893782
0.0050309169
0.0048702875
0.0047074305
0.0045423781
0.0043750821
0.0042055938
0.0040338863
0.0038600379
0.0036840743
0.0035060879
0.0033262178
0.0031445816
0.0029614979
0.0027771559
0.0025922303
0.0024068754
0.002222921
0.0020393562
0.0018630004
0.0016847497
0.0015348522
0.0013609585
0.0012985643
0.0010915574
0.0018740505
-0.0017552876
0.029659441
0.028670161
0.027478469
0.026076898
0.024529788
0.022955051
0.02143569
0.020012042
0.018704925
0.017525238
0.016475515
0.01555178
0.014746866
0.014052089
0.013457566
0.012952499
0.012525798
0.012167445
0.011867436
0.011615738
0.01140345
0.011222835
0.011067242
0.010930787
0.010808802
0.010697883
0.010594981
0.010497665
0.010404419
0.010313775
0.010224519
0.010136162
0.010048252
0.0099601076
0.009871461
0.0097822182
0.0096918448
0.0096001866
0.0095073938
0.0094130746
0.0093172247
0.0092200243
0.0091211502
0.009020784
0.00891895
0.0088154244
0.0087105486
0.0086039562
0.0084956649
0.0083860285
0.0082746274
0.0081617392
0.0080470996
0.0079308151
0.0078132467
0.0076938879
0.0075731099
0.0074509208
0.007326604
0.0072001462
0.0070712005
0.0069394837
0.0068055552
0.0066695795
0.0065317666
0.0063920207
0.0062502794
0.0061064909
0.0059606145
0.0058126594
0.0056625787
0.0055103901
0.0053560393
0.0051995482
0.0050408551
0.0048799808
0.0047168681
0.0045515527
0.0043839879
0.0042142277
0.0040422464
0.0038681247
0.0036918885
0.0035136319
0.0033334944
0.0031515943
0.0029682507
0.0027836531
0.0025984748
0.0024128732
0.0022286687
0.0020448674
0.0018682443
0.0016897755
0.0015395286
0.0013654144
0.0013025351
0.0010951576
0.0018766081
-0.0017476356
0.028981377
0.02807315
0.026990145
0.025717112
0.024302123
0.022844751
0.021420262
0.020069223
0.018815167
0.017672129
0.016645723
0.015734923
0.014934975
0.014239085
0.013638947
0.013125142
0.012687743
0.012317403
0.012004797
0.01174056
0.011516195
0.011324226
0.011158147
0.011012216
0.010881768
0.010763286
0.0106537
0.010550519
0.01045208
0.010356873
0.010263639
0.010171753
0.010080694
0.0099897746
0.0098986535
0.0098071697
0.0097148198
0.0096214006
0.009526995
0.0094312504
0.0093341166
0.0092357309
0.0091358078
0.0090344723
0.0089317469
0.0088274271
0.0087217927
0.00861453
0.008505639
0.008395442
0.0082835467
0.0081701686
0.0080551437
0.0079384804
0.0078204023
0.0077005452
0.0075792392
0.0074562016
0.0073315375
0.0072055109
0.0070775545
0.0069474478
0.0068149139
0.0066796457
0.006541985
0.0064021958
0.0062604356
0.0061166782
0.0059708412
0.0058229008
0.005672794
0.0055205377
0.0053660807
0.0052094518
0.0050505938
0.0048895337
0.004726217
0.0045606838
0.0043928893
0.0042228911
0.0040506649
0.0038762942
0.0036998059
0.003521296
0.0033409051
0.0031587522
0.002975157
0.00279031
0.002604883
0.002419037
0.0022345816
0.0020505426
0.0018736448
0.0016949542
0.0015443348
0.0013699918
0.0013065765
0.001098783
0.0018788477
-0.0017390173
0.028343097
0.027507445
0.026520123
0.025361008
0.024065749
0.022717976
0.021384904
0.020106024
0.018906364
0.01780222
0.016801744
0.015906486
0.015113927
0.014419103
0.013815254
0.013294317
0.012847519
0.012466263
0.012141919
0.011865786
0.01162981
0.011426805
0.011250448
0.011095147
0.010956269
0.010830218
0.010713906
0.010604795
0.010501094
0.010401245
0.010303947
0.010208455
0.010114174
0.010020407
0.0099267461
0.0098329653
0.0097385813
0.0096433484
0.0095472862
0.0094500708
0.0093516131
0.009252008
0.0091509999
0.0090486655
0.0089450212
0.0088398769
0.0087334554
0.0086254908
0.0085159639
0.0084051535
0.0082927164
0.0081788382
0.0080633748
0.0079462956
0.0078278294
0.0077076564
0.0075859397
0.0074624617
0.0073374156
0.0072106566
0.0070821253
0.006952248
0.0068205657
0.0066866731
0.006550382
0.0064113825
0.0062698551
0.0061260936
0.0059802511
0.0058323522
0.0056822984
0.005530075
0.0053756125
0.0052189382
0.0050599971
0.0048988231
0.0047353656
0.0045696702
0.004401695
0.0042315018
0.0040590678
0.0038844804
0.0037077675
0.0035290277
0.003348403
0.0031660134
0.0029821799
0.0027970938
0.0026114258
0.0024253407
0.0022406366
0.0020563609
0.0018791829
0.0017002686
0.0015492541
0.0013746752
0.0013106706
0.0011024101
0.0018807041
-0.0017293125
0.027740996
0.026970485
0.026067744
0.025009847
0.023822991
0.022577137
0.021331553
0.020123721
0.018979174
0.017915688
0.016943411
0.016066092
0.015283235
0.014591605
0.013985941
0.013459505
0.013004655
0.012613605
0.012278433
0.011991105
0.011744037
0.011530366
0.01134398
0.011179451
0.011032207
0.010898606
0.010775547
0.010660454
0.010551431
0.010446872
0.010345431
0.010246258
0.010148687
0.010052004
0.0099557385
0.0098596055
0.0097631316
0.0096660333
0.0095682711
0.0094695407
0.0093697193
0.0092688608
0.0091667332
0.0090633706
0.0089587803
0.0088527843
0.008745555
0.0086368656
0.0085266775
0.0084152291
0.0083022231
0.0081878059
0.0080718525
0.0079543301
0.0078354523
0.0077149087
0.0075928281
0.0074690681
0.0073436839
0.0072165399
0.0070876746
0.0069572238
0.0068249303
0.0066910654
0.0065554644
0.0064176481
0.0062774415
0.006134515
0.0059889636
0.0058410934
0.005691047
0.0055388737
0.0053844744
0.0052278459
0.0050689145
0.0049077122
0.00474419
0.0045783997
0.004410303
0.0042399671
0.0040673714
0.0038926078
0.0037157055
0.0035367663
0.0033559337
0.0031733294
0.0029892759
0.0028039659
0.0026180685
0.0024317535
0.0022468061
0.0020622979
0.0018848362
0.0017056984
0.0015542668
0.001379446
0.0013147964
0.0011060109
0.0018821249
-0.0017183857
0.027171864
0.026459975
0.025632298
0.024664574