/*--------------------------------*- C++ -*----------------------------------*\
| =========                 |                                                 |
| \\      /  F ield         | OpenFOAM: The Open Source CFD Toolbox           |
|  \\    /   O peration     | Version:  2206                                  |
|   \\  /    A nd           | Website:  www.openfoam.com                      |
|    \\/     M anipulation  |                                                 |
\*---------------------------------------------------------------------------*/
FoamFile
{
    version     2.0;
    format      ascii;
    arch        "LSB;label=32;scalar=64";
    class       surfaceScalarField;
    location    "1200";
    object      phi;
}
// * * * * * * * * * * * * * * * * * * * * * * * * * * * * * * * * * * * * * //

dimensions      [0 3 -1 0 0 0 0];

oriented        oriented;

internalField   nonuniform List<scalar> 
14782
(
0.00064616025
7.522585e-05
-0.0007213861
0.00055263142
9.3528829e-05
0.00046309785
8.9533569e-05
0.00039117971
7.1918138e-05
0.00033993848
5.1241228e-05
0.0003038463
3.6092183e-05
0.00027709198
2.6754321e-05
0.00025596041
2.113157e-05
0.00023846726
1.7493146e-05
0.00022372669
1.474057e-05
0.00021126003
1.2466665e-05
0.00020068783
1.0572194e-05
0.00019170993
8.977906e-06
0.00018407187
7.63806e-06
0.00017754911
6.5227603e-06
0.00017196051
5.5885927e-06
0.00016715735
4.8031663e-06
0.00016301679
4.1405574e-06
0.00015942652
3.5902721e-06
0.00015627981
3.146711e-06
0.00015350087
2.7789351e-06
0.00015101138
2.4894957e-06
0.00014875511
2.256268e-06
0.00014669311
2.0620018e-06
0.00014479312
1.8999887e-06
0.00014302973
1.7633869e-06
0.00014138356
1.6461682e-06
0.00013983707
1.5464928e-06
0.00013837341
1.4636619e-06
0.00013698103
1.3923789e-06
0.00013565312
1.327913e-06
0.00013438328
1.2698375e-06
0.00013316542
1.2178602e-06
0.00013199441
1.1710144e-06
0.00013086564
1.1287694e-06
0.00012977376
1.091875e-06
0.00012871434
1.0594246e-06
0.00012768493
1.0294064e-06
0.00012668252
1.0024148e-06
0.00012570457
9.7794904e-07
0.00012474903
9.5553332e-07
0.00012381381
9.3522651e-07
0.00012289774
9.1606722e-07
0.00012199966
8.9807519e-07
0.00012111829
8.8137414e-07
0.00012025278
8.6551094e-07
0.00011940178
8.5100243e-07
0.00011856428
8.374991e-07
0.0001177397
8.2458173e-07
0.0001169271
8.1259978e-07
0.00011612609
8.010034e-07
0.00011533618
7.899123e-07
0.0001145569
7.7928198e-07
0.00011378799
7.6890461e-07
0.00011302888
7.5911129e-07
0.00011227935
7.4953546e-07
0.00011153898
7.4036923e-07
0.00011080735
7.3162577e-07
0.00011008413
7.2321676e-07
0.00010936909
7.1504229e-07
0.0001086622
7.0689397e-07
0.0001079632
6.9899647e-07
0.00010727196
6.9123918e-07
0.00010658828
6.8368302e-07
0.00010591203
6.7625213e-07
0.00010524301
6.6901348e-07
0.00010458103
6.6198327e-07
0.00010392593
6.550977e-07
0.00010327761
6.4832676e-07
0.00010263595
6.4165988e-07
0.00010200081
6.3513347e-07
0.0001013721
6.2871227e-07
0.00010074971
6.2239302e-07
0.00010013355
6.1615692e-07
9.952349e-05
6.1006065e-07
9.8919417e-05
6.0407344e-07
9.8321205e-05
5.9821155e-07
9.7728764e-05
5.9244138e-07
9.714197e-05
5.8679412e-07
9.6560727e-05
5.8124251e-07
9.5984906e-05
5.7582157e-07
9.5414398e-05
5.7050802e-07
9.4849067e-05
5.6533073e-07
9.4288771e-05
5.6029613e-07
9.373336e-05
5.5541118e-07
9.3182633e-05
5.507272e-07
9.2636393e-05
5.4623981e-07
9.2094346e-05
5.4204673e-07
9.1556198e-05
5.3814834e-07
9.1021447e-05
5.3475098e-07
9.0489627e-05
5.3181993e-07
8.9959636e-05
5.299904e-07
8.9430893e-05
5.2874366e-07
8.8899992e-05
5.3090092e-07
8.8367882e-05
5.3211021e-07
8.7819007e-05
5.4887492e-07
8.7268089e-05
5.5091767e-07
8.6620468e-05
6.4762077e-07
8.6356354e-05
2.6411413e-07
1.1966583e-06
0.00078823418
8.1384579e-05
-0.0007943929
0.00076958848
0.00011217452
0.00073469633
0.00012442572
0.0006873909
0.00011922357
0.00063526322
0.00010336891
0.00058561225
8.5743154e-05
0.00054191002
7.0456551e-05
0.00050476572
5.8275875e-05
0.00047346626
4.8792603e-05
0.00044705382
4.1153005e-05
0.0004246358
3.4884687e-05
0.00040547574
2.973225e-05
0.00038902416
2.5429489e-05
0.0003748525
2.1809718e-05
0.00036261119
1.8764078e-05
0.00035201189
1.6187887e-05
0.00034279867
1.4016384e-05
0.00033474853
1.2190698e-05
0.00032766997
1.0668831e-05
0.00032140166
9.4150247e-06
0.00031580809
8.372502e-06
0.00031077048
7.5271071e-06
0.00030619534
6.8314113e-06
0.00030200979
6.2475521e-06
0.00029815367
5.7561124e-06
0.00029457869
5.3383619e-06
0.00029124638
4.9784816e-06
0.00028812261
4.6702606e-06
0.00028517782
4.4084481e-06
0.00028238954
4.1806622e-06
0.00027974138
3.9760737e-06
0.00027721871
3.7925069e-06
0.00027480843
3.6281372e-06
0.0002724992
3.4802465e-06
0.00027028141
3.3465555e-06
0.0002681444
3.2288861e-06
0.00026607921
3.1246209e-06
0.00026408028
3.0283303e-06
0.00026214101
2.9416863e-06
0.00026025593
2.8630313e-06
0.00025842057
2.790895e-06
0.00025663069
2.7251053e-06
0.00025488318
2.663578e-06
0.00025317518
2.6060715e-06
0.00025150392
2.552635e-06
0.0002498671
2.5023311e-06
0.00024826204
2.4560624e-06
0.00024668654
2.4129994e-06
0.00024513895
2.3721753e-06
0.00024361743
2.3341209e-06
0.00024212074
2.2976885e-06
0.00024064765
2.2630075e-06
0.00023919703
2.2299003e-06
0.00023776801
2.1979186e-06
0.00023635948
2.1676469e-06
0.00023497067
2.1383404e-06
0.00023360069
2.110357e-06
0.00023224859
2.0837169e-06
0.00023091363
2.058184e-06
0.00022959522
2.0334516e-06
0.00022829305
2.0090649e-06
0.00022700657
1.985468e-06
0.00022573536
1.9624541e-06
0.00022447894
1.940098e-06
0.00022323696
1.9182358e-06
0.00022200897
1.8970093e-06
0.0002207945
1.876449e-06
0.00021959321
1.8563884e-06
0.0002184048
1.836739e-06
0.00021722898
1.8174753e-06
0.00021606545
1.7986642e-06
0.00021491394
1.7802254e-06
0.0002137742
1.7621303e-06
0.00021264601
1.7443453e-06
0.00021152908
1.7269903e-06
0.00021042316
1.7100007e-06
0.00020932797
1.6933969e-06
0.0002082433
1.6771089e-06
0.0002071689
1.6611939e-06
0.00020610455
1.6455987e-06
0.00020504997
1.6303934e-06
0.00020400495
1.6155331e-06
0.0002029692
1.6010812e-06
0.00020194244
1.5870574e-06
0.00020092436
1.5734907e-06
0.00019991459
1.5604964e-06
0.00019891272
1.5481083e-06
0.00019791824
1.5365235e-06
0.00019693051
1.5258804e-06
0.00019594878
1.5164874e-06
0.00019497177
1.5088258e-06
0.00019399835
1.5034115e-06
0.00019302549
1.5016053e-06
0.00019205123
1.5051612e-06
0.0001910682
1.5151391e-06
0.00019006695
1.5501265e-06
0.00018903496
1.5829084e-06
0.00018792541
1.7571623e-06
0.00018702919
1.1603343e-06
2.7449396e-06
0.00082984976
7.7994886e-05
-0.00082646006
0.00083412389
0.00010790039
0.00083514855
0.00012340106
0.00082829766
0.00012607446
0.00081006903
0.00012159754
0.00078244062
0.00011337156
0.00074972869
0.00010316848
0.00071551037
9.2494199e-05
0.00068198279
8.2320184e-05
0.00065047484
7.2660951e-05
0.00062163698
6.372255e-05
0.00059567384
5.5695392e-05
0.00057253839
4.856494e-05
0.00055202402
4.2324087e-05
0.00053385617
3.6931927e-05
0.00051775733
3.2286728e-05
0.00050346062
2.831309e-05
0.00049072725
2.4924069e-05
0.00047934693
2.204915e-05
0.00046913717
1.9624791e-05
0.00045993451
1.7575163e-05
0.00045159698
1.5864629e-05
0.00044400358
1.4424811e-05
0.00043705207
1.319907e-05
0.00043065435
1.2153825e-05
0.00042473409
1.1258629e-05
0.00041922907
1.0483494e-05
0.00041408893
9.8103999e-06
0.00040927002
9.2273615e-06
0.00040473567
8.7150165e-06
0.00040045482
8.2569234e-06
0.0003964004
7.8469217e-06
0.00039254893
7.4796112e-06
0.00038888046
7.1487115e-06
0.00038537784
6.8491745e-06
0.00038202329
6.5834394e-06
0.00037880224
6.3456705e-06
0.00037570372
6.126854e-06
0.00037271601
5.9293908e-06
0.00036982974
5.7493092e-06
0.00036703674
5.583891e-06
0.00036432941
5.4324396e-06
0.00036170139
5.2915896e-06
0.00035914699
5.1604742e-06
0.00035666087
5.0387609e-06
0.00035423839
4.9248081e-06
0.00035187492
4.8195338e-06
0.0003495664
4.721512e-06
0.00034730947
4.6291118e-06
0.00034510077
4.5428179e-06
0.0003429376
4.460859e-06
0.00034081738
4.383226e-06
0.0003387378
4.3094844e-06
0.00033669687
4.2388437e-06
0.00033469255
4.1719721e-06
0.00033272313
4.1077579e-06
0.00033078685
4.0466317e-06
0.00032888205
3.9885206e-06
0.00032700727
3.9329676e-06
0.00032516129
3.8794251e-06
0.00032334316
3.8271947e-06
0.00032155177
3.7768599e-06
0.00031978613
3.7280914e-06
0.00031804531
3.6809179e-06
0.00031632848
3.6350716e-06
0.00031463475
3.5907337e-06
0.00031296329
3.5479126e-06
0.00031131336
3.506315e-06
0.00030968433
3.4657779e-06
0.00030807556
3.4262393e-06
0.00030648646
3.387765e-06
0.00030491647
3.3502165e-06
0.00030336507
3.3135254e-06
0.00030183178
3.277639e-06
0.00030031605
3.2427172e-06
0.0002988174
3.208654e-06
0.00029733534
3.1754591e-06
0.00029586942
3.1430236e-06
0.0002944192
3.1114157e-06
0.00029298425
3.0805552e-06
0.0002915641
3.050537e-06
0.00029015834
3.0212952e-06
0.0002887665
2.9929237e-06
0.0002873881
2.9654573e-06
0.00028602263
2.9389558e-06
0.00028466953
2.913599e-06
0.00028332814
2.8894965e-06
0.00028199773
2.8669295e-06
0.00028067732
2.8462999e-06
0.00027936591
2.8278879e-06
0.00027806153
2.8132093e-06
0.00027676308
2.8018583e-06
0.0002754653
2.7993906e-06
0.000274168
2.8024562e-06
0.00027285594
2.8272078e-06
0.00027152754
2.8785266e-06
0.0002701428
2.9676482e-06
0.00026870937
3.190585e-06
0.00026727693
2.5927732e-06
4.4144095e-06
0.00086010827
7.4421434e-05
-0.00085653482
0.00086626907
0.0001017396
0.00087229105
0.00011737907
0.0008765252
0.00012184031
0.00087795217
0.00012017058
0.00087512585
0.00011619787
0.00086680128
0.00011149305
0.00085268002
0.00010661547
0.00083363522
0.00010136498
0.00081135375
9.4942421e-05
0.00078722843
8.7847871e-05
0.00076236909
8.0554738e-05
0.00073769834
7.3235686e-05
0.00071390521
6.6117216e-05
0.00069145127
5.9385871e-05
0.00067059574
5.3142255e-05
0.00065142318
4.748565e-05
0.00063390118
4.2446073e-05
0.00061792657
3.8023754e-05
0.00060336779
3.4183572e-05
0.00059008666
3.0856301e-05
0.00057795071
2.8000575e-05
0.00056683598
2.5539538e-05
0.00055662808
2.3406971e-05
0.00054722193
2.155998e-05
0.00053852148
1.9959079e-05
0.00053044406
1.856091e-05
0.00052292122
1.7333237e-05
0.00051589234
1.6256244e-05
0.00050930399
1.5303365e-05
0.00050310941
1.4451503e-05
0.00049726755
1.368879e-05
0.00049174207
1.3005092e-05
0.00048650211
1.238867e-05
0.00048152099
1.1830293e-05
0.0004767747
1.132973e-05
0.00047224197
1.0878398e-05
0.00046790383
1.0464992e-05
0.00046374332
1.0089901e-05
0.00045974552
9.7471126e-06
0.00045589731
9.4320965e-06
0.00045218662
9.1431384e-06
0.00044860291
8.8753e-06
0.00044513669
8.6266874e-06
0.00044177922
8.3962362e-06
0.0004385229
8.1811289e-06
0.00043536054
7.9818877e-06
0.00043228566
7.7963979e-06
0.00042929264
7.6221257e-06
0.00042637616
7.4592957e-06
0.00042353157
7.3054528e-06
0.00042075451
7.1602883e-06
0.00041804103
7.0229609e-06
0.00041538772
6.8921546e-06
0.00041279125
6.7684394e-06
0.00041024868
6.6503293e-06
0.00040775712
6.5381927e-06
0.00040531395
6.4316949e-06
0.00040291684
6.3300744e-06
0.00040056371
6.2325556e-06
0.00039825271
6.1381991e-06
0.00039598195
6.0476199e-06
0.00039374974
5.9603008e-06
0.00039155449
5.8761624e-06
0.00038939476
5.7948033e-06
0.00038726911
5.7163871e-06
0.00038517618
5.6408398e-06
0.00038311477
5.5677197e-06
0.00038108378
5.4967765e-06
0.00037908214
5.4278795e-06
0.00037710885
5.3610505e-06
0.00037516299
5.2960731e-06
0.00037324369
5.2328314e-06
0.00037135009
5.1712381e-06
0.00036948135
5.1114571e-06
0.00036763668
5.0533241e-06
0.00036581531
4.9968241e-06
0.00036401654
4.9418014e-06
0.00036223963
4.8883187e-06
0.00036048393
4.8362609e-06
0.00035874873
4.7857349e-06
0.00035703338
4.7366489e-06
0.00035533718
4.689119e-06
0.00035365944
4.6431922e-06
0.00035199944
4.5989607e-06
0.00035035637
4.5566662e-06
0.00034872935
4.5165147e-06
0.00034711742
4.4788618e-06
0.00034551927
4.44445e-06
0.0003439337
4.413456e-06
0.00034235816
4.3887484e-06
0.00034079149
4.3685288e-06
0.00033922693
4.3639582e-06
0.00033766519
4.3641932e-06
0.00033608608
4.4063199e-06
0.00033449252
4.4720815e-06
0.00033282695
4.6332247e-06
0.00033113049
4.8870415e-06
0.00032928034
4.4429238e-06
6.1943593e-06
0.00089006019
7.1398507e-05
-0.00088703726
0.00089588563
9.5914156e-05
0.00090221471
0.00011104999
0.00090755397
0.00011650104
0.00091131514
0.00011640941
0.00091384709
0.00011366592
0.00091494679
0.00011039335
0.00091421774
0.00010734452
0.00091135974
0.00010422297
0.00090537217
0.00010093
0.00089583814
9.7381898e-05
0.00088288751
9.3505363e-05
0.00086714828
8.8974919e-05
0.00084933102
8.3934477e-05
0.00083007853
7.8638361e-05
0.00081002965
7.3191131e-05
0.00078979293
6.7722373e-05
0.00076989602
6.2342985e-05
0.00075074176
5.7178009e-05
0.00073259449
5.2330849e-05
0.00071558481
4.7865972e-05
0.00069973787
4.3847523e-05
0.00068501605
4.0261352e-05
0.00067135273
3.7070292e-05
0.00065866996
3.4242754e-05
0.00064688656
3.1742478e-05
0.00063592268
2.9524792e-05
0.00062570241
2.7553504e-05
0.00061615384
2.5804809e-05
0.00060721194
2.4245269e-05
0.00059881872
2.2844721e-05
0.00059092152
2.1585995e-05
0.00058347254
2.0454066e-05
0.00057643002
1.9431194e-05
0.00056975661
1.8503701e-05
0.00056342028
1.7666059e-05
0.0005573923
1.6906378e-05
0.00055164535
1.6211941e-05
0.00054615586
1.5579389e-05
0.00054090283
1.5000141e-05
0.00053586735
1.4467578e-05
0.00053103186
1.3978635e-05
0.00052638088
1.3526273e-05
0.00052190041
1.3107162e-05
0.00051757746
1.2719189e-05
0.00051340082
1.2357763e-05
0.00050936031
1.2022397e-05
0.00050544669
1.171002e-05
0.00050165176
1.1417058e-05
0.00049796764
1.114341e-05
0.00049438729
1.0885803e-05
0.0004909042
1.0643378e-05
0.00048751244
1.0414721e-05
0.00048420679
1.019781e-05
0.00048098225
9.9929722e-06
0.00047783432
9.7982599e-06
0.00047475876
9.6137556e-06
0.0004717518
9.4386551e-06
0.00046881004
9.2718356e-06
0.00046593025
9.1123462e-06
0.00046310948
8.9589657e-06
0.0004603449
8.8121996e-06
0.00045763394
8.6712603e-06
0.0004549742
8.5359001e-06
0.00045236347
8.4055328e-06
0.00044979963
8.2802279e-06
0.00044728072
8.1597542e-06
0.00044480494
8.0435037e-06
0.00044237059
7.9311214e-06
0.00043997611
7.8223613e-06
0.00043762001
7.7171515e-06
0.0004353009
7.6151777e-06
0.00043301747
7.5162699e-06
0.00043076843
7.4202776e-06
0.00042855256
7.3273217e-06
0.00042636873
7.2371584e-06
0.00042421582
7.1497328e-06
0.00042209279
7.0648294e-06
0.00041999862
6.9824861e-06
0.00041793234
6.9025399e-06
0.00041589298
6.8250945e-06
0.00041387961
6.7500226e-06
0.00041189128
6.6774517e-06
0.00040992704
6.6074336e-06
0.00040798591
6.5400891e-06
0.00040606686
6.475717e-06
0.00040416874
6.4146294e-06
0.00040229035
6.3572508e-06
0.0004004301
6.3047078e-06
0.00039858651
6.2570386e-06
0.00039675661
6.2186475e-06
0.00039493904
6.1861048e-06
0.00039312602
6.176972e-06
0.00039131855
6.1716663e-06
0.00038949343
6.2314372e-06
0.00038765562
6.3098992e-06
0.00038573671
6.5521327e-06
0.00038379741
6.8263442e-06
0.0003815913
6.6490276e-06
8.1103827e-06
0.00092087857
6.8767489e-05
-0.00091824755
0.00092607177
9.0720953e-05
0.0009318848
0.00010523696
0.00093700577
0.00011138007
0.00094110274
0.00011231244
0.00094409734
0.00011067133
0.00094622538
0.0001082653
0.00094770422
0.00010586568
0.00094866553
0.00010326166
0.00094897211
0.00010062341
0.00094830437
9.8049643e-05
0.0009463672
9.5442534e-05
0.00094253935
9.2802765e-05
0.00093636243
9.0111401e-05
0.0009276303
8.7370487e-05
0.00091645394
8.4367494e-05
0.00090316435
8.1011961e-05
0.00088809388
7.7413454e-05
0.00087163653
7.3635366e-05
0.00085427408
6.9693296e-05
0.00083652255
6.5617497e-05
0.0008188523
6.1517781e-05
0.00080164106
5.7472588e-05
0.00078514233
5.3569027e-05
0.00076948856
4.9896518e-05
0.00075472191
4.6509126e-05
0.00074083296
4.3413741e-05
0.00072778673
4.0599737e-05
0.00071553521
3.805633e-05
0.00070402614
3.5754341e-05
0.00069320556
3.3665296e-05
0.00068301915
3.1772407e-05
0.00067341495
3.0058269e-05
0.00066434528
2.850087e-05
0.00065576516
2.7083817e-05
0.00064763393
2.5797293e-05
0.00063991554
2.4624769e-05
0.00063257589
2.3551589e-05
0.00062558405
2.2571231e-05
0.00061891271
2.1671478e-05
0.00061253697
2.0843315e-05
0.00060643362
2.0081989e-05
0.00060058192
1.9377974e-05
0.00059496295
1.8726125e-05
0.00058955926
1.8122879e-05
0.00058435541
1.756162e-05
0.00057933733
1.704047e-05
0.00057449244
1.6554913e-05
0.0005698094
1.6100099e-05
0.00056527742
1.5675393e-05
0.00056088678
1.527644e-05
0.00055662854
1.4901622e-05
0.00055249442
1.4548838e-05
0.00054847703
1.42152e-05
0.00054456928
1.3900724e-05
0.00054076477
1.3602765e-05
0.00053705777
1.3320763e-05
0.00053344308
1.3053338e-05
0.00052991593
1.2798989e-05
0.00052647172
1.2556556e-05
0.00052310626
1.2324425e-05
0.0005198156
1.2102865e-05
0.00051659613
1.1890723e-05
0.00051344449
1.1687545e-05
0.00051035751
1.1492516e-05
0.00050733225
1.1305486e-05
0.00050436602
1.1125978e-05
0.00050145631
1.0953214e-05
0.00049860074
1.0786697e-05
0.0004957971
1.0626001e-05
0.00049304334
1.0470909e-05
0.00049033753
1.0320992e-05
0.00048767778
1.0176019e-05
0.00048506233
1.0035725e-05
0.00048248952
9.9001332e-06
0.00047995778
9.7689006e-06
0.00047746559
9.6419136e-06
0.00047501155
9.5188768e-06
0.00047259425
9.399782e-06
0.00047021239
9.2844006e-06
0.00046786467
9.1728148e-06
0.00046554985
9.064848e-06
0.00046326667
8.960625e-06
0.00046101391
8.8601919e-06
0.00045879031
8.7636904e-06
0.00045659456
8.6714685e-06
0.00045442524
8.5839466e-06
0.00045228088
8.5016138e-06
0.00045015958
8.4260052e-06
0.00044805962
8.3570052e-06
0.0004459776
8.3006614e-06
0.00044391191
8.2517974e-06
0.00044185405
8.2348351e-06
0.0004398049
8.2208147e-06
0.00043773935
8.2969817e-06
0.0004356631
8.3861508e-06
0.00043350058
8.7146563e-06
0.00043132521
9.0017097e-06
0.00042879149
9.1827477e-06
1.0180561e-05
0.00095271066
6.6452556e-05
-0.00095039573
0.0009573387
8.6092919e-05
0.00096267418
9.9901475e-05
0.00096745872
0.00010659553
0.00097133475
0.0001084364
0.00097431411
0.00010769198
0.00097662676
0.00010595265
0.00097850531
0.00010398713
0.00097995835
0.00010180862
0.00098103183
9.9549941e-05
0.00098177999
9.7301484e-05
0.00098221675
9.5005775e-05
0.00098227061
9.2748903e-05
0.00098175084
9.0631165e-05
0.00098050799
8.8613339e-05
0.00097816343
8.6712059e-05
0.00097423911
8.4936273e-05
0.00096844854
8.3204026e-05
0.00096059991
8.1483992e-05
0.00095069604
7.9597173e-05
0.00093887953
7.7434006e-05
0.00092535553
7.504178e-05
0.00091045166
7.2376461e-05
0.00089461213
6.9408552e-05
0.00087832482
6.618383e-05
0.00086203513
6.279881e-05
0.00084609048
5.9358397e-05
0.00083071395
5.5976267e-05
0.00081601705
5.2753228e-05
0.00080203952
4.9731874e-05
0.00078878224
4.6922577e-05
0.000776226
4.4328647e-05
0.00076434076
4.1943503e-05
0.00075309053
3.97511e-05
0.00074243506
3.7739284e-05
0.00073233346
3.5898898e-05
0.00072274737
3.4210854e-05
0.00071363962
3.2659343e-05
0.00070497457
3.123628e-05
0.00069671976
2.9926288e-05
0.0006888452
2.871788e-05
0.00068132273
2.7604452e-05
0.00067412677
2.6573935e-05
0.00066723367
2.5619227e-05
0.00066062156
2.4734991e-05
0.00065427063
2.3912549e-05
0.0006481625
2.3148594e-05
0.00064228061
2.2436804e-05
0.00063661003
2.1770684e-05
0.00063113672
2.1148704e-05
0.000625848
2.0565155e-05
0.00062073215
2.0017479e-05
0.00061577831
1.9502676e-05
0.00061097666
1.9016844e-05
0.00060631786
1.8559532e-05
0.0006017934
1.8127225e-05
0.0005973956
1.7718559e-05
0.00059311748
1.7331453e-05
0.00058895258
1.6963892e-05
0.0005848948
1.6614337e-05
0.00058093855
1.6280672e-05
0.0005770786
1.5962817e-05
0.00057331016
1.5659167e-05
0.00056962864
1.5369059e-05
0.00056602979
1.509137e-05
0.00056250973
1.482554e-05
0.00055906493
1.4570783e-05
0.00055569198
1.432616e-05
0.00055238771
1.4090966e-05
0.00054914918
1.386454e-05
0.00054597362
1.3646469e-05
0.00054285845
1.3436158e-05
0.00053980119
1.323328e-05
0.0005367995
1.3037416e-05
0.00053385118
1.2848447e-05
0.00053095418
1.2665904e-05
0.00052810651
1.2489586e-05
0.00052530629
1.2319092e-05
0.00052255173
1.2154342e-05
0.00051984111
1.199502e-05
0.00051717276
1.1841166e-05
0.00051454507
1.1692535e-05
0.00051195647
1.1549232e-05
0.00050940537
1.1411285e-05
0.00050689022
1.1278842e-05
0.0005044094
1.1152293e-05
0.00050196118
1.1032162e-05
0.0004995438
1.0918997e-05
0.00049715505
1.0814755e-05
0.00049479289
1.071916e-05
0.00049245359
1.0639967e-05
0.00049013518
1.0570203e-05
0.0004878286
1.0541424e-05
0.00048553443
1.0514981e-05
0.00048322622
1.060519e-05
0.00048090977
1.0702604e-05
0.0004785043
1.1120125e-05
0.00047609281
1.1413201e-05
0.00047324261
1.2032942e-05
1.2418319e-05
0.0009857094
6.4407612e-05
-0.00098366446
0.00098983105
8.1971272e-05
0.00099474167
9.4990857e-05
0.00099927948
0.00010205772
0.001003014
0.00010470185
0.0010059328
0.00010477316
0.0010082233
0.00010366221
0.0010100896
0.00010212081
0.0010116085
0.00010028975
0.0010128499
9.8308523e-05
0.0010138648
9.6286542e-05
0.0010146448
9.4225812e-05
0.0010151925
9.2201172e-05
0.0010155733
9.0250404e-05
0.001015738
8.8448642e-05
0.0010156408
8.6809208e-05
0.0010152551
8.5321987e-05
0.0010144122
8.4047001e-05
0.0010129214
8.2974761e-05
0.0010104522
8.2066366e-05
0.0010066293
8.1256937e-05
0.0010011433
8.0527734e-05
0.00099379008
7.9729695e-05
0.0009845175
7.8681134e-05
0.00097338449
7.7316838e-05
0.00096057791
7.5605393e-05
0.00094644383
7.349247e-05
0.00093144546
7.097464e-05
0.0009160624
6.8136282e-05
0.00090070808
6.5086197e-05
0.00088567678
6.1953884e-05
0.00087114069
5.8864731e-05
0.00085718292
5.5901273e-05
0.00084383575
5.3098272e-05
0.00083110379
5.0471247e-05
0.00081897529
4.8027393e-05
0.00080742921
4.5756938e-05
0.00079643789
4.3650662e-05
0.00078597025
4.1703914e-05
0.00077599527
3.990127e-05
0.00076648221
3.823094e-05
0.00075740088
3.6685786e-05
0.0007487229
3.5251909e-05
0.00074042134
3.3920788e-05
0.00073247078
3.2685554e-05
0.00072484778
3.1535553e-05
0.00071753017
3.04662e-05
0.00071049764
2.9469336e-05
0.00070373164
2.8536683e-05
0.00069721474
2.7665607e-05
0.00069093104
2.6848851e-05
0.00068486579
2.608273e-05
0.0006790054
2.5363069e-05
0.00067333745
2.4684792e-05
0.00066785021
2.4046764e-05
0.00066253295
2.3444493e-05
0.00065737568
2.2875828e-05
0.00065236931
2.2337819e-05
0.00064750548
2.1827727e-05
0.00064277638
2.1343431e-05
0.00063817485
2.0882202e-05
0.00063369415
2.0443521e-05
0.00062932809
2.0025227e-05
0.0006250708
1.9626344e-05
0.00062091681
1.9245361e-05
0.00061686112
1.8881234e-05
0.00061289911
1.8532788e-05
0.00060902644
1.8198836e-05
0.00060523899
1.7878412e-05
0.00060153296
1.7570576e-05
0.00059790476
1.7274668e-05
0.00059435106
1.6989852e-05
0.0005908687
1.6715645e-05
0.00058745467
1.6451444e-05
0.00058410617
1.6196946e-05
0.00058082055
1.5951522e-05
0.00057759529
1.5714849e-05
0.000574428
1.5486387e-05
0.00057131638
1.5265956e-05
0.00056825828
1.5053125e-05
0.00056525158
1.4847866e-05
0.00056229427
1.4649846e-05
0.00055938437
1.445913e-05
0.00055651994
1.4275707e-05
0.00055369907
1.4099721e-05
0.00055091977
1.3931586e-05
0.00054818001
1.3771924e-05
0.00054547767
1.3621334e-05
0.00054281023
1.3482199e-05
0.00054017531
1.3354081e-05
0.00053756879
1.3246482e-05
0.00053498838
1.3150618e-05
0.00053242447
1.3105337e-05
0.00052987727
1.3062178e-05
0.00052731929
1.3163167e-05
0.00052475611
1.3265789e-05
0.00052210284
1.3773395e-05
0.00051945065
1.4065385e-05
0.00051628542
1.5198174e-05
1.4835482e-05
0.0010199152
6.2571555e-05
-0.0010180791
0.0010235858
7.830059e-05
0.0010280883
9.0488381e-05
0.0010324009
9.7745107e-05
0.0010360529
0.00010104987
0.0010389691
0.00010185694
0.0010412798
0.00010135149
0.0010431542
0.0001002465
0.0010446818
9.8762117e-05
0.0010459349
9.7055397e-05
0.0010469698
9.5251668e-05
0.0010478096
9.3385952e-05
0.0010484795
9.1531306e-05
0.0010489979
8.9732063e-05
0.0010493815
8.8064959e-05
0.0010496332
8.6557523e-05
0.0010497681
8.5187154e-05
0.0010497903
8.40248e-05
0.0010496757
8.3089292e-05
0.0010493824
8.2359687e-05
0.0010488073
8.1832077e-05
0.001047829
8.1506002e-05
0.0010462288
8.1329883e-05
0.0010436632
8.1246733e-05
0.0010397795
8.1200561e-05
0.0010342533
8.1131627e-05
0.0010268812
8.0864539e-05
0.0010176125
8.024335e-05
0.0010065127
7.9236079e-05
0.00099382704
7.7771835e-05
0.00097996869
7.5812232e-05
0.00096542519
7.3408226e-05
0.00095065066
7.0675805e-05
0.00093599278
6.7756156e-05
0.00092167179
6.4792238e-05
0.00090780617
6.1893012e-05
0.00089445395
5.9109156e-05
0.00088163942
5.6465194e-05
0.00086936636
5.3976976e-05
0.00085762594
5.1641691e-05
0.00084640063
4.945625e-05
0.0008356679
4.7418512e-05
0.00082540362
4.5516188e-05
0.00081558248
4.3741927e-05
0.00080617898
4.2089053e-05
0.00079716857
4.0545966e-05
0.00078852718
3.9107593e-05
0.00078023205
3.7764459e-05
0.00077226192
3.6506819e-05
0.00076459644
3.533109e-05
0.00075721684
3.4228447e-05
0.00075010552
3.3194049e-05
0.00074324616
3.2222433e-05
0.00073662373
3.1307221e-05
0.00073022402
3.0446474e-05
0.00072403393
2.9634585e-05
0.00071804119
2.8868566e-05
0.00071223449
2.8144515e-05
0.00070660339
2.7458832e-05
0.00070113817
2.6808651e-05
0.00069582989
2.6190484e-05
0.00069067012
2.560329e-05
0.0006856511
2.5044239e-05
0.00068076558
2.4511869e-05
0.00067600675
2.4004194e-05
0.00067136828
2.3519699e-05
0.00066684434
2.3056731e-05
0.00066242946
2.2613713e-05
0.00065811852
2.2189354e-05
0.00065390671
2.1782382e-05
0.00064978954
2.1391839e-05
0.00064576281
2.1016584e-05
0.00064182255
2.065591e-05
0.00063796501
2.0308977e-05
0.0006341867
1.9975262e-05
0.00063048428
1.9653935e-05
0.00062685463
1.9344506e-05
0.00062329475
1.9046264e-05
0.00061980181
1.8758892e-05
0.00061637313
1.8481814e-05
0.00061300608
1.8214906e-05
0.00060969821
1.7957721e-05
0.00060644708
1.7710259e-05
0.00060325034
1.747245e-05
0.00060010565
1.7244414e-05
0.00059701066
1.7026574e-05
0.00059396295
1.6819637e-05
0.00059096003
1.6624246e-05
0.00058799903
1.6443205e-05
0.00058507719
1.6275917e-05
0.00058219003
1.6133645e-05
0.00057933484
1.6005806e-05
0.00057650154
1.5938633e-05
0.00057368989
1.587383e-05
0.00057087154
1.5981523e-05
0.00056805166
1.6085668e-05
0.00056514187
1.6683183e-05
0.00056224106
1.6966192e-05
0.00055875601
1.8683227e-05
1.7443684e-05
0.0010553145
6.0885552e-05
-0.0010536285
0.0010586002
7.5014909e-05
0.0010627132
8.6375383e-05
0.0010667874
9.3670898e-05
0.0010703533
9.7484e-05
0.0010732804
9.8929853e-05
0.0010756388
9.8993111e-05
0.0010775593
9.8325905e-05
0.0010791277
9.7193801e-05
0.0010804119
9.5771128e-05
0.0010814678
9.4195824e-05
0.0010823271
9.2526649e-05
0.0010830206
9.0837788e-05
0.0010835699
8.9182792e-05
0.0010840021
8.7632698e-05
0.0010843362
8.6223473e-05
0.0010845762
8.4947166e-05
0.0010847372
8.386373e-05
0.0010848369
8.2989654e-05
0.0010848716
8.2324975e-05
0.0010848392
8.1864465e-05
0.0010847385
8.1606725e-05
0.0010845264
8.1541981e-05
0.001084137
8.1636059e-05
0.0010834683
8.1869353e-05
0.0010823776
8.2222278e-05
0.001080591
8.2651147e-05
0.0010777387
8.3095674e-05
0.0010734603
8.3514412e-05
0.0010674553
8.3776827e-05
0.0010595602
8.3707357e-05
0.0010497541
8.3214373e-05
0.0010382017
8.2228212e-05
0.0010252669
8.0690969e-05
0.0010114317
7.8627386e-05
0.00099717322
7.6151496e-05
0.00098287323
7.3409146e-05
0.00096878356
7.0554866e-05
0.00095504759
6.7712946e-05
0.00094174255
6.4946727e-05
0.00092890779
6.229101e-05
0.00091655923
5.9767078e-05
0.0009046979
5.7377514e-05
0.00089331442
5.5125411e-05
0.00088239333
5.3010141e-05
0.00087191628
5.1023015e-05
0.00086186255
4.9161328e-05
0.00085221079
4.7416219e-05
0.00084293975
4.577786e-05
0.00083402815
4.4242683e-05
0.00082545578
4.2800821e-05
0.00081720316
4.1446666e-05
0.00080925193
4.0173668e-05
0.00080158489
3.8974252e-05
0.00079418563
3.7845734e-05
0.00078703887
3.6781352e-05
0.00078013016
3.5777269e-05
0.00077344607
3.4828606e-05
0.00076697406
3.3930848e-05
0.00076070241
3.3080294e-05
0.00075462032
3.2272575e-05
0.00074871757
3.1506042e-05
0.00074298471
3.0777098e-05
0.00073741291
3.0083666e-05
0.00073199394
2.9423172e-05
0.00072672005
2.8793584e-05
0.00072158407
2.8192715e-05
0.00071657928
2.7618496e-05
0.00071169941
2.7069223e-05
0.00070693857
2.6543225e-05
0.00070229122
2.6039189e-05
0.00069775219
2.5555613e-05
0.00069331662
2.5091483e-05
0.00068897993
2.4645669e-05
0.0006847378
2.4217392e-05
0.00068058616
2.3805565e-05
0.00067652118
2.3409489e-05
0.00067253921
2.3028237e-05
0.00066863678
2.266132e-05
0.00066481061
2.2307983e-05
0.00066105755
2.1967971e-05
0.00065737457
2.1640694e-05
0.00065375877
2.1326059e-05
0.00065020731
2.1023915e-05
0.00064671739
2.0734333e-05
0.00064328623
2.0457729e-05
0.000639911
2.0194876e-05
0.00063658879
1.994645e-05
0.00063331633
1.9715669e-05
0.00063009047
1.9501774e-05
0.00062690631
1.9317802e-05
0.00062376073
1.9151387e-05
0.00062064317
1.9056195e-05
0.00061755287
1.8964133e-05
0.00061446071
1.9073677e-05
0.00061137142
1.9174963e-05
0.00060819339
1.9861205e-05
0.00060503328
2.0126302e-05
0.00060121916
2.2497351e-05
2.0255009e-05
0.0010918953
5.9308153e-05
-0.0010903179
0.0010948623
7.2047973e-05
0.0010986198
8.2617849e-05
0.0011024462
8.9844509e-05
0.0011059021
9.4028123e-05
0.0011088237
9.6008163e-05
0.0011112285
9.6588353e-05
0.0011132076
9.6346802e-05
0.0011148341
9.5567308e-05
0.0011161696
9.4435628e-05
0.0011172671
9.3098335e-05
0.0011181613
9.163242e-05
0.001118884
9.0115136e-05
0.0011194596
8.8607165e-05
0.0011199158
8.717654e-05
0.0011202747
8.5864527e-05
0.0011205467
8.4675163e-05
0.0011207505
8.3659954e-05
0.0011209007
8.2839481e-05
0.0011210066
8.2219027e-05
0.0011210731
8.1797971e-05
0.0011211114
8.156842e-05
0.0011211231
8.153025e-05
0.001121098
8.1661221e-05
0.0011210244
8.1942959e-05
0.0011208773
8.2369385e-05
0.0011206094
8.2919024e-05
0.0011201367
8.3568316e-05
0.0011193432
8.4307929e-05
0.0011180127
8.510738e-05
0.0011158056
8.5914457e-05
0.0011123388
8.6681111e-05
0.001107251
8.7316048e-05
0.0011002961
8.7645885e-05
0.0010913906
8.7532844e-05
0.0010806425
8.6899651e-05
0.0010683814
8.567022e-05
0.0010550841
8.3852183e-05
0.00104124
8.1557065e-05
0.0010272478
7.8938845e-05
0.0010133746
7.6164229e-05
0.0009997771
7.33646e-05
0.00098654456
7.0610048e-05
0.00097372654
6.7943435e-05
0.00096134764
6.5389038e-05
0.00094941619
6.2954471e-05
0.00093792893
6.064859e-05
0.00092687604
5.8469101e-05
0.00091624361
5.6410292e-05
0.00090601469
5.4471604e-05