/*--------------------------------*- C++ -*----------------------------------*\
| =========                 |                                                 |
| \\      /  F ield         | OpenFOAM: The Open Source CFD Toolbox           |
|  \\    /   O peration     | Version:  2206                                  |
|   \\  /    A nd           | Website:  www.openfoam.com                      |
|    \\/     M anipulation  |                                                 |
\*---------------------------------------------------------------------------*/
FoamFile
{
    version     2.0;
    format      ascii;
    arch        "LSB;label=32;scalar=64";
    class       volVectorField;
    location    "1200";
    object      U;
}
// * * * * * * * * * * * * * * * * * * * * * * * * * * * * * * * * * * * * * //

dimensions      [0 1 -1 0 0 0 0];

internalField   nonuniform List<vector> 
7480
(
(0.86076018 0.014758492 5.8370418e-16)
(0.74498647 0.025621565 0)
(0.62909825 0.027261186 0)
(0.52578768 0.019487242 0)
(0.45012822 0.0094039957 0)
(0.39791158 0.0037519046 0)
(0.36019395 0.0017195949 0)
(0.33108335 0.0012085847 0)
(0.30738421 0.0010852584 0)
(0.28749513 0.00096764424 0)
(0.27066481 0.00081760907 0)
(0.25640908 0.00067123217 0)
(0.24431321 0.00054341409 0)
(0.23403064 0.00043803369 0)
(0.22526769 0.00035437214 0)
(0.21776815 0.00028713349 0)
(0.2113318 0.00023277449 0)
(0.20579565 0.0001851652 0)
(0.20099713 0.00022696338 -9.0885e-18)
(0.1968452 0.0002910653 -1.6883305e-17)
(0.19316987 0.00013577746 0)
(0.18989984 9.0422998e-05 0)
(0.1869563 7.7461634e-05 0)
(0.18427458 6.8913657e-05 0)
(0.18181275 6.1566781e-05 0)
(0.17953437 5.5314692e-05 0)
(0.17741429 5.0006903e-05 0)
(0.17542847 4.5680585e-05 0)
(0.17355535 4.2276908e-05 0)
(0.17177658 3.9363716e-05 0)
(0.1700818 3.6652432e-05 0)
(0.16846348 3.4207249e-05 0)
(0.16691343 3.2032244e-05 0)
(0.16542513 3.0072581e-05 0)
(0.16399152 2.8315162e-05 0)
(0.16260865 2.6798456e-05 0)
(0.16126709 2.5448429e-05 0)
(0.15996493 2.4167723e-05 0)
(0.1586984 2.3015827e-05 0)
(0.15746365 2.1956874e-05 0)
(0.15625807 2.0973364e-05 0)
(0.155079 2.0073622e-05 0)
(0.15392441 1.9207376e-05 0)
(0.15279301 1.8385853e-05 0)
(0.15168316 1.7617588e-05 0)
(0.15059371 1.6879099e-05 0)
(0.14952318 1.619691e-05 0)
(0.14846998 1.5552044e-05 0)
(0.14743327 1.492874e-05 0)
(0.14641203 1.4346014e-05 0)
(0.14540546 1.3779002e-05 0)
(0.14441305 1.3236377e-05 0)
(0.14343413 1.2716927e-05 0)
(0.14246837 1.2212578e-05 0)
(0.14151514 1.1736931e-05 0)
(0.14057399 1.1274825e-05 0)
(0.13964457 1.0834321e-05 0)
(0.13872631 1.0414239e-05 0)
(0.13781871 1.0011511e-05 0)
(0.13692139 9.624448e-06 0)
(0.13603428 9.2470522e-06 0)
(0.1351572 8.8864147e-06 0)
(0.13428987 8.5378015e-06 0)
(0.13343209 8.2034957e-06 0)
(0.13258365 7.880955e-06 0)
(0.1317444 7.5716052e-06 0)
(0.13091403 7.2751445e-06 0)
(0.13009232 6.9899433e-06 0)
(0.12927913 6.7154083e-06 0)
(0.12847433 6.4510094e-06 0)
(0.12767776 6.1972904e-06 0)
(0.12688926 5.9530866e-06 0)
(0.12610869 5.7183171e-06 0)
(0.12533598 5.4921808e-06 0)
(0.12457097 5.2754569e-06 0)
(0.12381348 5.0670879e-06 0)
(0.12306339 4.867252e-06 0)
(0.12232055 4.6749793e-06 0)
(0.12158484 4.4906398e-06 0)
(0.12085612 4.3133714e-06 0)
(0.12013424 4.1435152e-06 0)
(0.11941906 3.9803297e-06 0)
(0.11871043 3.8239543e-06 0)
(0.11800817 3.6741138e-06 0)
(0.11731211 3.5304583e-06 0)
(0.11662202 3.3933629e-06 0)
(0.11593768 3.2619644e-06 0)
(0.11525873 3.1374426e-06 0)
(0.11458494 3.0178968e-06 0)
(0.11391552 2.9071867e-06 0)
(0.11325059 2.7983657e-06 0)
(0.11258759 2.707788e-06 0)
(0.11192914 2.6031784e-06 0)
(0.11126489 2.5589804e-06 0)
(0.1106103 2.4257865e-06 0)
(0.10992318 2.5336515e-06 0)
(0.10926597 2.227597e-06 -2.9901206e-21)
(0.10849276 6.2151296e-06 6.8708414e-20)
(0.10789036 -1.6768621e-06 -3.2196922e-19)
(0.1067178 1.2308878e-05 -1.1190243e-18)
(0.95763917 0.024821995 0)
(0.9436812 0.032453179 0)
(0.91262987 0.032579202 0)
(0.86107863 0.028769622 0)
(0.79830056 0.022926115 0)
(0.73533133 0.017284255 0)
(0.67847298 0.012891354 0)
(0.62974493 0.0098244092 0)
(0.58874982 0.0077462757 0)
(0.55425272 0.0062558183 0)
(0.52505175 0.0051167229 0)
(0.50016548 0.0042185496 0)
(0.47883241 0.0034894578 0)
(0.46047768 0.0028911349 0)
(0.44463921 0.0024002073 0)
(0.43094368 0.0019958375 0)
(0.41906483 0.0016646794 0)
(0.40871516 0.0013951065 0)
(0.39963976 0.0011767883 0)
(0.39163376 0.00099570371 0)
(0.38451483 0.00084900596 0)
(0.37813154 0.00074413419 0)
(0.37235627 0.00065535276 0)
(0.36708938 0.00058074095 0)
(0.36225344 0.00051894027 0)
(0.35778089 0.00046711101 0)
(0.35362414 0.00042291506 0)
(0.34973724 0.00038539245 0)
(0.34608246 0.00035372151 0)
(0.34262783 0.0003263073 0)
(0.33935115 0.00030183631 0)
(0.33623441 0.00027998033 0)
(0.33326048 0.00026046797 0)
(0.33041528 0.00024296053 0)
(0.3276849 0.00022718528 0)
(0.32506048 0.00021321184 0)
(0.32252501 0.00020071828 0)
(0.32007375 0.0001892089 0)
(0.31769836 0.000178782 0)
(0.31539114 0.00016924796 0)
(0.31314648 0.00016046785 0)
(0.31095909 0.0001523974 0)
(0.30882447 0.00014485626 0)
(0.30673926 0.00013780929 0)
(0.30469992 0.00013124053 0)
(0.3027036 0.00012506941 0)
(0.3007472 0.00011933594 0)
(0.2988276 0.00011396889 0)
(0.29694266 0.00010889751 0)
(0.29509022 0.00010414175 0)
(0.29326842 9.9624113e-05 0)
(0.29147585 9.5343149e-05 0)
(0.28971098 9.1280964e-05 0)
(0.28797278 8.7407226e-05 0)
(0.28625992 8.3744126e-05 0)
(0.28457131 8.0246752e-05 0)
(0.282906 7.6924845e-05 0)
(0.28126284 7.377201e-05 0)
(0.27964075 7.0771617e-05 0)
(0.2780389 6.7905547e-05 0)
(0.27645686 6.515055e-05 0)
(0.27489414 6.2520203e-05 0)
(0.27335009 6.0001383e-05 0)
(0.27182415 5.7593092e-05 0)
(0.27031586 5.5285211e-05 0)
(0.26882477 5.3078577e-05 0)
(0.26735025 5.097009e-05 0)
(0.26589182 4.8950685e-05 0)
(0.26444912 4.7014314e-05 0)
(0.2630218 4.5157047e-05 0)
(0.26160951 4.3377901e-05 0)
(0.26021187 4.1671536e-05 0)
(0.25882857 4.0034476e-05 0)
(0.25745939 3.8463064e-05 0)
(0.25610397 3.6957855e-05 0)
(0.25476198 3.551454e-05 0)
(0.25343312 3.4131238e-05 0)
(0.25211709 3.2803869e-05 0)
(0.2508136 3.1531587e-05 0)
(0.24952238 3.0310944e-05 0)
(0.24824314 2.9141384e-05 0)
(0.24697556 2.8019822e-05 0)
(0.24571935 2.6945536e-05 0)
(0.24447417 2.5916847e-05 0)
(0.24323968 2.4932221e-05 0)
(0.24201544 2.3991761e-05 0)
(0.24080104 2.3093677e-05 0)
(0.23959582 2.2239415e-05 0)
(0.23839935 2.1427985e-05 0)
(0.23721024 2.0663022e-05 0)
(0.23602858 1.9945262e-05 0)
(0.23485007 1.9285371e-05 0)
(0.2336788 1.868227e-05 0)
(0.23249763 1.8184474e-05 0)
(0.23133141 1.7731647e-05 0)
(0.23011081 1.7668483e-05 0)
(0.22893643 1.738131e-05 5.3649519e-21)
(0.22756705 1.9275433e-05 0)
(0.22647544 9.8997786e-06 0)
(0.22438909 3.0966935e-05 0)
(0.96657745 0.02620178 0)
(0.97144388 0.035052623 0)
(0.97643683 0.038614159 0)
(0.97523296 0.037497565 0)
(0.96063597 0.034283173 0)
(0.93249394 0.029945865 0)
(0.89585575 0.025252267 0)
(0.85586663 0.020859309 0)
(0.81578925 0.017136721 0)
(0.77755035 0.014081282 0)
(0.74220087 0.011601307 0)
(0.71019225 0.0096041661 0)
(0.68157518 0.0079829116 0)
(0.65616966 0.0066594924 0)
(0.63367017 0.0055788676 0)
(0.61374681 0.0046927823 0)
(0.59607637 0.0039647015 0)
(0.58036236 0.0033649169 0)
(0.56634141 0.0028696499 0)
(0.55378596 0.0024626477 0)
(0.54249686 0.0021336118 0)
(0.53229353 0.0018653127 0)
(0.52302378 0.0016428523 0)
(0.51455836 0.0014575036 0)
(0.50678717 0.001302331 0)
(0.49961444 0.0011714067 0)
(0.49295854 0.0010594764 0)
(0.48675548 0.00096335577 0)
(0.48095069 0.00088093222 0)
(0.4754981 0.0008091758 0)
(0.47035811 0.00074559416 0)
(0.46549725 0.00068908034 0)
(0.46088601 0.00063874147 0)
(0.4564993 0.00059365968 0)
(0.45231523 0.00055310198 0)
(0.44831589 0.00051708416 0)
(0.44447759 0.00048482036 0)
(0.44078996 0.0004552934 0)
(0.43723787 0.00042855661 0)
(0.43380915 0.00040415696 0)
(0.4304939 0.00038175674 0)
(0.42728292 0.00036119896 0)
(0.42416796 0.00034212805 0)
(0.42114219 0.00032441185 0)
(0.41819909 0.00030796416 0)
(0.41533297 0.00029261053 0)
(0.41253839 0.00027836778 0)
(0.40981014 0.00026508586 0)
(0.40714402 0.00025261307 0)
(0.4045361 0.00024094422 0)
(0.40198282 0.00022993179 0)
(0.39948118 0.00021954724 0)
(0.39702823 0.00020973903 0)
(0.39462161 0.00020043902 0)
(0.39225886 0.00019166334 0)
(0.38993784 0.0001833285 0)
(0.38765659 0.00017543769 0)
(0.38541302 0.00016796875 0)
(0.3832053 0.00016088181 0)
(0.38103184 0.00015413477 0)
(0.37889148 0.00014768144 0)
(0.37678303 0.00014153624 0)
(0.37470519 0.00013567226 0)
(0.37265687 0.00013007985 0)
(0.37063705 0.00012473695 0)
(0.36864476 0.00011964022 0)
(0.36667893 0.00011477982 0)
(0.36473866 0.00011013539 0)
(0.36282315 0.00010569233 0)
(0.36093169 0.00010144045 0)
(0.35906355 9.7374475e-05 0)
(0.35721805 9.3482344e-05 0)
(0.35539455 8.9754952e-05 0)
(0.35359251 8.6183945e-05 0)
(0.3518113 8.2767828e-05 0)
(0.35005032 7.9497186e-05 0)
(0.34830899 7.6366403e-05 0)
(0.34658679 7.3366753e-05 0)
(0.34488318 7.0494745e-05 0)
(0.34319766 6.7743029e-05 0)
(0.34152971 6.5108982e-05 0)
(0.33987881 6.2586055e-05 0)
(0.33824446 6.0171692e-05 0)
(0.33662608 5.7861919e-05 0)
(0.33502315 5.5653289e-05 0)
(0.33343498 5.3544961e-05 0)
(0.33186095 5.1533955e-05 0)
(0.33030011 4.9621272e-05 0)
(0.32875179 4.7807878e-05 0)
(0.32721414 4.6095225e-05 0)
(0.32568715 4.4497973e-05 0)
(0.32416526 4.3011481e-05 0)
(0.32265344 4.1693702e-05 0)
(0.32113001 4.0523189e-05 0)
(0.31962572 3.963472e-05 0)
(0.31805382 3.9242387e-05 0)
(0.31653844 3.910338e-05 3.9513256e-21)
(0.3147782 4.1305593e-05 0)
(0.3133509 2.9760121e-05 0)
(0.310679 5.7074216e-05 -1.0672016e-20)
(0.96942609 0.024351881 0)
(0.97497647 0.032495454 0)
(0.98297573 0.03627307 0)
(0.98956607 0.036556111 0)
(0.99309933 0.034801208 0)
(0.99275171 0.032325825 0)
(0.98656146 0.029698833 0)
(0.97373617 0.027077259 0)
(0.954435 0.024415823 0)
(0.9306063 0.021571765 0)
(0.9040037 0.018751041 0)
(0.87601171 0.016131618 0)
(0.84778264 0.013794282 0)
(0.82022496 0.011764687 0)
(0.79398739 0.010024841 0)
(0.76946786 0.0085440795 0)
(0.74684586 0.007295693 0)
(0.72613512 0.0062496818 0)
(0.70724431 0.005380898 0)
(0.69003064 0.0046626336 0)
(0.67433909 0.0040659456 0)
(0.66001343 0.0035695653 0)
(0.64690925 0.0031534377 0)
(0.63489204 0.0028013175 0)
(0.62383684 0.0025025058 0)
(0.61363112 0.0022479975 0)
(0.60417099 0.0020293587 0)
(0.59537308 0.001840564 0)
(0.58716546 0.0016772757 0)
(0.57948414 0.0015346267 0)
(0.57227225 0.0014085977 0)
(0.56548051 0.0012969527 0)
(0.55906567 0.0011978072 0)
(0.5529891 0.0011092551 0)
(0.54721936 0.0010297626 0)
(0.54172774 0.00095881544 0)
(0.53648883 0.00089518212 0)
(0.53147975 0.00083732986 0)
(0.52668063 0.00078496257 0)
(0.52207312 0.00073731415 0)
(0.51764169 0.00069372395 0)
(0.5133722 0.00065382784 0)
(0.50925174 0.0006170291 0)
(0.50526921 0.0005830261 0)
(0.50141427 0.00055159733 0)
(0.49767766 0.00052240914 0)
(0.49405124 0.00049539745 0)
(0.49052707 0.0004703025 0)
(0.48709844 0.0004468545 0)
(0.48375921 0.00042498723 0)
(0.48050371 0.00040446308 0)
(0.47732693 0.00038520038 0)
(0.47422409 0.00036708964 0)
(0.47119111 0.00035000212 0)
(0.46822418 0.00033392462 0)
(0.4653198 0.00031872604 0)
(0.46247467 0.00030438746 0)
(0.45968562 0.00029085392 0)
(0.45694988 0.00027805014 0)
(0.45426496 0.00026590332 0)
(0.4516287 0.00025433887 0)
(0.44903897 0.00024336113 0)
(0.44649373 0.00023292162 0)
(0.44399114 0.00022299403 0)
(0.44152949 0.00021353889 0)
(0.43910718 0.00020454272 0)
(0.43672258 0.000195983 0)
(0.43437427 0.00018782369 0)
(0.43206094 0.00018003811 0)
(0.42978138 0.00017260593 0)
(0.42753443 0.00016551338 0)
(0.42531899 0.00015873865 0)
(0.42313404 0.00015226436 0)
(0.42097865 0.00014607507 0)
(0.41885182 0.0001401642 0)
(0.41675264 0.00013451497 0)
(0.41468023 0.00012911591 0)
(0.41263375 0.00012395194 0)
(0.4106124 0.00011901497 0)
(0.4086154 0.00011429226 0)
(0.40664197 0.00010977748 0)
(0.40469134 0.00010545936 0)
(0.40276278 0.00010133219 0)
(0.40085547 9.7388603e-05 0)
(0.39896865 9.3622326e-05 0)
(0.39710141 9.0030517e-05 0)
(0.3952529 8.6608736e-05 0)
(0.39342192 8.3356237e-05 0)
(0.39160755 8.0277209e-05 0)
(0.38980762 7.7367635e-05 0)
(0.3880219 7.4663678e-05 0)
(0.38624412 7.2131148e-05 0)
(0.38447947 6.9922042e-05 0)
(0.38270399 6.7881084e-05 0)
(0.38095073 6.6480428e-05 0)
(0.37912494 6.5565277e-05 0)
(0.37736013 6.57737e-05 3.0108536e-21)
(0.37532697 6.7895158e-05 0)
(0.37364798 5.6892881e-05 0)
(0.37056763 8.453174e-05 8.2434249e-21)
(0.97131988 0.023204032 0)
(0.97625356 0.030454215 0)
(0.98360308 0.034214136 0)
(0.9906739 0.034709906 0)
(0.99579721 0.033437332 0)
(0.99888476 0.031566773 0)
(1.0013248 0.029678761 0)
(1.0011926 0.027925928 0)
(0.9996066 0.026238005 0)
(0.99492104 0.024500468 0)
(0.98644157 0.02269608 0)
(0.9739804 0.020833344 0)
(0.95804897 0.018860817 0)
(0.93949217 0.016856903 0)
(0.91902483 0.014923922 0)
(0.89733802 0.013125289 0)
(0.87513628 0.011506542 0)
(0.85305081 0.010064456 0)
(0.83159872 0.0087969701 0)
(0.81114467 0.0076978497 0)
(0.79189958 0.0067524269 0)
(0.77393621 0.0059498291 0)
(0.75723588 0.0052702766 0)
(0.74173447 0.0046919061 0)
(0.72734919 0.0041972111 0)
(0.71399251 0.0037717593 0)
(0.70157486 0.0034029086 0)
(0.69001039 0.0030815907 0)
(0.67921833 0.0028015787 0)
(0.66912324 0.0025559603 0)
(0.65965808 0.00233894 0)
(0.65076267 0.0021467631 0)
(0.64238227 0.0019761807 0)
(0.63446727 0.0018240017 0)
(0.62697563 0.0016876961 0)
(0.61986779 0.001565892 0)
(0.61311358 0.0014565085 0)
(0.60667998 0.0013574512 0)
(0.60054036 0.00126793 0)
(0.59467003 0.0011865869 0)
(0.58904752 0.0011123887 0)
(0.58365289 0.0010446722 0)
(0.57846796 0.00098249006 0)
(0.57347686 0.0009252802 0)
(0.5686648 0.0008726115 0)
(0.56401837 0.00082390302 0)
(0.55952624 0.00077892036 0)
(0.55517761 0.00073724376 0)
(0.55096309 0.00069845583 0)
(0.54687397 0.00066239966 0)
(0.54290197 0.00062871588 0)
(0.53903978 0.00059723132 0)
(0.53528054 0.00056774927 0)
(0.53161819 0.00054005315 0)
(0.52804722 0.00051407568 0)
(0.52456242 0.00048962051 0)
(0.52115898 0.00046662212 0)
(0.51783251 0.00044497088 0)
(0.51457916 0.00042454362 0)
(0.5113953 0.0004052313 0)
(0.50827756 0.00038692118 0)
(0.50522279 0.00036959312 0)
(0.50222802 0.00035316655 0)
(0.49929053 0.00033758923 0)
(0.49640783 0.00032279678 0)
(0.49357756 0.00030875773 0)
(0.49079745 0.00029542933 0)
(0.48806548 0.00028275489 0)
(0.48537973 0.00027069122 0)
(0.48273842 0.00025920263 0)
(0.48013989 0.00024826178 0)
(0.47758256 0.00023783348 0)
(0.47506496 0.00022788917 0)
(0.47258568 0.00021840289 0)
(0.47014334 0.00020935906 0)
(0.46773666 0.00020073081 0)
(0.46536439 0.00019249829 0)
(0.46302538 0.00018463794 0)
(0.46071848 0.00017713474 0)
(0.45844262 0.00016996866 0)
(0.45619674 0.00016312774 0)
(0.45397978 0.00015659439 0)
(0.45179075 0.00015035817 0)
(0.44962859 0.00014440693 0)
(0.44749227 0.00013873041 0)
(0.44538066 0.00013332253 0)
(0.44329266 0.00012817673 0)
(0.44122683 0.00012328928 0)
(0.43918202 0.000118668 0)
(0.43715576 0.00011430113 0)
(0.43514759 0.00011025078 0)
(0.43315082 0.00010644454 0)
(0.43117046 0.0001031499 0)
(0.42918159 0.00010003992 0)
(0.42721752 9.8010003e-05 0)
(0.42518074 9.6398573e-05 0)
(0.4232065 9.7035204e-05 2.4662341e-21)
(0.42095488 9.8664434e-05 5.5261088e-20)
(0.4190648 9.0265267e-05 0)
(0.41565334 0.00011387772 0)
(0.97282554 0.02236204 0)
(0.97723748 0.028798491 0)
(0.98358376 0.032373445 0)
(0.98978013 0.033123451 0)
(0.99477245 0.032292454 0)
(0.99850437 0.030776185 0)
(1.0011149 0.029128467 0)
(1.0029609 0.027583344 0)
(1.004154 0.026073268 0)
(1.0050155 0.024614554 0)
(1.004785 0.023230938 0)
(1.0035678 0.021899088 0)
(1.0006657 0.020583897 0)
(0.9954213 0.019268082 0)
(0.98754676 0.017959628 0)
(0.9768827 0.016606606 0)
(0.96383465 0.015199799 0)
(0.9487108 0.013805203 0)
(0.93188947 0.012458931 0)
(0.91383697 0.011193562 0)
(0.89510775 0.01002688 0)
(0.876238 0.0089662551 0)
(0.85768907 0.0080124438 0)
(0.83979696 0.0071645302 0)
(0.82275962 0.0064203241 0)
(0.80665848 0.0057734173 0)
(0.79150073 0.0052112756 0)
(0.77725772 0.0047202158 0)
(0.76388332 0.0042896754 0)
(0.75132318 0.0039095351 0)
(0.73952045 0.0035719684 0)
(0.72841731 0.0032719902 0)
(0.71795686 0.0030051414 0)
(0.70808613 0.0027668296 0)
(0.69875684 0.0025533943 0)
(0.68992211 0.0023623069 0)
(0.68154308 0.0021905215 0)
(0.67358203 0.0020353313 0)
(0.66600452 0.001895152 0)
(0.65877978 0.0017679713 0)
(0.65188057 0.0016522021 0)
(0.64528138 0.0015467504 0)
(0.63895884 0.0014502224 0)
(0.63289222 0.0013616928 0)
(0.62706225 0.0012804271 0)
(0.6214514 0.001205526 0)
(0.61604429 0.0011365143 0)
(0.61082674 0.0010727428 0)
(0.60578626 0.0010135837 0)
(0.6009112 0.00095873963 0)
(0.59619057 0.00090768823 0)
(0.59161467 0.0008601302 0)
(0.58717429 0.00081575183 0)
(0.58286119 0.00077421579 0)
(0.57866783 0.00073537757 0)
(0.57458688 0.00069894589 0)
(0.57061205 0.00066477481 0)
(0.56673751 0.00063268167 0)
(0.56295813 0.00060248315 0)
(0.55926888 0.0005740219 0)
(0.55566512 0.00054713318 0)
(0.55214255 0.00052175729 0)
(0.54869717 0.00049776874 0)
(0.54532531 0.00047508063 0)
(0.54202352 0.0004535955 0)
(0.53878855 0.00043325226 0)
(0.53561744 0.00041397876 0)
(0.53250746 0.00039569275 0)
(0.52945599 0.0003783287 0)
(0.52646063 0.00036182899 0)
(0.52351911 0.00034614703 0)
(0.52062936 0.00033123034 0)
(0.51778935 0.00031703583 0)
(0.51499714 0.00030352228 0)
(0.51225092 0.00029066059 0)
(0.50954898 0.00027841067 0)
(0.50688971 0.00026674155 0)
(0.50427154 0.00025561846 0)
(0.501693 0.00024501691 0)
(0.49915265 0.00023490725 0)
(0.49664912 0.00022526974 0)
(0.49418107 0.00021607855 0)
(0.49174718 0.00020731669 0)
(0.48934614 0.00019896565 0)
(0.48697666 0.00019100969 0)
(0.48463734 0.00018343819 0)
(0.48232682 0.00017624141 0)
(0.48004344 0.00016941148 0)
(0.47778579 0.00016295954 0)
(0.47555115 0.0001568645 0)
(0.4733388 0.00015121654 0)
(0.47114177 0.00014590024 0)
(0.46896471 0.00014131028 0)
(0.46678241 0.00013692817 0)
(0.46462747 0.00013411953 0)
(0.46240222 0.00013164341 0)
(0.46024004 0.00013270297 0)
(0.45779912 0.0001335412 0)
(0.45572209 0.00012930502 1.1235115e-19)
(0.45202124 0.00014561365 0)
(0.97422037 0.021585654 0)
(0.9780896 0.027342895 0)
(0.98365198 0.030737183 0)
(0.98913178 0.031687218 0)
(0.9936489 0.031158397 0)
(0.99713174 0.029925227 0)
(0.99976336 0.028497082 0)
(1.0018461 0.027093344 0)
(1.0035543 0.025695623 0)
(1.0048286 0.024342654 0)
(1.0057497 0.02306063 0)
(1.0063419 0.021827637 0)
(1.0066475 0.020655962 0)
(1.006441 0.019565559 0)
(1.0055756 0.018541244 0)
(1.0038774 0.017566913 0)
(1.0007422 0.01663452 0)
(0.99581551 0.015720511 0)
(0.98884104 0.014812398 0)
(0.97969513 0.013869027 0)
(0.96851236 0.012882973 0)
(0.95544889 0.011891083 0)
(0.94077107 0.0109118 0)
(0.924886 0.0099661845 0)
(0.90829789 0.0090693356 0)
(0.8915027 0.0082323829 0)
(0.8749171 0.0074648889 0)
(0.85883326 0.0067718139 0)
(0.84341359 0.0061551556 0)
(0.82872444 0.0056094844 0)
(0.81477924 0.005125067 0)
(0.80156561 0.004693361 0)
(0.78905687 0.0043072357 0)
(0.77721811 0.003960572 0)
(0.76600997 0.003649032 0)
(0.75538937 0.0033692822 0)
(0.74531595 0.0031172663 0)
(0.73575116 0.0028895647 0)
(0.72665738 0.0026838279 0)
(0.71799955 0.00249724 0)
(0.70974595 0.0023275728 0)
(0.70186685 0.0021732058 0)
(0.69433461 0.0020321842 0)
(0.68712418 0.0019031278 0)
(0.68021223 0.001784909 0)
(0.67357746 0.0016762229 0)
(0.66720037 0.0015762746 0)
(0.66106299 0.0014841108 0)
(0.65514934 0.0013988369 0)
(0.64944468 0.0013199668 0)
(0.64393524 0.0012467669 0)
(0.63860865 0.0011787636 0)
(0.63345328 0.0011154848 0)
(0.62845862 0.001056441 0)
(0.62361495 0.0010013783 0)
(0.61891295 0.00094988573 0)
(0.61434445 0.00090171069 0)
(0.60990193 0.000856569 0)
(0.60557861 0.00081419612 0)
(0.60136799 0.00077437005 0)
(0.59726415 0.00073685848 0)
(0.5932615 0.00070154464 0)
(0.58935496 0.00066824539 0)
(0.58553976 0.00063683028 0)
(0.58181131 0.00060715649 0)
(0.57816545 0.00057911836 0)
(0.57459844 0.00055260591 0)
(0.57110674 0.00052750622 0)
(0.56768695 0.00050372406 0)
(0.56433595 0.0004811729 0)
(0.56105082 0.00045978043 0)
(0.55782886 0.00043947096 0)
(0.55466746 0.00042018207 0)
(0.55156413 0.00040185299 0)
(0.54851658 0.00038443641 0)
(0.54552262 0.00036787521 0)
(0.54258018 0.00035212386 0)
(0.5396873 0.0003371333 0)
(0.53684209 0.00032286657 0)
(0.53404275 0.00030928179 0)
(0.53128756 0.00029634892 0)
(0.52857482 0.0002840317 0)
(0.52590294 0.00027230452 0)
(0.52327028 0.00026114062 0)
(0.52067526 0.00025051715 0)
(0.51811622 0.00024041735 0)
(0.51559153 0.00023082706 0)
(0.51309928 0.00022173292 0)
(0.51063778 0.00021314867 0)
(0.50820411 0.00020504262 0)
(0.50579722 0.00019753367 0)
(0.50340999 0.00019046076 0)
(0.5010466 0.00018435165 0)
(0.49868188 0.00017848643 0)
(0.49634726 0.0001747258 0)
(0.49394625 0.00017121193 0)
(0.49160874 0.00017263255 0)
(0.48899525 0.00017243666 0)
(0.48674701 0.00017363829 1.0049605e-19)
(0.48278163 0.00017995733 0)
(0.97568071 0.020879557 0)
(0.97899979 0.026002649 0)
(0.98387393 0.029245152 0)
(0.98881563 0.030373882 0)
(0.99299227 0.030104962 0)
(0.9962631 0.029120927 0)
(0.99878516 0.027880996 0)
(1.0007917 0.026601802 0)
(1.0024492 0.025309884 0)
(1.0038028 0.024045043 0)
(1.0049104 0.022829242 0)
(1.0058025 0.021655533 0)
(1.0064582 0.020540042 0)
(1.0068812 0.019493706 0)
(1.0072175 0.018519579 0)
(1.0071982 0.017621251 0)
(1.007015 0.016798342 0)
(1.0064368 0.016044064 0)
(1.0053311 0.0153501 0)
(1.0034665 0.014701584 0)
(1.0004158 0.014076801 0)
(0.99586241 0.013464415 0)
(0.98950855 0.012829559 0)
(0.98124908 0.012138599 0)
(0.97109025 0.011399398 0)
(0.95914271 0.01063033 0)
(0.94566922 0.0098505681 0)
(0.93109578 0.0090841638 0)
(0.91591425 0.008344674 0)
(0.90058606 0.0076464263 0)
(0.88546707 0.0070003741 0)
(0.87078243 0.0064134735 0)
(0.85664753 0.0058861492 0)
(0.84311074 0.0054126602 0)
(0.83018667 0.0049861508 0)
(0.81786977 0.0046012093 0)
(0.80614254 0.0042525966 0)
(0.79498012 0.0039364587 0)
(0.78435255 0.0036500685 0)
(0.77422849 0.003389951 0)
(0.76457735 0.0031532847 0)
(0.75536881 0.0029379108 0)
(0.74657363 0.0027412798 0)
(0.7381645 0.0025615091 0)
(0.73011539 0.0023970065 0)
(0.72240213 0.0022460109 0)
(0.71500216 0.002107363 0)
(0.7078943 0.0019797347 0)
(0.70105944 0.0018618972 0)
(0.69447978 0.001753109 0)
(0.68813879 0.0016523682 0)
(0.68202134 0.0015589842 0)
(0.67611336 0.0014722865 0)
(0.67040203 0.0013915959 0)
(0.66487545 0.001316518 0)
(0.65952243 0.001246487 0)
(0.65433272 0.0011811119 0)
(0.64929687 0.001119986 0)
(0.64440631 0.0010627411 0)
(0.63965299 0.0010090662 0)
(0.63502956 0.00095864039 0)
(0.63052909 0.00091127443 0)
(0.62614522 0.00086671108 0)
(0.621872 0.00082476196 0)
(0.61770377 0.00078522868 0)
(0.61363532 0.00074794985 0)
(0.60966197 0.00071276524 0)
(0.60577926 0.0006795216 0)
(0.60198299 0.00064808622 0)
(0.59826926 0.00061833583 0)
(0.59463438 0.00059016542 0)
(0.59107497 0.0005634696 0)
(0.5875878 0.00053816127 0)
(0.5841698 0.0005141542 0)
(0.58081811 0.00049137761 0)
(0.57753003 0.00046975344 0)
(0.574303 0.00044921757 0)
(0.57113458 0.00042970296 0)
(0.56802247 0.00041115683 0)
(0.56496446 0.00039352199 0)
(0.56195843 0.00037675528 0)
(0.55900234 0.00036080746 0)
(0.55609422 0.00034564194 0)
(0.55323213 0.0003312216 0)
(0.55041418 0.0003175145 0)
(0.5476384 0.00030449599 0)
(0.5449029 0.00029214591 0)
(0.54220548 0.00028044401 0)
(0.5395442 0.00026940553 0)
(0.53691587 0.00025898691 0)
(0.53431918 0.00024933566 0)
(0.53174682 0.00024024336 0)
(0.5292025 0.0002323738 0)
(0.52666126 0.00022480064 0)
(0.52415317 0.00021989344 0)
(0.52158354 0.00021515673 0)
(0.51907813 0.00021683888 0)
(0.51630179 0.00021536814 -1.9557274e-20)
(0.51389289 0.00022314435 0)
(0.50967842 0.0002170803 -2.7557385e-21)
(0.97716759 0.020257318 0)
(0.98001559 0.024789262 0)
(0.9842542 0.027835615 0)
(0.98871253 0.029100891 0)
(0.99261789 0.029080839 0)
(0.99575565 0.028338359 0)
(0.9982158 0.027280733 0)
(1.0001794 0.026126128 0)
(1.0017874 0.024932303 0)
(1.0031068 0.023742037 0)
(1.0041914 0.02258391 0)
(1.0050835 0.021462417 0)
(1.0058027 0.020393953 0)
(1.0063647 0.019384196 0)
(1.0067991 0.018445874 0)
(1.0070965 0.017581276 0)
(1.0072747 0.016778512 0)
(1.007361 0.016047508 0)
(1.0073121 0.015390239 0)
(1.0071376 0.014797963 0)
(1.0067457 0.014260373 0)
(1.0060286 0.013771574 0)
(1.0048614 0.01331789 0)
(1.0029443 0.01288342 0)
(0.99992106 0.012450829 0)
(0.99547028 0.01200485 0)
(0.98928878 0.011510048 0)
(0.98129461 0.010944384 0)
(0.97147336 0.010329019 0)
(0.95996712 0.0096779958 0)
(0.94710796 0.0090136396 0)
(0.93335744 0.0083537013 0)
(0.91919088 0.0077156046 0)
(0.90500343 0.0071142596 0)
(0.89106449 0.0065593674 0)
(0.87752572 0.0060547421 0)
(0.86446221 0.0055971288 0)
(0.85190893 0.0051810394 0)
(0.83987735 0.0048022323 0)
(0.8283635 0.0044564612 0)
(0.81735374 0.0041406848 0)
(0.80682803 0.0038525615 0)
(0.79676349 0.0035891253 0)
(0.78713629 0.0033481052 0)
(0.77792177 0.0031274962 0)
(0.76909585 0.0029250823 0)
(0.76063521 0.0027393296 0)
(0.75251721 0.0025685069 0)
(0.74472082 0.0024110092 0)
(0.73722608 0.0022657925 0)
(0.7300142 0.0021315398 0)
(0.72306778 0.0020073001 0)
(0.71637051 0.0018921563 0)
(0.70990745 0.0017852018 0)
(0.70366459 0.0016858632 0)
(0.69762883 0.0015933897 0)
(0.69178802 0.0015072343 0)
(0.68613085 0.0014268397 0)
(0.68064692 0.0013517043 0)
(0.67532656 0.0012814002 0)
(0.67016089 0.0012154975 0)
(0.66514155 0.0011537159 0)
(0.6602608 0.0010957075 0)
(0.65551147 0.0010412109 0)
(0.6508868 0.00098995683 0)
(0.6463805 0.00094171468 0)
(0.64198675 0.00089626324 0)
(0.63770015 0.00085339833 0)
(0.63351563 0.00081293956 0)
(0.62942843 0.00077471892 0)
(0.62543409 0.00073859093 0)
(0.62152844 0.00070441253 0)
(0.6177076 0.0006720641 0)
(0.61396785 0.0006414287 0)
(0.61030572 0.00061240701 0)
(0.60671795 0.00058489476 0)
(0.60320143 0.00055880463 0)
(0.59975325 0.0005340474 0)
(0.5963706 0.00051055066 0)
(0.59305085 0.0004882384 0)
(0.58979146 0.00046705116 0)
(0.58658999 0.0004469238 0)
(0.58344411 0.00042780605 0)
(0.5803515 0.00040964799 0)
(0.57730996 0.0003924064 0)
(0.5743172 0.00037604668 0)
(0.57137103 0.0003605409 0)
(0.56846894 0.00034586026 0)
(0.56560874 0.00033202014 0)
(0.56278697 0.00031896379 0)
(0.56000202 0.00030686666 0)
(0.55724645 0.00029547176 0)
(0.55452342 0.00028558005 0)
(0.55180833 0.00027605628 0)
(0.54912976 0.00026978674 0)
(0.54639512 0.00026362593 0)
(0.54372594 0.00026544111 8.2333613e-22)
(0.54079211 0.00026243907 0)
(0.53822953 0.00027785505 8.6961463e-20)
(0.53377559 0.00025716094 0)
(0.97861223 0.019696983 0)
(0.98108836 0.023711436 0)
(0.98476636 0.026537067 0)
(0.98876188 0.027876001 0)
(0.99239981 0.028062474 0)
(0.99541785 0.027542371 0)
(0.99783767 0.026665816 0)
(0.99978843 0.025642579 0)
(1.0013858 0.024550112 0)
(1.0026952 0.023437626 0)
(1.0037688 0.022340113 0)
(1.0046488 0.021269714 0)
(1.0053629 0.020242743 0)
(1.0059336 0.01926775 0)
(1.006383 0.018358078 0)
(1.0067337 0.017515854 0)
(1.006998 0.016734351 0)
(1.0071827 0.016022724 0)
(1.0072941 0.015379185 0)
(1.0073663 0.014796297 0)
(1.0073568 0.014270245 0)
(1.0073049 0.013799802 0)
(1.0071691 0.013377017 0)
(1.0069071 0.012991279 0)
(1.0064429 0.012635543 0)
(1.0056612 0.012303069 0)
(1.0044095 0.011983237 0)
(1.0023299 0.011663712 0)
(0.99909603 0.011330093 0)
(0.99436172 0.01095644 0)
(0.98791787 0.010514241 0)
(0.9796724 0.010008776 0)
(0.96968031 0.0094541075 0)
(0.95819597 0.0088696247 0)
(0.94564275 0.0082764929 0)
(0.93249324 0.0076923761 0)
(0.91916079 0.0071337215 0)
(0.90593836 0.0066117332 0)
(0.89299893 0.0061319561 0)
(0.88043517 0.0056928618 0)
(0.86829647 0.0052904405 0)
(0.85660629 0.004921331 0)
(0.84537091 0.0045821644 0)
(0.83458533 0.004270678 0)
(0.82423714 0.0039848096 0)
(0.8143102 0.0037220981 0)
(0.80478617 0.0034807734 0)
(0.79564517 0.0032587775 0)
(0.78686738 0.0030541647 0)
(0.77843298 0.0028655945 0)
(0.77032258 0.0026914157 0)
(0.76251778 0.0025303932 0)
(0.75500094 0.0023813312 0)
(0.74775565 0.0022430644 0)
(0.74076628 0.0021148098 0)
(0.73401812 0.0019956018 0)
(0.72749741 0.0018847127 0)
(0.72119118 0.0017814098 0)
(0.71508741 0.0016850332 0)
(0.70917484 0.0015950134 0)
(0.70344307 0.0015107881 0)
(0.69788233 0.0014319674 0)
(0.69248349 0.0013580937 0)
(0.68723812 0.001288812 0)
(0.68213829 0.0012237664 0)
(0.67717659 0.0011626481 0)
(0.67234611 0.0011051623 0)
(0.66764042 0.0010510389 0)
(0.66305349 0.0010000393 0)
(0.6585797 0.0009519413 0)
(0.65421373 0.00090655055 0)
(0.64995064 0.00086367786 0)
(0.64578576 0.00082316327 0)
(0.64171473 0.00078485214 0)
(0.63773342 0.00074861066 0)
(0.63383795 0.00071430279 0)
(0.63002465 0.00068181274 0)
(0.62629004 0.0006510244 0)
(0.62263084 0.00062184139 0)
(0.61904392 0.00059416496 0)
(0.61552629 0.0005679157 0)
(0.61207509 0.00054300927 0)
(0.60868758 0.00051937873 0)
(0.60536108 0.00049695859 0)
(0.60209302 0.00047569181 0)
(0.59888078 0.00045553157 0)
(0.59572181 0.00043644008 0)
(0.59261335 0.00041837813 0)
(0.58955287 0.00040135962 0)
(0.58653668 0.00038531318 0)
(0.58356282 0.00037044108 0)
(0.58062372 0.00035643675 0)
(0.57772204 0.00034423835 0)
(0.5748335 0.00033250073 0)
(0.57198523 0.00032463108 0)
(0.56908683 0.0003168261 0)
(0.56625569 0.00031862055 0)
(0.56316684 0.00031380874 0)
(0.56045491 0.00033789087 0)
(0.55576721 0.00030038656 0)
(0.97997426 0.019177871 0)
(0.98215898 0.02274687 0)
(0.98536428 0.025355262 0)
(0.98892953 0.026721658 0)
(0.99229128 0.027066335 0)
(0.99517388 0.026738363 0)
(0.9975461 0.026032161 0)
(0.99948817 0.025140827 0)
(1.0010885 0.024152386 0)
(1.002405 0.023121866 0)
(1.0034858 0.022088843 0)
(1.0043712 0.021071483 0)
(1.0050903 0.020087342 0)
(1.0056671 0.019147891 0)
(1.0061239 0.018265739 0)
(1.0064847 0.017445375 0)
(1.0067649 0.016683072 0)
(1.0069753 0.015985994 0)
(1.0071294 0.015352865 0)
(1.0072436 0.014780156 0)
(1.0073187 0.014263883 0)
(1.0073621 0.013797912 0)
(1.0073878 0.013378281 0)
(1.0073813 0.0129988 0)
(1.0073419 0.012653922 0)
(1.0072489 0.01233984 0)
(1.0070754 0.012051194 0)
(1.006765 0.011781169 0)
(1.0062234 0.011525521 0)