# y+ ()         
# Time          	patch           	min             	max             	average         
2000            	bottom	1.68815381e+00	4.79547822e+00	2.14417043e+00
