/*--------------------------------*- C++ -*----------------------------------*\
| =========                 |                                                 |
| \\      /  F ield         | OpenFOAM: The Open Source CFD Toolbox           |
|  \\    /   O peration     | Version:  2206                                  |
|   \\  /    A nd           | Website:  www.openfoam.com                      |
|    \\/     M anipulation  |                                                 |
\*---------------------------------------------------------------------------*/
FoamFile
{
    version     2.0;
    format      ascii;
    arch        "LSB;label=32;scalar=64";
    class       surfaceScalarField;
    location    "400";
    object      phi;
}
// * * * * * * * * * * * * * * * * * * * * * * * * * * * * * * * * * * * * * //

dimensions      [0 3 -1 0 0 0 0];

oriented        oriented;

internalField   nonuniform List<scalar> 
5870
(
-2.62252904246e-08
1.26032276796e-06
-9.82008270453e-08
3.40466758525e-06
-2.06755104005e-07
5.05768458989e-06
-3.44779463863e-07
6.30551510005e-06
-5.06519892127e-07
7.2202329758e-06
-6.87136790062e-07
7.8621515427e-06
-8.8244609797e-07
8.28173860808e-06
-1.08876476132e-06
8.52119445342e-06
-1.30281979643e-06
8.6157676631e-06
-1.5216956603e-06
8.59485714188e-06
-1.74280373195e-06
8.48293744083e-06
-1.96386357611e-06
8.30033717961e-06
-2.18288952321e-06
8.06389474888e-06
-2.39817872512e-06
7.7875112978e-06
-2.60829863143e-06
7.48261755732e-06
-2.81207261116e-06
7.15856785465e-06
-3.00856106328e-06
6.8229706947e-06
-3.19703497036e-06
6.48196461243e-06
-3.3769590824e-06
6.14046732403e-06
-3.54806471049e-06
5.80246758829e-06
-3.71061045175e-06
5.4713837463e-06
-3.86556114569e-06
5.15012571275e-06
-4.0132684271e-06
4.83971756552e-06
-4.14773168331e-06
4.53497965486e-06
-4.24361468453e-06
4.21736962444e-06
-4.23711307442e-06
3.84890477842e-06
-4.00863520406e-06
3.37403523325e-06
-3.37945719054e-06
2.73366805225e-06
-2.12810320572e-06
1.88493402358e-06
7.94496394838e-07
-2.05617407408e-08
1.28088450874e-06
-7.55378139063e-08
3.45964365829e-06
-1.56661928049e-07
5.138808704e-06
-2.56916913384e-07
6.40577008544e-06
-3.70494889442e-07
7.33381095189e-06
-4.92698881041e-07
7.9843555345e-06
-6.19812970845e-07
8.40885269799e-06
-7.48966308566e-07
8.65034779127e-06
-8.7800118961e-07
8.74480254415e-06
-1.0053499171e-06
8.72220586909e-06
-1.12992284886e-06
8.60751037299e-06
-1.25100880897e-06
8.42142313899e-06
-1.36818825143e-06
8.18107419216e-06
-1.48125912597e-06
7.90058217167e-06
-1.59017482673e-06
7.591533258e-06
-1.69499222055e-06
7.26338524848e-06
-1.79582647346e-06
6.92380494746e-06
-1.89282203002e-06
6.57896016899e-06
-1.98619324e-06
6.23383853491e-06
-2.07638702451e-06
5.8926613727e-06
-2.16406055696e-06
5.55905727808e-06
-2.24855138771e-06
5.23461654378e-06
-2.32258721587e-06
4.91375339417e-06
-2.36258383644e-06
4.57497627476e-06
-2.31989669082e-06
4.17468247878e-06
-2.12553787339e-06
3.65454596103e-06
-1.72072290206e-06
2.96922026216e-06
-1.1127833881e-06
2.12572853834e-06
-4.3610857096e-07
1.20825920661e-06
3.58387823843e-07
-1.06067004398e-08
1.2914912092e-06
-3.88679271026e-08
3.48790488491e-06
-8.11528150632e-08
5.18109359196e-06
-1.34501987066e-07
6.45911925748e-06
-1.96497174481e-07
7.39580613933e-06
-2.6515749952e-07
8.05301585965e-06
-3.38848302849e-07
8.48254350137e-06
-4.16207012026e-07
8.72770650051e-06
-4.96084829459e-07
8.8246803616e-06
-5.77502080561e-07
8.80362312008e-06
-6.59615045843e-07
8.68962333845e-06
-7.41692086596e-07
8.50350017944e-06
-8.23096982539e-07
8.26247908846e-06
-9.03277639177e-07
7.98076282803e-06
-9.81758076585e-07
7.67001369538e-06
-1.05813070991e-06
7.33975788181e-06
-1.13205091106e-06
6.99772514854e-06
-1.20326372433e-06
6.65017298227e-06
-1.27171065735e-06
6.30228546832e-06
-1.33754691943e-06
5.95849763473e-06
-1.40013275457e-06
5.62164311292e-06
-1.45423552299e-06
5.28871931234e-06
-1.48298233021e-06
4.94250020162e-06
-1.45246081753e-06
4.54445476178e-06
-1.31874231077e-06
4.04096397202e-06
-1.05496436043e-06
3.3907680107e-06
-6.88714441857e-07
2.60297034367e-06
-3.17668904386e-07
1.75468300089e-06
-6.78711301654e-08
9.58461432424e-07
2.90516693673e-07
-1.03183865081e-08
1.30180959572e-06
-3.84009433474e-08
3.51598744173e-06
-8.01948314281e-08
5.22288748005e-06
-1.32376615273e-07
6.51130104135e-06
-1.92197532947e-07
7.45562705703e-06
-2.57371946796e-07
8.11819027357e-06
-3.26000001128e-07
8.55117155574e-06
-3.96509400971e-07
8.79821590039e-06
-4.67609978463e-07
8.8957809391e-06
-5.38256394523e-07
8.87426953608e-06
-6.07616172046e-07
8.7589831161e-06
-6.75041387286e-07
8.57092539447e-06
-7.40043121303e-07
8.32748082273e-06
-8.02268149241e-07
8.04298785578e-06
-8.61476805489e-07
7.72922235161e-06
-9.17521542737e-07
7.39580261907e-06
-9.70338851502e-07
7.05054245727e-06
-1.01999291027e-06
6.69982704104e-06
-1.06672526704e-06
6.34901782539e-06
-1.11047710263e-06
6.00224947028e-06
-1.14855525854e-06
5.6597212686e-06
-1.17056797225e-06
5.31073202616e-06
-1.1536274153e-06
4.92555964484e-06
-1.0661412602e-06
4.45696860646e-06
-8.86802657617e-07
3.86162536943e-06
-6.30974236344e-07
3.13493958944e-06
-3.59432534777e-07
2.33142864214e-06
-1.47594432076e-07
1.5428448982e-06
-3.27574678988e-08
8.43624468258e-07
2.57759225774e-07
-8.83849324184e-09
1.31064808897e-06
-3.27950774171e-08
3.53994402587e-06
-6.82288655144e-08
5.25832126814e-06
-1.1212019876e-07
6.55519237461e-06
-1.61993983955e-07
7.50550084224e-06
-2.15844018201e-07
8.17204030788e-06
-2.72063853391e-07
8.60739139097e-06
-3.29383115054e-07
8.8555351621e-06
-3.86810808719e-07
8.95320863278e-06
-4.43585657211e-07
8.9310443845e-06
-4.99133412246e-07
8.81453087126e-06
-5.53030740639e-07
8.62482272267e-06
-6.0497510819e-07
8.37942519052e-06
-6.54759739593e-07
8.092772487e-06
-7.02252077667e-07
7.77671468967e-06
-7.47377992636e-07
7.44092853405e-06
-7.90131954295e-07
7.09329641889e-06
-8.30624693453e-07
6.74031978021e-06
-8.68943375049e-07
6.38733650725e-06
-9.03970729109e-07
6.03727682432e-06
-9.30067925086e-07
5.68581846439e-06
-9.32683908768e-07
5.31334800993e-06
-8.88562405767e-07
4.88143814198e-06
-7.77203501443e-07
4.34560970197e-06
-6.0065469712e-07
3.6850765651e-06
-3.94210354747e-07
2.92849524707e-06
-2.10343565857e-07
2.14756185328e-06
-8.43731614574e-08
1.41687449381e-06
-1.86645939976e-08
7.77915900809e-07
2.39094631779e-07
-7.19040534922e-09
1.31783849433e-06
-2.65688811498e-08
3.55932250164e-06
-5.53389244324e-08
5.28709131142e-06
-9.11880933312e-08
6.59104154352e-06
-1.32215091053e-07
7.54652783997e-06
-1.76865966941e-07
8.21669118382e-06
-2.23878021654e-07
8.6544034457e-06
-2.72231516977e-07
8.90388865745e-06
-3.21108903857e-07
9.00208601966e-06
-3.69860421324e-07
8.9797959019e-06
-4.17975294977e-07
8.862645745e-06
-4.65057693646e-07
8.67190512118e-06
-5.10806655551e-07
8.4251741526e-06
-5.54998930048e-07
8.13696476135e-06
-5.97474011452e-07
7.81918977106e-06
-6.38128416876e-07
7.48158293947e-06
-6.76939099042e-07
7.13210710102e-06
-7.13958553325e-07
6.77733923449e-06
-7.48841160052e-07
6.42221911419e-06
-7.78942172138e-07
6.06737783637e-06
-7.95761134961e-07
5.70263742705e-06
-7.8281935919e-07
5.30040623423e-06
-7.20966775393e-07
4.81958555829e-06
-6.02573371729e-07
4.22721629817e-06
-4.44194935321e-07
3.52669812869e-06
-2.8214633126e-07
2.76644664302e-06
-1.50256084626e-07
2.01567160666e-06
-6.19837972229e-08
1.3286022064e-06
-1.43156317201e-08
7.30247735314e-07
2.24779000056e-07
-6.62945867367e-09
1.32446795301e-06
-2.45091634851e-08
3.57720220644e-06
-5.10700048168e-08
5.31365215275e-06
-8.4189845426e-08
6.62416138415e-06
-1.22120815389e-07
7.58445880995e-06
-1.63429417342e-07
8.25799978582e-06
-2.06945938937e-07
8.69791996732e-06
-2.51721888519e-07
8.94866460706e-06
-2.96994254949e-07
9.0473583861e-06
-3.42155211253e-07
9.02495685816e-06
-3.86726469255e-07
8.90721700309e-06
-4.30337532905e-07
8.71551618469e-06
-4.72707175481e-07
8.46754379535e-06
-5.13627243792e-07
8.17788482953e-06
-5.52949746872e-07
7.85851227412e-06
-5.90588278345e-07
7.51922147095e-06
-6.26536998614e-07
7.16805582126e-06
-6.60740672521e-07
6.8115429084e-06
-6.92193272163e-07
6.45367171403e-06
-7.16519343322e-07
6.09170390751e-06
-7.23046160804e-07
5.70916424439e-06
-6.95675145888e-07
5.27303521938e-06
-6.21529311833e-07
4.74543972434e-06
-5.03307464393e-07
4.10899445062e-06
-3.63036141471e-07
3.38642680576e-06
-2.30197942065e-07
2.63360844361e-06
-1.24895306524e-07
1.91036897114e-06
-5.30123027501e-08
1.25671920264e-06
-1.26889341662e-08
6.89924366734e-07
2.12090065886e-07
-6.279240848e-09
1.33074719387e-06
-2.32414254656e-08
3.59416439103e-06
-4.84227495546e-08
5.33883347684e-06
-7.97885694268e-08
6.65552720404e-06
-1.15666088356e-07
7.62033632889e-06
-1.54687324662e-07
8.29702102217e-06
-1.95740233868e-07
8.73897287656e-06
-2.3792702171e-07
8.99085139494e-06
-2.80528791979e-07
9.08996015639e-06
-3.22975522731e-07
9.06740358887e-06
-3.64820729759e-07
8.9490622102e-06
-4.05720109162e-07
8.75641556396e-06
-4.45413428891e-07
8.50723711524e-06
-4.83708981573e-07
8.21618038209e-06
-5.20473647001e-07
7.89527693955e-06
-5.55639568352e-07
7.55438739231e-06
-5.89192333866e-07
7.20160858675e-06
-6.20845334637e-07
6.84319590918e-06
-6.48709555188e-07
6.48153593477e-06
-6.66742246509e-07
6.10973659882e-06
-6.63167158753e-07
5.70558915651e-06
-6.24125744527e-07
5.23399380521e-06
-5.43285917604e-07
4.6645998975e-06
-4.29918717208e-07
3.99562725014e-06
-3.05980145627e-07
3.26248823418e-06
-1.93550500926e-07
2.52117879892e-06
-1.05262880187e-07
1.82208135042e-06
-4.46804943819e-08
1.19613681683e-06
-1.06296240228e-08
6.55873496384e-07
2.01460441863e-07
-5.87410377558e-09
1.33662129765e-06
-2.17428111563e-08
3.61003309839e-06
-4.53044648786e-08
5.36239513056e-06
-7.46589139681e-08
6.68488165314e-06
-1.08243910499e-07
7.65392132543e-06
-1.44781445901e-07
8.33355855761e-06
-1.83231882056e-07
8.77742331273e-06
-2.22755064035e-07
9.03037457694e-06
-2.62677418835e-07
9.12988251119e-06
-3.02464090586e-07
9.10719026057e-06
-3.41695460339e-07
8.98829358003e-06
-3.8004734018e-07
8.79476744368e-06
-4.17274109428e-07
8.54446388463e-06
-4.53194705108e-07
8.25210097765e-06
-4.87686526846e-07
7.92976876127e-06
-5.20690924278e-07
7.58739178974e-06
-5.52136196519e-07
7.23305385897e-06
-5.81368039429e-07
6.87242775209e-06
-6.05492230051e-07
6.50566012556e-06
-6.17131585592e-07
6.12137595434e-06
-6.0453946937e-07
5.69299704016e-06
-5.57153107043e-07
5.18660744293e-06
-4.74206832807e-07
4.58165362335e-06
-3.68250767011e-07
3.88967118426e-06
-2.58851180457e-07
3.15308864762e-06
-1.62456791756e-07
2.42478441022e-06
-8.77168652186e-08
1.74734142389e-06
-3.69117578895e-08
1.14533170951e-06
-8.67965944108e-09
6.27641397939e-07
1.92780782424e-07
-5.52492785856e-09
1.34214622552e-06
-2.04447904515e-08
3.62495296097e-06
-4.26004203611e-08
5.38455076047e-06
-7.02091777406e-08
6.71249041053e-06
-1.01804953932e-07
7.68551710163e-06
-1.36187824123e-07
8.36794142784e-06
-1.72381040351e-07
8.81361652898e-06
-2.0959470724e-07
9.06758824385e-06
-2.4719505076e-07
9.16748285472e-06
-2.84678408301e-07
9.14467361807e-06
-3.21649295182e-07
9.02526446698e-06
-3.57801855333e-07
8.83092000371e-06
-3.92904052774e-07
8.57956608222e-06
-4.26785416198e-07
8.28598234097e-06
-4.59334098149e-07
7.96231744321e-06
-4.90489791296e-07
7.61854748289e-06
-5.20066340844e-07
7.26263040849e-06
-5.46927018625e-07
6.89928842987e-06
-5.67174735199e-07
6.52590784229e-06
-5.72581845786e-07
6.12678306491e-06
-5.52340538862e-07
5.67275573312e-06
-4.9943749353e-07
5.13370439765e-06
-4.17197282757e-07
4.49941341264e-06
-3.19208875086e-07
3.79168277652e-06
-2.2214945958e-07
3.05602923211e-06
-1.38514586217e-07
2.34114953686e-06
-7.44681906421e-08
1.68329502833e-06
-3.1270741579e-08
1.10213426044e-06
-7.35649897055e-09
6.03727155336e-07
1.85424283451e-07
-5.24894399732e-09
1.34739516952e-06
-1.94228300675e-08
3.63912684703e-06
-4.04705352664e-08
5.40559846567e-06
-6.66985682035e-08
6.73871844349e-06
-9.67141880925e-08
7.71553272154e-06
-1.29377608891e-07
8.40060484869e-06
-1.63761115463e-07
8.84800003558e-06
-1.9911454808e-07
9.1029416765e-06
-2.34836066394e-07
9.20320437305e-06
-2.70447420572e-07
9.18028497222e-06
-3.05573093163e-07
9.06039013965e-06
-3.3992263651e-07
8.86526954695e-06
-3.7327575052e-07
8.61291919637e-06
-4.05471893302e-07
8.31817848365e-06
-4.36408214237e-07
7.99325376415e-06
-4.66004801435e-07
7.6481440701e-06
-4.93898055267e-07
7.2905236623e-06
-5.18389808596e-07
6.92378018321e-06
-5.34689413386e-07
6.54220744724e-06
-5.34235822533e-07
6.12632947405e-06
-5.07749253075e-07
5.64626916357e-06
-4.5149353463e-07
5.07744867925e-06
-3.71471461645e-07
4.41939133972e-06
-2.81043118289e-07
3.7012544331e-06
-1.94214827847e-07
2.96920094167e-06
-1.20657962601e-07
2.26759267162e-06
-6.48140816302e-08
1.62745114737e-06
-2.72573311101e-08
1.06457750993e-06
-6.4357785738e-09
5.82905602806e-07
1.78988504878e-07
-5.01329208382e-09
1.35240846161e-06
-1.85520451888e-08
3.65266560012e-06
-3.86566049442e-08
5.42570302542e-06
-6.37090730643e-08
6.76377091162e-06
-9.23789553383e-08
7.74420260382e-06
-1.23577441626e-07
8.43180333501e-06
-1.56418320489e-07
8.88084091447e-06
-1.90185008104e-07
9.13670836414e-06
-2.24302602331e-07
9.23732196728e-06
-2.58314261653e-07
9.21429663151e-06
-2.91861270861e-07
9.09393714892e-06
-3.246661493e-07
8.89807442529e-06
-3.5651865729e-07
8.64477170449e-06
-3.87267212402e-07
8.34892703867e-06
-4.16813634187e-07
8.02280018592e-06
-4.45033811127e-07
7.67636424705e-06
-4.71325212226e-07
7.31681506338e-06
-4.93393974132e-07
6.94584894512e-06
-5.05742688957e-07
6.55455616221e-06
-4.99947709672e-07
6.12053449475e-06
-4.68550733409e-07
5.61487218721e-06
-4.10573168444e-07
5.01947111433e-06
-3.3358318095e-07
4.34240135228e-06
-2.50101510148e-07
3.61777276225e-06
-1.71863837936e-07
2.89096326945e-06
-1.06463367252e-07
2.20219220094e-06
-5.71313347441e-08
1.57811911487e-06
-2.40259159597e-08
1.03147209115e-06
-5.6742164673e-09
5.64553903317e-07
1.73314288413e-07
-4.80223616965e-09
1.35721069779e-06
-1.77713019238e-08
3.66563466586e-06
-3.70301261909e-08
5.44496184969e-06
-6.10290223159e-08
6.78776980776e-06
-8.84936053399e-08
7.77166718685e-06
-1.18380954258e-07
8.46169068396e-06
-1.49842165752e-07
8.91230212598e-06
-1.82190786755e-07
9.16905698516e-06
-2.14876047328e-07
9.27000722786e-06
-2.47460248834e-07
9.24688083298e-06
-2.79599666763e-07
9.12607656691e-06
-3.1102838545e-07
8.92950314388e-06
-3.41545326054e-07
8.67528864521e-06
-3.71006962314e-07
8.37838867483e-06
-3.99313060601e-07
8.0511062842e-06
-4.2626642683e-07
7.70331761328e-06
-4.50973489331e-07
7.34152212586e-06
-4.70556594358e-07
6.96543205015e-06
-4.79039912673e-07
6.56303948066e-06
-4.68513419239e-07
6.11000800131e-06
-4.33401626583e-07
5.57976039446e-06
-3.74899131583e-07
4.96096861936e-06
-3.01348350488e-07
4.26885057124e-06
-2.24194444249e-07
3.54061885596e-06
-1.53295058004e-07
2.8200638832e-06
-9.46821170766e-08
2.14357926002e-06
-5.07245726529e-08
1.53416157045e-06
-2.13090356908e-08
1.00205655419e-06
-5.02760468694e-09
5.48272472315e-07
1.68286683726e-07
-4.61361251821e-09
1.36182431031e-06
-1.70730634049e-08
3.67809411673e-06
-3.55752935782e-08
5.46346407986e-06
-5.86317169387e-08
6.81082623113e-06
-8.50181985452e-08
7.79805366846e-06
-1.13732920154e-07
8.4904054056e-06
-1.43960407824e-07
8.94252961366e-06
-1.75041215328e-07
9.20013779268e-06
-2.06446210286e-07
9.30141222282e-06
-2.37754861493e-07
9.27818948414e-06
-2.68636888022e-07
9.15695859349e-06
-2.98836789158e-07
8.95970304491e-06
-3.28161936259e-07
8.70461379242e-06
-3.56475444634e-07
8.40670218311e-06
-3.83665708854e-07
8.07829654841e-06
-4.09431781633e-07
7.72908368606e-06
-4.32551712841e-07
7.36464205705e-06
-4.49615712336e-07
6.98249604965e-06
-4.54405251926e-07
6.56782902037e-06
-4.3978759718e-07
6.09539034654e-06
-4.01973818176e-07
5.54194661537e-06
-3.43783420509e-07
4.90277822173e-06
-2.73806209655e-07
4.19887336043e-06
-2.0236717693e-07
3.46917982319e-06
-1.3778056919e-07
2.75547727546e-06
-8.48834591167e-08
2.09068214994e-06
-4.54121444802e-08
1.49469025582e-06
-1.90649283787e-08
9.75709338087e-07
-4.49722618897e-09
5.33704770127e-07
1.63789457533e-07
-4.4455092389e-09
1.36626981955e-06
-1.64509180351e-08
3.69009952551e-06
-3.42790062364e-08
5.48129216807e-06
-5.64955430404e-08
6.83304276795e-06
-8.19211022625e-08
7.8234792277e-06
-1.09590442942e-07
8.51807474632e-06
-1.38717850937e-07
8.97165702168e-06
-1.6866793152e-07
9.2300878733e-06
-1.98930832323e-07
9.33167512364e-06
-2.29101327379e-07
9.30835997918e-06
-2.58861131812e-07
9.186718398e-06
-2.87964111549e-07
8.98880602457e-06
-3.16225373231e-07
8.73287505423e-06
-3.43512436135e-07
8.43398924594e-06
-3.69690617845e-07
8.10447473012e-06
-3.94325317903e-07
7.75371838614e-06
-4.15846273195e-07
7.38616301233e-06
-4.30392538249e-07
6.99704231471e-06
-4.31721269941e-07
6.5691577522e-06
-4.13634853706e-07
6.0773039303e-06
-3.73945695196e-07
5.5022574568e-06
-3.16631606171e-07
4.84546413274e-06
-2.5019627767e-07
4.13243803197e-06
-1.83890176524e-07
3.40287372201e-06
-1.24757173349e-07
2.69634427229e-06
-7.67051733282e-08
2.04263014993e-06
-4.09977484665e-08
1.45898283097e-06
-1.72072350431e-08
9.51918824667e-07
-4.05978673226e-09
5.20557321822e-07
1.59729670803e-07
-4.29430037984e-09
1.37056411994e-06
-1.58914057442e-08
3.70169663086e-06
-3.31132398815e-08
5.4985140022e-06
-5.45744034517e-08
6.85450393152e-06
-7.9135638443e-08
7.84804046269e-06
-1.05864568462e-07
8.54480367636e-06
-1.34002222619e-07
8.99979467585e-06
-1.6293482282e-07
9.25902047351e-06
-1.92169849214e-07
9.36091015003e-06
-2.21315838044e-07
9.33750596797e-06
-2.500653027e-07
9.2154678627e-06
-2.78180622713e-07
9.01692134448e-06
-3.05483904061e-07
8.76017833568e-06
-3.31843900317e-07
8.46034924211e-06
-3.5708932573e-07
8.12972015552e-06
-3.80625143294e-07
7.7772542037e-06
-4.00530566537e-07
7.40606843555e-06
-4.12592541204e-07
7.00910428938e-06
-4.10730505072e-07
6.56729571618e-06
-3.89752846483e-07
6.0563262717e-06
-3.48850365944e-07
5.46135497618e-06
-2.92784921792e-07
4.78939868861e-06
-2.2977319049e-07
4.06942630071e-06
-1.68074947526e-07
3.34117547901e-06
-1.13684501127e-07
2.64195382589e-06
-6.97788269126e-08
1.99872447571e-06
-3.72656840693e-08
1.42646968813e-06
-1.56366651483e-08
9.30289805744e-07
-3.68930680898e-09
5.08609963484e-07
1.56040363996e-07
-4.1569292294e-09
1.37472104917e-06
-1.53830746862e-08
3.71292277631e-06
-3.20540979631e-08
5.51518502548e-06
-5.28289660721e-08
6.87527879965e-06
-7.66049147882e-08
7.87181641143e-06
-1.02479425657e-07
8.57067818727e-06
-1.2971782527e-07
9.02703307548e-06
-1.57725975069e-07
9.28702862333e-06
-1.86027103014e-07
9.38921127798e-06
-2.14242248975e-07
9.36572111391e-06
-2.42073751801e-07
9.24329936558e-06
-2.69291815039e-07
9.04413940764e-06
-2.95724693717e-07
8.78661121446e-06
-3.21238216398e-07
8.48586276471e-06
-3.45609890362e-07
8.15409182948e-06
-3.68062428747e-07
7.79970674209e-06
-3.86338530943e-07
7.42434453773e-06
-3.95979717459e-07
7.0187454759e-06
-3.91216076139e-07
6.56253207498e-06
-3.67867550437e-07
6.03297774599e-06
-3.26275362553e-07
5.41976278823e-06
-2.71696263048e-07
4.73481958914e-06
-2.11946538622e-07
4.00967657632e-06
-1.5439166429e-07
3.28362060465e-06
-1.04155242363e-07
2.59171740397e-06
-6.38338344592e-08
1.95840306781e-06
-3.40649240011e-08
1.39670077768e-06
-1.42891111579e-08
9.10513992904e-07
-3.37104414439e-09
4.97691896472e-07
1.5266931985e-07
-4.03142545694e-09
1.37875247464e-06
-1.49186318015e-08
3.72380998264e-06
-3.10863845454e-08
5.53135277823e-06
-5.12341895032e-08
6.89542660462e-06
-7.42926263239e-08
7.89487484826e-06
-9.93864572837e-08
8.59577201826e-06
-1.25803210025e-07
9.05344982825e-06
-1.52966691138e-07
9.31419210448e-06
-1.80414518387e-07
9.41665910525e-06
-2.07779157864e-07
9.39308575337e-06
-2.34771948944e-07
9.27029215672e-06
-2.61170319176e-07
9.0705377778e-06
-2.86807597225e-07
8.81224849262e-06
-3.11541558919e-07
8.51059672634e-06
-3.35083641443e-07
8.17763391201e-06
-3.56458672383e-07
7.82108177304e-06
-3.73100328411e-07
7.44098619375e-06
-3.80410472075e-07
7.02605561957e-06
-3.73039366248e-07
6.55516096927e-06
-3.47778768273e-07
6.00771714801e-06
-3.05905893313e-07
5.37788991321e-06
-2.5295466479e-07
4.68186836064e-06
-1.96284121951e-07
3.95300603352e-06
-1.42461989029e-07
3.22979847169e-06
-9.58862886396e-08
2.54514170358e-06
-5.86883654865e-08
1.92120514466e-06
-3.12980450447e-08
1.36931045724e-06
-1.31248816706e-08
8.92340829535e-07
-3.09618762972e-09
4.87663202433e-07
1.49573132221e-07
-3.91627946901e-09
1.38266875411e-06
-1.44925202535e-08
3.73438622342e-06
-3.01985311299e-08
5.54705878911e-06
-4.97710038222e-08
6.91499907732e-06
-7.21711035821e-08
7.91727494803e-06
-9.65486174102e-08
8.62014953212e-06
-1.22211439408e-07
9.07911265027e-06
-1.48599839315e-07
9.34058050441e-06
-1.75264637517e-07
9.44332390346e-06
-2.01848786595e-07
9.41966990242e-06
-2.28071913895e-07
9.29651528408e-06
-2.53718111896e-07
9.09618397572e-06
-2.78624404882e-07
8.83715478571e-06
-3.0263453365e-07
8.53460685504e-06
-3.25379544553e-07
8.20037892291e-06
-3.45677476057e-07
7.84137970456e-06
-3.60690632781e-07
7.45599935046e-06
-3.65779879885e-07
7.03114486668e-06
-3.56089524272e-07
6.54547061376e-06
-3.29314822361e-07
5.98094244609e-06
-2.87477252695e-07
5.33605234349e-06
-2.36227285146e-07
4.63061839312e-06
-1.82445771705e-07
3.89922452011e-06
-1.3199356574e-07
3.1793462657e-06
-8.86610971819e-08
2.50180923503e-06
-5.42034862449e-08
1.88674753373e-06
-2.88896116781e-08
1.34399658268e-06
-1.21121788537e-08
8.75563396714e-07
-2.85719886653e-09
4.78408222449e-07
1.46715933358e-07
-3.81015435274e-09
1.38647890847e-06
-1.40997958553e-08
3.74467586491e-06
-2.93802395835e-08
5.56233923283e-06
-4.84224430701e-08
6.93404128081e-06
-7.02157550715e-08
7.93906826003e-06
-9.39330225969e-08
8.64386679967e-06
-1.18900908207e-07
9.10408053588e-06
-1.44574853744e-07
9.36625444995e-06
-1.70517847769e-07
9.46926689748e-06
-1.96382512276e-07
9.44553456689e-06
-2.21896146576e-07
9.32202891842e-06
-2.46848954154e-07
9.12113678321e-06
-2.71079927472e-07
8.86138575912e-06
-2.94412121062e-07
8.55793904854e-06
-3.16383125181e-07
8.22234992702e-06
-3.35602005859e-07
7.86059858523e-06
-3.49004111279e-07
7.46940145586e-06
-3.51996941748e-07
7.03413769714e-06
-3.40262205105e-07
6.53373587721e-06
-3.1231461009e-07
5.95299485106e-06
-2.70754094963e-07
5.2944918283e-06
-2.21231380775e-07
4.58109567895e-06
-1.70150582642e-07
3.848143722e-06
-1.22748435248e-07
3.13194411828e-06
-8.23040365875e-08
2.46136483636e-06
-5.02658419802e-08
1.85470933912e-06
-2.67772661079e-08
1.32050800681e-06
-1.12243066944e-08
8.60010437297e-07
-2.64765990446e-09
4.69831575658e-07
1.4406827345e-07
-3.71191670089e-09
1.39019082517e-06
-1.37362588613e-08
3.75470020706e-06
-2.86227596317e-08
5.57722573361e-06
-4.71740927172e-08
6.95259261392e-06
-6.84056928266e-08
7.96029986016e-06
-9.15117511334e-08
8.66697285801e-06
-1.15836302686e-07
9.12840508746e-06
-1.40848833271e-07
9.39126698056e-06
-1.66123595496e-07
9.49454165972e-06
-1.91322168581e-07
9.47073313996e-06
-2.16178985836e-07
9.34688573573e-06
-2.40489776891e-07
9.1454475742e-06
-2.64093402897e-07
8.88498938522e-06
-2.86785142884e-07
8.58063078847e-06
-3.07997896573e-07
8.2435626807e-06
-3.26135838783e-07
7.87873652745e-06
-3.37955410139e-07
7.4812210272e-06
-3.38985306576e-07
7.03516759358e-06
-3.25463234578e-07
6.52021380532e-06
-2.96632788242e-07
5.92416440472e-06
-2.55532269718e-07
5.25339130972e-06
-2.07730147478e-07
4.53329355673e-06
-1.59168788768e-07
3.79958236332e-06
-1.1453473481e-07
3.0873100643e-06
-7.66746462133e-08
2.42350474777e-06
-4.67852487195e-08
1.82481994163e-06
-2.49116936749e-08
1.29863445177e-06
-1.04403645459e-08
8.45539108173e-07
-2.46263425402e-09
4.61853845367e-07
1.41605639193e-07
-3.62063891698e-09
1.39381146409e-06
-1.33984758307e-08
3.76447804396e-06
-2.79189379807e-08
5.59174619576e-06
-4.60141663524e-08
6.9706878423e-06
-6.67238314554e-08
7.98100952527e-06
-8.9261955131e-08
8.68951098171e-06
-1.12988713436e-07
9.15213184578e-06
-1.37386640823e-07
9.41566490797e-06
-1.62040456483e-07
9.51919547539e-06
-1.8662007095e-07
9.4953127544e-06
-2.10866571581e-07
9.37113223641e-06
-2.34580564175e-07
9.16916156672e-06
-2.57598308828e-07
8.90800712997e-06
-2.79680034874e-07
8.60271251445e-06
-3.00144960896e-07
8.26402760672e-06
-3.17201950971e-07
7.89579351753e-06
-3.27477547072e-07
7.49149662329e-06
-3.26682514703e-07
7.03437256122e-06
-3.11609966894e-07
6.5051412576e-06
-2.82141536619e-07
5.89469597444e-06
-2.41637508734e-07
5.21288728179e-06
-1.95527033893e-07
4.48718308192e-06
-1.49313486605e-07
3.75336881606e-06
-1.07198507353e-07
3.04519508503e-06
-7.16612903105e-08
2.38796753073e-06
-4.36905857889e-08
1.79684923711e-06
-2.32542875919e-08
1.27819815358e-06
-9.74410269502e-09
8.32028923277e-07
-2.29830904984e-09
4.54408051726e-07
1.39307330148e-07
-3.53554579981e-09
1.3973470099e-06
-1.30835793265e-08
3.77402607747e-06
-2.72628010028e-08
5.60592541743e-06
-4.49328205e-08
6.9883578618e-06
-6.51558999605e-08
8.00123260473e-06
-8.71645469191e-08
8.71151962869e-06
-1.10333984034e-07
9.1753012829e-06
-1.34158909937e-07
9.43948983388e-06
-1.58233802118e-07
9.54327036757e-06
-1.82236348459e-07
9.51931530071e-06
-2.05913850772e-07
9.39480973876e-06
-2.29071047668e-07
9.19231876354e-06
-2.51538783977e-07
8.93047486636e-06
-2.73035035081e-07
8.62420876548e-06
-2.92758839558e-07
8.28375141119e-06
-3.08737884972e-07
7.91177256295e-06
-3.17516656263e-07
7.50027539457e-06
-3.15035568371e-07
7.03189147333e-06
-2.98628334475e-07
6.48873402379e-06
-2.68727483767e-07
5.86479512372e-06
-2.2891986974e-07
5.17307966771e-06
-1.84457233343e-07
4.44272044553e-06
-1.40430734873e-07
3.70934231761e-06
-1.00614393624e-07
3.00537874375e-06
-6.71737013028e-08
2.35452683841e-06
-4.09245596625e-08
1.77060009547e-06
-2.17739750703e-08
1.25904756899e-06
-9.12241683678e-09
8.19377365045e-07
-2.15159279609e-09
4.47437227685e-07
1.37155737354e-07
-3.45597466959e-09
1.40080298457e-06
-1.27891174329e-08
3.78335922023e-06
-2.66492405436e-08
5.61978554055e-06
-4.39216381115e-08
7.00563025938e-06
-6.36896961098e-08
8.02100066275e-06
-8.52032070462e-08
8.73303313966e-06
-1.07851463081e-07
9.19794953896e-06
-1.31140537328e-07
9.46277890815e-06
-1.54674033699e-07
9.56680386395e-06
-1.78136924436e-07
9.54277819143e-06
-2.01282310904e-07
9.41795512528e-06
-2.23918206438e-07
9.21495465901e-06
-2.45866928058e-07
8.95242358808e-06
-2.66797302643e-07
8.64513914001e-06
-2.85784277005e-07
8.30273838555e-06
-3.00692033656e-07
7.92668031961e-06
-3.08028096919e-07
7.50761145782e-06
-3.03997849579e-07
7.027861226e-06
-2.86450790415e-07
6.47118696472e-06
-2.56289249501e-07
5.8346335828e-06
-2.17249274949e-07
5.13403969312e-06
-1.74381143163e-07
4.39985231377e-06
-1.32392200067e-07
3.66735337454e-06
-9.46789024696e-08
2.96766544614e-06
-6.31377494555e-08
2.3229856854e-06
-3.84402141028e-08
1.74590256013e-06
-2.04452824351e-08
1.24105263732e-06
-8.56454605954e-09
8.07496628673e-07
-2.01994044676e-09
4.40892622076e-07
1.35135796905e-07
-3.38135643956e-09
1.40418434102e-06
-1.25129840744e-08
3.79249084786e-06
-2.60738687695e-08
5.63334642525e-06
-4.29733890628e-08
7.02252977969e-06
-6.23147385277e-08
8.04034201223e-06
-8.33639178893e-08
8.75408231906e-06
-1.05523412513e-07
9.22010903361e-06
-1.28309961782e-07
9.48556545745e-06
-1.5133572995e-07
9.58982963214e-06
-1.7429253197e-07
9.56573499344e-06
-1.96938864018e-07
9.44060145739e-06
-2.1908502673e-07
9.23710082167e-06
-2.40541460206e-07
8.97388002165e-06
-2.60921469608e-07
8.66551914936e-06
-2.79174549846e-07
8.3209914658e-06
-2.93021582772e-07
7.94052735255e-06
-2.98974405582e-07
7.51356428063e-06
-2.93527809675e-07
7.0224146301e-06
-2.75015667088e-07
6.45267482222e-06
-2.44736258353e-07
5.80435417407e-06
-2.06512688865e-07
5.09581612359e-06
-1.65180014943e-07
4.35851963987e-06
-1.25090274425e-07
3.62726363405e-06
-8.9306028832e-08
2.93188120053e-06
-5.9492148283e-08
2.29317180485e-06
-3.61988355665e-08
1.72260924742e-06
-1.92472387975e-08
1.22410104057e-06
-8.06164122938e-09
7.96311031105e-07
-1.90126210128e-09
4.34732242954e-07
1.33234534806e-07
-3.31120134072e-09
1.40749554236e-06
-1.22533668165e-08
3.80143301332e-06
-2.55329095903e-08
5.64662596802e-06
-4.20818510471e-08
7.03907872115e-06
-6.10220064794e-08
8.05928216766e-06
-8.16346146846e-08
8.77469492728e-06
-1.03334564657e-07
9.24180898359e-06
-1.25648623974e-07
9.50787951678e-06
-1.48197007869e-07
9.61237801604e-06
-1.70677975011e-07
9.58821596056e-06
-1.92855008331e-07
9.46277849075e-06
-2.14539571395e-07
9.25878538467e-06
-2.35526714e-07
8.99486716434e-06
-2.55368542991e-07
8.68536097828e-06
-2.728901529e-07
8.3385130757e-06
-2.85690928303e-07
7.95332812795e-06
-2.90323818095e-07
7.51819717041e-06
-2.83588112009e-07
7.01567892402e-06
-2.64266718987e-07
6.43335342928e-06
-2.33987692976e-07
5.77407514805e-06
-1.96611760325e-07
5.0584401909e-06
-1.5675248679e-07
4.31866036635e-06
-1.18434287153e-07
3.58894543443e-06
-8.4423898981e-08
2.89787081234e-06
-5.61859375797e-08
2.26493384345e-06
-3.41683295514e-08
1.70059163939e-06
-1.8162490219e-08
1.20809520123e-06
-7.60638789173e-09
7.85754928778e-07
-1.79383179685e-09
4.28919686859e-07
1.3144070301e-07
-3.24508512982e-09
1.41074062749e-06
-1.20086957909e-08
3.81019662398e-06
-2.50230922553e-08
5.65964036448e-06
-4.12416343307e-08
7.05529726323e-06
-5.98036859944e-08
8.07784421933e-06
-8.00048462735e-08
8.79489608758e-06
-1.01271693306e-07
9.26307583063e-06
-1.23140445566e-07
9.52974826905e-06
-1.45238909062e-07
9.63447647953e-06
-1.67271422023e-07
9.61024847349e-06
-1.89006030793e-07
9.48451309956e-06
-2.10254099759e-07
9.28003345356e-06
-2.30791688963e-07
9.01540475362e-06
-2.50104861581e-07
8.70467415083e-06
-2.66897558005e-07
8.35530577212e-06
-2.78670240706e-07
7.96510081065e-06
-2.82048986358e-07
7.52157591604e-06
-2.74144850376e-07
7.00777478803e-06
-2.54152553366e-07
6.41336113234e-06
-2.23971353011e-07
5.74389394769e-06
-1.87460645907e-07
5.02192948375e-06
-1.49011612058e-07
4.28021133251e-06
-1.12347366357e-07
3.55228118875e-06