/*--------------------------------*- C++ -*----------------------------------*\
| =========                 |                                                 |
| \\      /  F ield         | OpenFOAM: The Open Source CFD Toolbox           |
|  \\    /   O peration     | Version:  2206                                  |
|   \\  /    A nd           | Website:  www.openfoam.com                      |
|    \\/     M anipulation  |                                                 |
\*---------------------------------------------------------------------------*/
FoamFile
{
    version     2.0;
    format      ascii;
    arch        "LSB;label=32;scalar=64";
    class       volVectorField;
    location    "400";
    object      U;
}
// * * * * * * * * * * * * * * * * * * * * * * * * * * * * * * * * * * * * * //

dimensions      [0 1 -1 0 0 0 0];

internalField   nonuniform List<vector> 
3000
(
(1.00514458058 -0.000744522705875 -2.80557980167e-13)
(1.00519974501 -0.00170310632634 -9.02965622574e-14)
(1.00531043585 -0.00269826283404 -6.03138767396e-14)
(1.00546243557 -0.00365899422548 -4.73301028908e-14)
(1.00564683019 -0.00457985139384 -3.88560844623e-14)
(1.00585649185 -0.00546342722151 -3.40932554135e-14)
(1.00608551792 -0.00631206599349 -2.9770136315e-14)
(1.00632890799 -0.00712708042257 -2.73420817008e-14)
(1.00658237121 -0.0079089914683 -2.63406685132e-14)
(1.00684220526 -0.00865780863814 -2.40949492307e-14)
(1.00710521504 -0.00937326445993 -2.29241577664e-14)
(1.00736865455 -0.0100549961295 -2.13628704129e-14)
(1.00763018162 -0.010702677785 -2.23137024765e-14)
(1.00788782059 -0.0113161113059 -1.82713412367e-14)
(1.00813993925 -0.0118952842332 -2.10123938751e-14)
(1.00838525053 -0.0124404027859 -1.90481643195e-14)
(1.00862271865 -0.0129519031656 -2.05128902092e-14)
(1.00885085624 -0.0134304281662 -2.38523136035e-14)
(1.00906629155 -0.0138767537746 -2.29186454722e-14)
(1.00926649507 -0.0142918094358 -1.13405688887e-14)
(1.00947305484 -0.0146774029245 -1.56318135245e-14)
(1.0097901034 -0.0150381337862 -2.52251308698e-14)
(1.01043763909 -0.0153812308444 -1.55536420163e-14)
(1.01149155889 -0.0157035996817 -7.74756791509e-15)
(1.01178906063 -0.0159580706889 -2.5049763574e-14)
(1.00640478836 -0.0160112342509 -2.22848537683e-14)
(0.982512281327 -0.0155819836085 -2.18019302402e-14)
(0.91370681667 -0.0140618328098 -1.41637827059e-14)
(0.75065883322 -0.0103476457079 -8.03129128211e-15)
(0.396854543207 -0.00366081918168 -1.03306304463e-14)
(1.02739406077 -0.000572460173104 -7.25668971759e-13)
(1.02756270324 -0.00131409350845 -2.6900763771e-13)
(1.027903575 -0.00205341168007 -1.69842597068e-13)
(1.02836903452 -0.0027443828341 -1.15342609798e-13)
(1.02892964844 -0.00337624342113 -1.03123848461e-13)
(1.02956199524 -0.00395211505782 -8.58668125119e-14)
(1.03024694395 -0.00447567655527 -7.74638133162e-14)
(1.0309686355 -0.00495116960125 -7.18104146751e-14)
(1.03171385078 -0.00538312021315 -6.48782245622e-14)
(1.03247156688 -0.00577607826671 -5.77113416303e-14)
(1.03323262074 -0.00613446712543 -5.97325237657e-14)
(1.03398944227 -0.00646248523444 -4.77169559727e-14)
(1.03473583497 -0.00676403766901 -5.78297875037e-14)
(1.03546679823 -0.00704269039576 -3.95258132539e-14)
(1.03617839762 -0.00730164324387 -4.96893361518e-14)
(1.03686756915 -0.00754371771761 -4.54575598691e-14)
(1.03753131983 -0.00777134927903 -4.62708193044e-14)
(1.03816530668 -0.00798657315418 -5.58407193149e-14)
(1.03876818296 -0.00819106359756 -5.6148635287e-14)
(1.03937125704 -0.00838650173761 -2.87273512427e-14)
(1.04009628061 -0.00857557356487 -3.57779703468e-14)
(1.04109861044 -0.0087619359423 -5.43725833406e-14)
(1.04192554748 -0.00894100791091 -3.82465207642e-14)
(1.03959084349 -0.00906893657281 -2.57023718951e-14)
(1.0252489452 -0.00901810451991 -5.23182792975e-14)
(0.981179745672 -0.00856999173926 -4.79414104381e-14)
(0.881876216538 -0.0074753090985 -4.15836100024e-14)
(0.703343563579 -0.00554013740507 -2.68596678778e-14)
(0.44225735083 -0.00283907212678 -1.32004572516e-14)
(0.139647664066 -0.000247218215827 -7.49000688318e-15)
(1.04476400268 -0.000294306558204 -9.38780399796e-13)
(1.04492110378 -0.000684130957221 -3.71673505991e-13)
(1.04523857595 -0.00106506517114 -2.42631450982e-13)
(1.04567053242 -0.00143628829785 -1.70579151647e-13)
(1.04618902529 -0.00178623612451 -1.39830802759e-13)
(1.04677177085 -0.00211845483404 -1.18009217675e-13)
(1.04740072934 -0.00243415965442 -1.05089063422e-13)
(1.04806109901 -0.00273466732121 -9.77285415447e-14)
(1.04874071359 -0.00302110836365 -9.16641626542e-14)
(1.04942959267 -0.00329435380023 -7.86086490938e-14)
(1.05011958534 -0.00355505142964 -8.00688637584e-14)
(1.05080408081 -0.00380366534232 -6.62725751714e-14)
(1.05147777054 -0.00404051685209 -7.61664210259e-14)
(1.05213646605 -0.00426582543377 -5.55575167355e-14)
(1.0527769469 -0.00447974695326 -6.62663627194e-14)
(1.05339650114 -0.00468240264019 -6.21331249261e-14)
(1.05399160581 -0.00487388663802 -6.53268226775e-14)
(1.05455897287 -0.00505429655726 -7.38412916836e-14)
(1.05511477092 -0.00522400707678 -7.03062125888e-14)
(1.05574408032 -0.00538429301624 -4.44704918345e-14)
(1.05657215969 -0.00553679178514 -5.20171002949e-14)
(1.05722131333 -0.00567651101582 -6.71823259467e-14)
(1.05505233123 -0.00577094249663 -5.21245056823e-14)
(1.04213219955 -0.00572874502246 -4.53334301877e-14)
(1.00295313074 -0.00539161318271 -6.35297777173e-14)
(0.916976611813 -0.00459886705909 -5.75070876755e-14)
(0.768905690322 -0.00332334123868 -4.54098238034e-14)
(0.563372890361 -0.00180155812041 -3.00139066225e-14)
(0.330956354885 -0.000545069416749 -1.50168701191e-14)
(0.107742004257 -3.9426594e-06 -4.92901921107e-15)
(1.052706044 -0.000287045120486 -1.0650613583e-12)
(1.05284838597 -0.000671771084599 -4.57609557292e-13)
(1.05313558708 -0.00104710943027 -2.87637943179e-13)
(1.05352718419 -0.00141094547305 -2.02303880943e-13)
(1.05399883747 -0.00174633276904 -1.6994436116e-13)
(1.05453096837 -0.00205805722973 -1.45037550596e-13)
(1.05510768825 -0.0023465280709 -1.27649120543e-13)
(1.05571581067 -0.00261295345692 -1.16970460656e-13)
(1.05634434607 -0.00285848721738 -1.08705045691e-13)
(1.05698412666 -0.00308423858703 -9.60871341963e-14)
(1.05762752059 -0.0032913104906 -9.54789116398e-14)
(1.05826820676 -0.00348080312327 -8.11977743698e-14)
(1.0589009971 -0.00365381431113 -8.91596535549e-14)
(1.05952170789 -0.00381143659 -6.85657465126e-14)
(1.06012695669 -0.00395475086469 -7.94961289604e-14)
(1.06071338033 -0.00408481123584 -7.67382654061e-14)
(1.06127697415 -0.00420262198931 -8.13715712488e-14)
(1.06182154534 -0.00430921560701 -8.85541837292e-14)
(1.06239246619 -0.00440605923577 -7.92256746901e-14)
(1.06308597078 -0.00449517956759 -5.78604452176e-14)
(1.06372622706 -0.00457534744064 -6.54988701161e-14)
(1.06257812057 -0.00462799231256 -7.53286538524e-14)
(1.05381285493 -0.00459360776892 -6.28017241557e-14)
(1.02522459939 -0.0043615193184 -5.92005293052e-14)
(0.959791404631 -0.00381145914843 -6.82905293431e-14)
(0.843738488542 -0.00291404137812 -5.97818202098e-14)
(0.677905350849 -0.00182301094145 -4.53003397073e-14)
(0.48193636816 -0.000847836763134 -3.05000219241e-14)
(0.282001679738 -0.000250609889807 -1.64167813815e-14)
(0.0922358211502 -1.51502860032e-05 -5.43609371224e-15)
(1.05842793217 -0.000243669755149 -1.16158305273e-12)
(1.05857363263 -0.000574950796019 -5.31280048252e-13)
(1.05886701536 -0.000893351361653 -3.29490356082e-13)
(1.0592670067 -0.00120030734977 -2.32475522194e-13)
(1.05974834717 -0.00147775754189 -1.95270931256e-13)
(1.06029068252 -0.00173282579784 -1.6721440964e-13)
(1.06087756024 -0.00196565402917 -1.46436082081e-13)
(1.06149533858 -0.002178146727 -1.33639656495e-13)
(1.06213269199 -0.00237199414649 -1.23198344905e-13)
(1.06278021727 -0.00254880896936 -1.10470125884e-13)
(1.06343013431 -0.00271011452961 -1.07729863125e-13)
(1.06407604833 -0.0028573209367 -9.28914739523e-14)
(1.06471276435 -0.00299172143738 -9.94522764987e-14)
(1.06533613178 -0.00311449424517 -8.11167554101e-14)
(1.06594267414 -0.00322670565129 -8.94275539171e-14)
(1.06652871191 -0.00332930864234 -8.93108433109e-14)
(1.06709231275 -0.00342316379933 -9.36474037196e-14)
(1.06765084316 -0.00350922600933 -9.69293581684e-14)
(1.06826696459 -0.00358886255074 -8.62557252379e-14)
(1.06891761719 -0.00366254602563 -6.86705026038e-14)
(1.06871748736 -0.003722013258 -7.47165082393e-14)
(1.06399936838 -0.00373281150062 -8.15554211961e-14)
(1.04595354646 -0.0036196322184 -7.11202368442e-14)
(1.00063377935 -0.00328533931338 -6.7722631571e-14)
(0.914301203837 -0.00268030981529 -6.99522036252e-14)
(0.78270713287 -0.00187993044495 -5.94387396824e-14)
(0.61661535513 -0.00108180844254 -4.45065511699e-14)
(0.435827272028 -0.000482599416172 -3.02721284633e-14)
(0.256146575611 -0.000143785645435 -1.6857258705e-14)
(0.0842632978191 -6.14198595381e-06 -5.52598659202e-15)
(1.06474587045 -0.000197206062121 -1.21850042829e-12)
(1.0648900113 -0.000467611537625 -5.91022197178e-13)
(1.06518000965 -0.000724234606055 -3.59707753078e-13)
(1.06557530173 -0.000975919693258 -2.58051610889e-13)
(1.0660507534 -0.001204318572 -2.15668588276e-13)
(1.06658619148 -0.00141751724507 -1.84726178356e-13)
(1.0671653666 -0.00161431554013 -1.61621327164e-13)
(1.06777481166 -0.00179634200799 -1.47222358323e-13)
(1.06840337834 -0.00196465636815 -1.34880669815e-13)
(1.06904183038 -0.0021202943112 -1.22184458089e-13)
(1.06968254134 -0.00226422502431 -1.17613696668e-13)
(1.0703192552 -0.00239734024847 -1.03528250495e-13)
(1.07094690116 -0.00252046214576 -1.06200292163e-13)
(1.07156139638 -0.00263434840022 -9.10707843822e-14)
(1.07215912857 -0.00273969374139 -9.83274444678e-14)
(1.0727366204 -0.00283713082413 -9.91578961804e-14)
(1.07329674691 -0.00292729259096 -1.02849475857e-13)
(1.07387011591 -0.00301103783182 -1.0466016561e-13)
(1.07449074476 -0.00308925657035 -9.27150943088e-14)
(1.07482349861 -0.00315932899511 -7.85009703436e-14)
(1.07290785823 -0.00320389835873 -8.25489046973e-14)
(1.06302274992 -0.00317543381104 -8.68333506804e-14)
(1.03444213754 -0.00299767760184 -7.74877946133e-14)
(0.974077450577 -0.00260715900422 -7.32584855458e-14)
(0.873599807548 -0.00201914458694 -7.03296733231e-14)
(0.736132456893 -0.00135306342026 -5.82046481866e-14)
(0.575319501552 -0.000766747222531 -4.42418113915e-14)
(0.40651790038 -0.000351735282898 -3.01163096277e-14)
(0.239620384324 -0.000110220489702 -1.69379689134e-14)
(0.0791579676501 -6.39204509874e-06 -5.52870588708e-15)
(1.07071292256 -0.000182250438429 -1.25552165182e-12)
(1.07085484384 -0.000431555340913 -6.43410040998e-13)
(1.07113989367 -0.000667199481871 -3.84657626469e-13)
(1.07152853847 -0.000900166326978 -2.80677483786e-13)
(1.07199622014 -0.0011111064141 -2.33635586883e-13)
(1.0725232491 -0.00130880200099 -2.00149699186e-13)
(1.07309374679 -0.00149118144677 -1.75036278386e-13)
(1.07369451147 -0.00166007350545 -1.59235234643e-13)
(1.07431459676 -0.00181629591092 -1.45535928426e-13)
(1.07494490655 -0.00196077469796 -1.32541615874e-13)
(1.0755779079 -0.00209437627594 -1.26358114814e-13)
(1.07620740391 -0.00221790707548 -1.12749980934e-13)
(1.07682835342 -0.00233212069988 -1.12943352172e-13)
(1.07743661617 -0.00243771829123 -9.99664164578e-14)
(1.07802841479 -0.00253534619701 -1.05722632313e-13)
(1.07860139774 -0.0026256064962 -1.0726298134e-13)
(1.07916521947 -0.00270916385829 -1.10427151435e-13)
(1.07975232065 -0.00278688399492 -1.09948336737e-13)
(1.08028714196 -0.00285868032178 -9.89026051247e-14)
(1.07990280936 -0.002917488459 -8.67259573081e-14)
(1.07532795854 -0.00293664917413 -9.02486970637e-14)
(1.05907252174 -0.00286134397474 -9.17303568414e-14)
(1.01982625489 -0.00262655615785 -8.2319521179e-14)
(0.947049668148 -0.00220672574968 -7.59574019449e-14)
(0.837663443024 -0.00165786847222 -7.03766790104e-14)
(0.698859263439 -0.00109803147604 -5.75528893463e-14)
(0.54361012147 -0.000631530373621 -4.33645487614e-14)
(0.383543974248 -0.000298897182444 -2.96838805794e-14)
(0.225958048593 -9.73167070249e-05 -1.6768752904e-14)
(0.0746015594967 -6.4288241585e-06 -5.46482115342e-15)
(1.0759495957 -0.000172815124918 -1.28221804895e-12)
(1.07609154283 -0.000409230254104 -6.91522390166e-13)
(1.07637607789 -0.000632417164186 -4.11721977334e-13)
(1.07676404591 -0.000853539046348 -3.01770349125e-13)
(1.07723094885 -0.00105266864623 -2.50319288054e-13)
(1.07775715958 -0.00123936847578 -2.14381225331e-13)
(1.07832683755 -0.00141100125135 -1.87486553621e-13)
(1.07892680151 -0.00156974451582 -1.70334707405e-13)
(1.07954612473 -0.00171627792777 -1.54458192529e-13)
(1.08017572077 -0.00185155915471 -1.42067813819e-13)
(1.08080806296 -0.00197644552198 -1.34606815427e-13)
(1.08143695949 -0.00209173237712 -1.22448551534e-13)
(1.08205736044 -0.00219815859197 -1.21187323266e-13)
(1.08266503649 -0.00229640585832 -1.08122395937e-13)
(1.08325627903 -0.0023870991682 -1.1250189024e-13)
(1.08383110622 -0.002470838059 -1.1481801376e-13)
(1.08440513938 -0.00254832474025 -1.17133406743e-13)
(1.08498564707 -0.00262021687426 -1.1541274393e-13)
(1.08527786608 -0.00268465336369 -1.04655931226e-13)
(1.08368408201 -0.00272918732142 -9.28045946595e-14)
(1.07557588235 -0.00271949627428 -9.61200120894e-14)
(1.05226247893 -0.00260041821878 -9.60896737141e-14)
(1.0030277588 -0.00232550494559 -8.6084561001e-14)
(0.920532521532 -0.00190125973868 -7.9517373779e-14)
(0.805715401381 -0.0014008039246 -7.11341900595e-14)
(0.667405337101 -0.000922221589649 -5.75610768093e-14)
(0.517039737874 -0.000532042517214 -4.22875167708e-14)
(0.363942451802 -0.000252202104044 -2.90962922675e-14)
(0.21407339478 -8.16355607357e-05 -1.66687854185e-14)
(0.07058021057 -5.05295322326e-06 -5.75710422874e-15)
(1.08077082177 -0.000161520070685 -1.30012929499e-12)
(1.08091303875 -0.000382938293532 -7.35688525517e-13)
(1.08119769439 -0.000591560428758 -4.39186119473e-13)
(1.08158584968 -0.000798922486219 -3.21448504473e-13)
(1.08205295842 -0.000985052278958 -2.6583785177e-13)
(1.08257939122 -0.00116007817358 -2.27568740061e-13)
(1.08314929931 -0.00132079405192 -1.99078451521e-13)
(1.0837494943 -0.00146961868992 -1.8050561908e-13)
(1.08436904917 -0.00160700821731 -1.61937728107e-13)
(1.08499887516 -0.00173390324051 -1.50820860545e-13)
(1.08563144596 -0.00185108624255 -1.42560264199e-13)
(1.08626057095 -0.00195929304174 -1.32541411712e-13)
(1.08688117848 -0.00205920741249 -1.28171060814e-13)
(1.08748896767 -0.00215145969624 -1.15799662841e-13)
(1.08808071307 -0.00223663249295 -1.19863142753e-13)
(1.08865966787 -0.00231531343981 -1.21640004879e-13)
(1.08924129872 -0.00238818313046 -1.23256611222e-13)
(1.08976396495 -0.00245534946865 -1.20849441794e-13)
(1.08959270367 -0.00251240644252 -1.10204177707e-13)
(1.08626641026 -0.00254136399779 -9.90306201625e-14)
(1.07394344601 -0.00250317398189 -1.00974773151e-13)
(1.04340610336 -0.00234834677131 -9.97692498807e-14)
(0.985335440728 -0.00205100011362 -8.90948603269e-14)
(0.895494603525 -0.00163977449017 -8.12240579766e-14)
(0.777491121509 -0.00118932739969 -7.17712806691e-14)
(0.640506713654 -0.00077611010197 -5.72984067837e-14)
(0.494566264436 -0.000444649990879 -4.23541826884e-14)
(0.347484548364 -0.000208916842276 -2.89953486646e-14)
(0.204215963966 -6.67801124512e-05 -1.66595396644e-14)
(0.0673095562982 -3.93540356524e-06 -5.75300621525e-15)
(1.08536311764 -0.000151847431337 -1.3107218473e-12)
(1.0855053066 -0.000360188204578 -7.76118258301e-13)
(1.08578956065 -0.000556089813051 -4.5725482167e-13)
(1.08617719744 -0.000751384652474 -3.39746378081e-13)
(1.08664368991 -0.000926257279507 -2.80313285795e-13)
(1.08716946461 -0.00109116967703 -2.39836801641e-13)
(1.08773870307 -0.0012424281707 -2.09893272714e-13)
(1.08833823973 -0.00138267436943 -1.89963828816e-13)
(1.08895716635 -0.00151215164301 -1.7029854795e-13)
(1.08958640505 -0.00163180493402 -1.5896638706e-13)
(1.09021843815 -0.00174234554 -1.4997893498e-13)
(1.09084707756 -0.00184446312742 -1.39984818657e-13)
(1.09146722166 -0.00193879639164 -1.3457903862e-13)
(1.09207457467 -0.00202593414777 -1.22970770984e-13)
(1.09266690034 -0.00210642923238 -1.26150269914e-13)
(1.09325036143 -0.00218086468726 -1.27927391103e-13)
(1.0938271972 -0.00224981097631 -1.28784370548e-13)
(1.09420967154 -0.00231243823226 -1.25192011069e-13)
(1.09331022288 -0.00236124613905 -1.15468476015e-13)
(1.08775878109 -0.00237331791229 -1.05136814195e-13)
(1.07077596955 -0.00230819196858 -1.05444579304e-13)
(1.0332360466 -0.00212586924985 -1.0299493195e-13)
(0.96761959503 -0.00181901971676 -9.13343647262e-14)
(0.872325614675 -0.00142880036074 -8.18753825925e-14)
(0.752577785016 -0.00102383159176 -7.13732479445e-14)
(0.617350824434 -0.000663074372969 -5.69503537657e-14)
(0.475497682445 -0.00037793053828 -4.22709338957e-14)
(0.333679766693 -0.00017704701332 -2.88458793633e-14)
(0.196025373238 -5.6601306717e-05 -1.64132979039e-14)
(0.0646125682343 -3.40196072621e-06 -5.32564420775e-15)
(1.08973490108 -0.000144277493279 -1.31604002449e-12)
(1.08987707442 -0.000342259246372 -8.13644539681e-13)
(1.09016096896 -0.000528181733521 -4.8084361416e-13)
(1.09054813091 -0.000713899651302 -3.57040528751e-13)
(1.0910140586 -0.00087983741612 -2.93930910727e-13)
(1.09153923412 -0.00103664415628 -2.5135589374e-13)
(1.09210786479 -0.00118025808401 -2.20064762937e-13)
(1.09270680681 -0.00131353415283 -1.9885103711e-13)
(1.09332516873 -0.00143652870069 -1.77356958158e-13)
(1.09395388284 -0.00155021456934 -1.66602342543e-13)
(1.09458543937 -0.00165524302705 -1.57012626236e-13)
(1.09521364852 -0.00175227536051 -1.4644487068e-13)
(1.09583337918 -0.00184191747301 -1.4094839528e-13)
(1.09644048552 -0.00192472920068 -1.29702296636e-13)
(1.09703414051 -0.00200124775474 -1.32422234695e-13)
(1.09762105419 -0.00207204622126 -1.33879822601e-13)
(1.09816965362 -0.00213745155727 -1.33874128949e-13)
(1.09830128409 -0.00219531049568 -1.29776497697e-13)
(1.09638766506 -0.00223479196955 -1.20324473629e-13)
(1.08818757964 -0.00222924505022 -1.1030143695e-13)
(1.06631854461 -0.00213977825632 -1.10262921784e-13)
(1.022224897 -0.00193746356736 -1.05695054865e-13)
(0.950280353376 -0.00162961020771 -9.3179998445e-14)
(0.850959911727 -0.00126269693327 -8.29828090728e-14)
(0.730392116425 -0.000896870114443 -7.17094839002e-14)
(0.597121142401 -0.000578032013453 -5.68699102699e-14)
(0.459009926626 -0.000328882494948 -4.21427995786e-14)
(0.321793699083 -0.000154237019355 -2.8791101524e-14)
(0.188966077701 -4.95048203875e-05 -1.64814360412e-14)
(0.0622754297042 -3.03638650797e-06 -5.66185769733e-15)
(1.09388964247 -0.000137811210411 -1.31747293457e-12)
(1.09403188271 -0.000326951445428 -8.48572941645e-13)
(1.0943156083 -0.00050443567363 -5.01865763437e-13)
(1.09470254821 -0.000681983004567 -3.73480024174e-13)
(1.09516821025 -0.000840333912619 -3.06886940238e-13)
(1.09569311431 -0.000990223817407 -2.62260245138e-13)
(1.0962614791 -0.00112731614105 -2.29721515179e-13)
(1.09686017371 -0.0012546453465 -2.07294910641e-13)
(1.09747831571 -0.00137209578984 -1.85289703494e-13)
(1.09810684244 -0.00148067491763 -1.7385755653e-13)
(1.09873824761 -0.00158097535971 -1.63708319551e-13)
(1.09936633305 -0.00167363743251 -1.53874371345e-13)
(1.09998595506 -0.00175923794149 -1.46561145604e-13)
(1.10059331305 -0.00183831397336 -1.36098461973e-13)
(1.10118905424 -0.00191139331204 -1.39249799096e-13)
(1.10177528667 -0.00197901030034 -1.40768207421e-13)
(1.10225909235 -0.00204107511287 -1.38816227127e-13)
(1.10200541763 -0.00209377938265 -1.35146884748e-13)
(1.09879131191 -0.00212305227548 -1.25130475454e-13)
(1.08760903008 -0.00210000323416 -1.13969328138e-13)
(1.06080854162 -0.00198959138361 -1.13484248507e-13)
(1.01072254914 -0.00177387241927 -1.07886657591e-13)
(0.933519989883 -0.0014706114099 -9.46121189243e-14)
(0.831236862343 -0.00112706405425 -8.31138410571e-14)
(0.710453451485 -0.000794917763542 -7.12562538763e-14)
(0.579202996757 -0.000510352730025 -5.61474021404e-14)
(0.444504585186 -0.000289936145487 -4.26185560497e-14)
(0.311352639838 -0.000135959222726 -2.89808642652e-14)
(0.182756069569 -4.36574451245e-05 -1.64980592289e-14)
(0.060213710349 -2.67559015751e-06 -5.33834752939e-15)
(1.09785762965 -0.000132008269614 -1.31580581336e-12)
(1.09799995672 -0.000313215216502 -8.81016429058e-13)
(1.09828358406 -0.000483156261083 -5.1828808856e-13)
(1.09867039616 -0.000653355919664 -3.8908912543e-13)
(1.09913590593 -0.000804930910355 -3.19135223591e-13)
(1.09966066383 -0.000948622783785 -2.72621298822e-13)
(1.10022889483 -0.00107989210019 -2.38918721737e-13)
(1.10082747799 -0.00120191544454 -2.15338108966e-13)
(1.10144553655 -0.00131442211725 -1.9292712956e-13)
(1.10207401084 -0.00141845561376 -1.80727035047e-13)
(1.10270539525 -0.0015145505305 -1.70122605732e-13)
(1.10333347986 -0.00160333076593 -1.59597862507e-13)
(1.10395314937 -0.00168534567214 -1.50805166389e-13)
(1.1045611495 -0.00176111398629 -1.42157363343e-13)
(1.10515899457 -0.0018311538714 -1.44582869423e-13)
(1.10573577277 -0.00189591001759 -1.44206399357e-13)
(1.10610437193 -0.00195468276864 -1.43637302552e-13)
(1.10531401456 -0.00200177608505 -1.38309676418e-13)
(1.10053074254 -0.0020202534799 -1.29711724592e-13)
(1.08612913393 -0.00198051606558 -1.19973787306e-13)
(1.05449010169 -0.00185283048596 -1.16438617648e-13)
(0.999011307367 -0.00162913027159 -1.09848598009e-13)
(0.917462780816 -0.00133400238521 -9.57753810425e-14)
(0.813018107501 -0.0010129508449 -8.35006363931e-14)
(0.692426329367 -0.00071009216681 -7.1017773725e-14)
(0.563194460065 -0.000454239485153 -5.63354498314e-14)
(0.431622271275 -0.000257540552481 -4.21507135887e-14)
(0.302104643282 -0.000120626042324 -2.87892492625e-14)
(0.177263108028 -3.86950532172e-05 -1.64136991425e-14)
(0.0583923202131 -2.36314864438e-06 -5.30379425053e-15)
(1.101666484 -0.000126826191346 -1.31173157123e-12)
(1.10180889225 -0.00030092710353 -9.1117702236e-13)
(1.10209243493 -0.000464133291271 -5.40620354481e-13)
(1.10247913489 -0.000627737659903 -4.03941130026e-13)
(1.1029445121 -0.000773267074628 -3.30794395797e-13)
(1.10346914545 -0.000911406375635 -2.82507778969e-13)
(1.10403726537 -0.00103747332301 -2.47868472379e-13)
(1.10463576071 -0.00115475384157 -2.23025802925e-13)
(1.10525375949 -0.00126284194088 -2.00226260353e-13)
(1.10588220475 -0.00136281656467 -1.87301994023e-13)
(1.1065135899 -0.00145515662208 -1.76283662122e-13)
(1.10714169534 -0.00154047382508 -1.65436982966e-13)
(1.10776149927 -0.00161929220745 -1.56714393066e-13)
(1.10837042434 -0.00169211639856 -1.4779149117e-13)
(1.10896925538 -0.00175944861442 -1.49235572799e-13)
(1.10952225785 -0.00182157449922 -1.49497181161e-13)
(1.10971229156 -0.00187699472813 -1.48168737075e-13)
(1.10822501926 -0.00191801815186 -1.42961997026e-13)
(1.10163429762 -0.00192541953639 -1.33978833334e-13)
(1.08386717436 -0.00187026227325 -1.24092259925e-13)
(1.04757769311 -0.00172881654009 -1.20214240174e-13)
(0.987295900071 -0.00150130696189 -1.11645372617e-13)
(0.902165527371 -0.00121631604932 -9.66686576877e-14)
(0.796168107081 -0.000916360248909 -8.34444290275e-14)
(0.676045805162 -0.000639049954345 -7.07454119723e-14)
(0.548794567914 -0.000407513581799 -5.61489074808e-14)
(0.420097987378 -0.000230649321438 -4.17685726357e-14)
(0.293855550807 -0.000107942240082 -2.85343160585e-14)
(0.172370963845 -3.46188874051e-05 -1.6285170114e-14)
(0.0567716518707 -2.11728373979e-06 -5.25994056132e-15)
(1.10533331021 -0.000122214115724 -1.30586801929e-12)
(1.1054757995 -0.000289971884291 -9.3927315419e-13)
(1.10575927721 -0.000447191849288 -5.55966632525e-13)
(1.10614588896 -0.000604902397279 -4.18154395533e-13)
(1.10661116287 -0.000745056710766 -3.37209643018e-13)
(1.10713570349 -0.000878236624982 -2.91936770362e-13)
(1.10770374556 -0.000999667299856 -2.54030276484e-13)
(1.10830218702 -0.00111271529634 -2.30373630033e-13)
(1.10892015965 -0.00121685908308 -2.07223394355e-13)
(1.10954860864 -0.00131321053731 -1.91447210972e-13)
(1.11018002478 -0.00140219633525 -1.8219239205e-13)
(1.1108081874 -0.00148441957172 -1.70951555779e-13)
(1.11142824917 -0.00156038135834 -1.62130870113e-13)
(1.11203826855 -0.00163057546597 -1.52410212619e-13)
(1.1126354444 -0.00169547431417 -1.55206054007e-13)
(1.11314428129 -0.0017551207275 -1.5335431357e-13)
(1.11308136845 -0.0018070485291 -1.52271726004e-13)
(1.11073575249 -0.0018415927636 -1.47853503932e-13)
(1.10213685674 -0.00183792812478 -1.37618817448e-13)
(1.08093669403 -0.00176888185253 -1.26644673156e-13)
(1.04024362777 -0.00161682962378 -1.2274420931e-13)
(0.975711825109 -0.00138859795824 -1.13024309099e-13)
(0.887633724104 -0.00111471900479 -9.75771657112e-14)
(0.780548828986 -0.000834237421785 -8.41936429835e-14)
(0.661084117971 -0.000579253222346 -7.15976865728e-14)
(0.535753179713 -0.000368442734129 -5.5890247628e-14)
(0.409708275282 -0.000208271777333 -4.15303667363e-14)
(0.286434288952 -9.7431303767e-05 -2.83410959893e-14)
(0.167972615292 -3.12549322746e-05 -1.61773836319e-14)
(0.0553143155562 -1.91600278377e-06 -5.22206009838e-15)
(1.10887121217 -0.000118068126707 -1.29858622377e-12)
(1.10901378607 -0.000280113204468 -9.65489671477e-13)
(1.10929722385 -0.000431963036655 -5.75937855341e-13)
(1.10968377934 -0.00058436011588 -4.31781587993e-13)
(1.11014898869 -0.000719691023973 -3.5228750082e-13)
(1.11067347878 -0.000848401238195 -3.01046527268e-13)
(1.11124148726 -0.000965663947037 -2.62754384817e-13)
(1.11183991993 -0.00107490103287 -2.37460819522e-13)
(1.11245791118 -0.00117549378012 -2.13852731311e-13)
(1.11308640743 -0.00126858298677 -1.99898742793e-13)
(1.11371789574 -0.00135454697094 -1.87828635481e-13)
(1.114346171 -0.00143398274062 -1.76268818792e-13)
(1.11496664062 -0.00150737067433 -1.67315148295e-13)
(1.11557767037 -0.0015751948456 -1.58991602859e-13)
(1.11616856924 -0.0016378755775 -1.61372146118e-13)
(1.11660656962 -0.00169512023413 -1.58169772429e-13)
(1.11620779659 -0.00174336588291 -1.56199236552e-13)
(1.11284771612 -0.00177111022792 -1.50520098425e-13)
(1.10208019699 -0.00175664568207 -1.40923813399e-13)
(1.07744377653 -0.00167536198189 -1.29747035565e-13)
(1.0326256613 -0.00151543847453 -1.25199177333e-13)
(0.964348210528 -0.00128873229919 -1.14253638796e-13)
(0.873847136347 -0.00102631861018 -9.84061381689e-14)
(0.766032610726 -0.000763693872231 -8.39803435239e-14)
(0.647350914982 -0.000528310692053 -7.06917449147e-14)
(0.523867577272 -0.000335319719566 -5.57494881151e-14)
(0.400274433308 -0.000189347397554 -4.13681179172e-14)
(0.279706563599 -8.85460332157e-05 -2.82135706734e-14)
(0.163986914248 -2.84061622093e-05 -1.61109000354e-14)
(0.0539934630936 -1.74294914121e-06 -5.19899754645e-15)
(1.11229233979 -0.000114302712379 -1.29024361137e-12)
(1.11243499948 -0.000271152002327 -9.89956799071e-13)
(1.11271841613 -0.000418132662119 -5.89768650308e-13)
(1.11310493925 -0.000565691586367 -4.44839775996e-13)
(1.11357011315 -0.000696649631509 -3.62199550171e-13)
(1.11409458423 -0.000821291807293 -3.09818739866e-13)
(1.11466259214 -0.000934771656477 -2.71579044695e-13)
(1.11526104955 -0.00104054453337 -2.44298489124e-13)
(1.11587909258 -0.00113791120002 -2.20236989491e-13)
(1.11650766801 -0.0012280365593 -2.05173091635e-13)
(1.11713925957 -0.00131125464675 -1.93244324619e-13)
(1.11776770283 -0.00138815804486 -1.81378942605e-13)
(1.11838871387 -0.0014592083207 -1.72244770892e-13)
(1.11900023139 -0.00152487833023 -1.63407903514e-13)
(1.11957784084 -0.00158550587263 -1.64961173116e-13)
(1.11991220622 -0.00164036810824 -1.62559280202e-13)
(1.11908891666 -0.00168472210048 -1.59915135846e-13)
(1.11456863288 -0.00170545592782 -1.5346850078e-13)
(1.10151180821 -0.00168066209864 -1.44041803144e-13)
(1.07348615747 -0.00158880293126 -1.32777046668e-13)
(1.02483420782 -0.00142332053492 -1.27853594123e-13)
(0.953263787902 -0.0011997480322 -1.15302735791e-13)
(0.860774377919 -0.000948775325191 -9.89388892845e-14)
(0.752507284383 -0.000702482492298 -8.40178773131e-14)
(0.634690330819 -0.000484403751771 -7.04512449913e-14)
(0.512976834447 -0.000306873650868 -5.54656310386e-14)
(0.391657828178 -0.000173116553094 -4.11710814861e-14)
(0.273570578085 -8.09234245196e-05 -2.80908549599e-14)
(0.160353640771 -2.59587742768e-05 -1.60526428169e-14)
(0.0527895213542 -1.59339839348e-06 -5.17941696378e-15)
(1.11560738289 -0.000110863920672 -1.28115626071e-12)
(1.11575012736 -0.000262961341851 -1.01282644882e-12)
(1.11603353559 -0.000405500631535 -5.97618755559e-13)
(1.11642004228 -0.00054863011016 -4.5740850851e-13)
(1.11688520028 -0.000675600669785 -3.71696881427e-13)
(1.1174096733 -0.000796519760027 -3.18217169567e-13)
(1.11797770255 -0.000906546979224 -2.7761799984e-13)
(1.11857620682 -0.00100915277537 -2.50866203321e-13)
(1.1191943233 -0.00110357233239 -2.26413222289e-13)
(1.1198229985 -0.00119098963381 -2.09140321045e-13)
(1.12045471543 -0.00127169865068 -1.9847308306e-13)
(1.12108338191 -0.00134628863768 -1.86305286206e-13)
(1.1217050165 -0.00141520398954 -1.77013182164e-13)
(1.12231588112 -0.00147890178133 -1.68246841424e-13)
(1.12287050425 -0.0015375999188 -1.68789680291e-13)
(1.12306280893 -0.00159005530691 -1.65615215393e-13)
(1.12172342566 -0.00163031221618 -1.63476980542e-13)
(1.11591114539 -0.00164393979517 -1.57051989989e-13)
(1.10048139732 -0.00160943440888 -1.46971422898e-13)
(1.06915107319 -0.0015085933599 -1.35488161204e-13)
(1.01695626348 -0.00133946578021 -1.28381826938e-13)
(0.942495139328 -0.00112014702984 -1.16190835619e-13)
(0.848378093831 -0.000880353831055 -9.94619486607e-14)
(0.739874046218 -0.00064898007831 -8.51401769038e-14)
(0.622972771505 -0.000446252021377 -7.0928450602e-14)
(0.502950437578 -0.00028223735035 -5.55468247039e-14)
(0.383747364868 -0.000159081797207 -4.11577442745e-14)
(0.267944897364 -7.43365451034e-05 -2.80647991804e-14)
(0.15702420642 -2.38446573357e-05 -1.60413408878e-14)
(0.0516863975756 -1.46443828801e-06 -5.17409993701e-15)
(1.11882533463 -0.000107710199235 -1.27149430112e-12)
(1.11896816244 -0.000255444016643 -1.03414048924e-12)
(1.11925157259 -0.000393914673588 -6.21341523586e-13)
(1.11963807574 -0.000532972852215 -4.6950452479e-13)
(1.12010323364 -0.00065629152802 -3.81192643734e-13)
(1.12062772549 -0.00077378908014 -3.26298350618e-13)