/*--------------------------------*- C++ -*----------------------------------*\
| =========                 |                                                 |
| \\      /  F ield         | OpenFOAM: The Open Source CFD Toolbox           |
|  \\    /   O peration     | Version:  2206                                  |
|   \\  /    A nd           | Website:  www.openfoam.com                      |
|    \\/     M anipulation  |                                                 |
\*---------------------------------------------------------------------------*/
FoamFile
{
    version     2.0;
    format      ascii;
    arch        "LSB;label=32;scalar=64";
    class       volScalarField;
    location    "300";
    object      p;
}
// * * * * * * * * * * * * * * * * * * * * * * * * * * * * * * * * * * * * * //

dimensions      [0 2 -2 0 0 0 0];

internalField   nonuniform List<scalar> 
3000
(
0.307111929633
0.307255993503
0.30754033717
0.307928285358
0.30839507616
0.308921055459
0.309490152006
0.310089064063
0.310706734819
0.31133397321
0.311963163904
0.312588036863
0.313203478396
0.313805372221
0.314390463023
0.314956237595
0.315500820285
0.316022880648
0.316521551855
0.316996357015
0.317447135019
0.317873965815
0.318277163634
0.31865744405
0.319015956418
0.319353379484
0.319669693086
0.319969704296
0.320261702404
0.32050401159
0.280209346422
0.280126043194
0.279957790716
0.279725710426
0.279442393877
0.279118157276
0.278761648138
0.278380340674
0.277980814348
0.277568903821
0.277149783639
0.276728018744
0.276307598549
0.275891964981
0.275484040161
0.275086256411
0.274700589507
0.274328595459
0.273971451155
0.273629995408
0.273304749367
0.272995892753
0.272703303836
0.272427018419
0.272168282743
0.271930697155
0.271721734307
0.271555530908
0.271449150355
0.27140241884
0.257730259475
0.257697752259
0.257632517112
0.257546578067
0.257447069472
0.257340008608
0.257230028962
0.257120637465
0.257014375957
0.256912977974
0.256817522029
0.256728571985
0.256646300976
0.256570597597
0.256501154345
0.256437539285
0.256379252433
0.256325768373
0.256276566808
0.256231154435
0.256189080114
0.25614994242
0.25611342748
0.25607949074
0.25604868014
0.256022241598
0.256001660575
0.255987550916
0.255978261393
0.255971620264
0.251474617936
0.25148203217
0.251496219006
0.251515706065
0.251537748519
0.251560710144
0.251583183527
0.251604113828
0.251622741077
0.251638561515
0.251651291018
0.251660827398
0.251667213876
0.251670604937
0.251671235378
0.251669393179
0.251665396642
0.251659575499
0.251652254535
0.251643740209
0.251634318096
0.251624275369
0.251613963697
0.251603905279
0.251594871005
0.251587732139
0.251582920773
0.251579815988
0.251577146895
0.251574835699
0.24715225226
0.247144990108
0.247129741621
0.247109255051
0.247084264728
0.247056079953
0.247025611597
0.246993688968
0.246961024913
0.246928226724
0.246895802004
0.246864163379
0.246833634804
0.246804459322
0.246776807924
0.246750789083
0.246726458562
0.246703828793
0.24668287632
0.246663548577
0.246645782064
0.246629552578
0.246614961601
0.246602311181
0.246592049966
0.246584487247
0.246579423497
0.246576114966
0.24657373031
0.246572012764
0.240224633833
0.240219247134
0.240207436142
0.240192021595
0.240173902219
0.240154372027
0.240134174243
0.240113929768
0.240094078206
0.240074924415
0.240056667498
0.240039425339
0.24002325548
0.240008171931
0.239994158382
0.239981178326
0.239969182611
0.239958114868
0.239947915238
0.239938525117
0.239929901271
0.239922048095
0.239915060814
0.239909136484
0.239904478077
0.239901102551
0.23989875073
0.239897012186
0.239895530124
0.239894330169
0.233574425438
0.233573794004
0.233571589585
0.233569019859
0.233565760075
0.233562136568
0.233558147087
0.233553888165
0.233549419478
0.233544796601
0.233540069387
0.233535282631
0.233530476695
0.233525687687
0.23352094753
0.233516283999
0.233511720698
0.23350727714
0.233502970015
0.233498818491
0.233494856789
0.23349115249
0.233487819646
0.233484997636
0.233482768481
0.233481075683
0.233479748603
0.233478584665
0.23347743632
0.233476445352
0.228035479505
0.228034436578
0.22803166906
0.228028324353
0.228024112742
0.22801941979
0.228014290657
0.228008877731
0.228003276101
0.227997573554
0.227991843176
0.227986145326
0.227980529151
0.227975033849
0.227969689963
0.227964520583
0.227959542345
0.227954766517
0.227950202102
0.227945864451
0.227941790437
0.227938054054
0.227934767006
0.227932038609
0.227929900406
0.22792827151
0.227927000254
0.227925919404
0.227924903161
0.22792405333
0.222931022256
0.222929557211
0.222925986729
0.222921532962
0.222916063188
0.222910067567
0.222903654071
0.222897026427
0.222890304301
0.222883592258
0.222876969198
0.222870495091
0.222864214566
0.222858159819
0.222852353082
0.222846808607
0.222841534207
0.222836533029
0.222831808
0.222827372206
0.222823264496
0.222819561889
0.222816369946
0.222813772137
0.222811767176
0.222810259143
0.222809102185
0.22280814698
0.222807279185
0.222806567851
0.217970563007
0.21796946045
0.217966610897
0.217963091514
0.217958730358
0.217953956005
0.217948824101
0.217943506835
0.217938093631
0.217932670551
0.217927301751
0.217922037433
0.21791691586
0.217911965456
0.217907206608
0.217902653109
0.217898313418
0.217894192727
0.217890298163
0.21788664894
0.217883288949
0.217880292859
0.217877748022
0.217875705513
0.21787413885
0.217872952225
0.217872024055
0.217871240112
0.217870515173
0.217869915186
0.213214409106
0.213213581924
0.213211322011
0.213208583309
0.21320515441
0.213201408319
0.213197360858
0.213193159136
0.213188867542
0.213184556386
0.213180276332
0.213176068125
0.213171963106
0.213167984909
0.213164150814
0.213160472837
0.213156958908
0.213153615358
0.213150452662
0.213147494584
0.213144787158
0.213142398565
0.213140395771
0.213138802985
0.213137579251
0.213136636863
0.213135879377
0.213135221119
0.213134599226
0.213134079051
0.208688936752
0.208688209175
0.208686188667
0.208683760411
0.208680710279
0.208677387638
0.208673794864
0.20867007068
0.20866626793
0.208662450596
0.208658662557
0.208654939738
0.208651309481
0.208647792347
0.208644403299
0.208641152695
0.208638047617
0.208635094898
0.208632307251
0.208629711474
0.208627354563
0.208625298509
0.208623594089
0.208622247313
0.208621210019
0.208620402637
0.208619745287
0.208619168465
0.208618620959
0.208618162444
0.204353673436
0.204353017337
0.204351165922
0.20434895022
0.204346160023
0.204343126738
0.204339844553
0.204336446309
0.204332976867
0.204329496438
0.204326044358
0.2043226536
0.204319348971
0.204316149121
0.204313067561
0.204310113647
0.204307294135
0.204304616696
0.204302096117
0.204299761459
0.204297659587
0.204295845827
0.204294357218
0.204293186921
0.204292283761
0.204291575861
0.204290995216
0.204290483362
0.204289997075
0.204289590006
0.200174227831
0.200173652388
0.200171983357
0.200170000164
0.200167492903
0.200164773054
0.200161825852
0.200158776593
0.200155662012
0.200152537996
0.200149439121
0.20014639531
0.200143428792
0.20014055636
0.200137790168
0.200135138743
0.200132608787
0.200130209007
0.20012795605
0.200125880378
0.200124027217
0.200122444127
0.200121155833
0.200120146323
0.200119364423
0.200118746195
0.200118233936
0.200117778718
0.200117344422
0.200116980314
0.196135341278
0.196134837896
0.196133333206
0.196131560558
0.196129309851
0.196126873813
0.196124230079
0.196121496613
0.196118702978
0.196115901007
0.196113120911
0.196110389838
0.196107727649
0.19610514945
0.196102666183
0.196100285697
0.196098014811
0.196095863303
0.196093849368
0.196092004147
0.196090370221
0.19608898719
0.196087869409
0.196086994767
0.196086313909
0.196085770369
0.19608531516
0.196084907205
0.196084516172
0.196084187726
0.192225770412
0.192225323416
0.192223950062
0.192222344551
0.192220298277
0.192218088061
0.192215686259
0.192213204703
0.192210667374
0.192208122883
0.192205597919
0.192203117442
0.192200699383
0.192198357495
0.192196101737
0.192193939483
0.192191877802
0.192189927506
0.192188108032
0.192186450669
0.192184994843
0.192183772704
0.192182790321
0.192182021804
0.192181420418
0.192180936164
0.192180527025
0.192180157993
0.19217980313
0.192179504726
0.188433313418
0.188432912728
0.188431648412
0.188430180759
0.188428303633
0.188426279995
0.188424078404
0.188421805332
0.188419480291
0.18841714921
0.188414835846
0.188412563374
0.188410348105
0.188408202671
0.18840613623
0.188404155839
0.188402268919
0.188400487231
0.188398831162
0.188397331669
0.188396024679
0.188394935548
0.18839406384
0.188393381533
0.18839284483
0.188392409304
0.18839203858
0.188391702456
0.188391378453
0.188391105781
0.184747007993
0.184746647835
0.18474547932
0.184744132514
0.184742403901
0.184740543852
0.184738517933
0.184736427646
0.18473428873
0.184732144693
0.184730016739
0.184727926482
0.184725888807
0.184723915376
0.184722014677
0.184720193572
0.184718459892
0.184716826252
0.184715313696
0.184713952412
0.184712774595
0.184711799497
0.184711021645
0.184710412054
0.184709929983
0.184709535879
0.18470919807
0.18470889031
0.184708592969
0.184708342538
0.181157940685
0.181157616023
0.181156531958
0.181155291466
0.181153693714
0.181151977613
0.181150106387
0.181148176938
0.181146201814
0.181144222328
0.181142257454
0.181140327436
0.181138445899
0.181136623664
0.18113486866
0.181133187659
0.181131588931
0.181130085831
0.181128699805
0.181127459901
0.181126394517
0.181125517535
0.181124819664
0.181124271766
0.181123836121
0.181123477433
0.181123167984
0.181122884811
0.181122610646
0.181122379563
0.177658522476
0.1776582286
0.177657218458
0.177656070728
0.177654587385
0.177652996973
0.177651260954
0.177649472015
0.177647640037
0.177645804358
0.177643982023
0.177642192075
0.177640447033
0.177638756996
0.177637129436
0.177635571117
0.177634090757
0.177632702335
0.177631427466
0.177630293777
0.177629325941
0.177628533207
0.177627903454
0.177627407939
0.177627011817
0.177626683494
0.177626398576
0.177626136827
0.177625882941
0.177625668815
0.174242010392
0.174241743418
0.174240798429
0.174239732189
0.174238349548
0.174236869631
0.174235252588
0.174233587236
0.174231881213
0.174230172064
0.174228475162
0.174226808485
0.17422518358
0.17422360992
0.174222094613
0.17422064448
0.174219268672
0.174217981681
0.174216805076
0.174215764858
0.174214882128
0.174214162197
0.174213590904
0.17421314025
0.174212778084
0.174212476038
0.174212212522
0.17421196959
0.174211733578
0.174211534419
0.170902423712
0.170902180507
0.170901293525
0.170900299634
0.170899006548
0.170897624781
0.170896113512
0.170894557972
0.1708929639
0.1708913672
0.170889781775
0.170888224655
0.170886706522
0.170885236308
0.170883820835
0.170882467027
0.170881184442
0.170879987976
0.170878898962
0.17087794162
0.170877133703
0.170876477201
0.170875956536
0.170875544682
0.170875211984
0.17087493289
0.170874688205
0.170874461919
0.170874241765
0.170874055897
0.167634479117
0.167634257029
0.16763342199
0.167632492708
0.167631279725
0.167629985654
0.167628568965
0.167627111566
0.167625617578
0.167624121387
0.167622635612
0.167621176421
0.167619753731
0.167618376004
0.16761704984
0.167615782301
0.167614583323
0.167613468096
0.167612457545
0.167611574022
0.167610832177
0.167610231239
0.167609754697
0.167609376634
0.167609069689
0.167608810782
0.167608582769
0.167608371295
0.167608165287
0.167607991284
0.164433476785
0.16443327353
0.164432485185
0.164431613827
0.164430472771
0.164429257361
0.164427925575
0.164426556232
0.164425152072
0.164423746078
0.164422349737
0.164420978434
0.164419641406
0.164418346709
0.164417100778
0.164415910836
0.164414787155
0.164413745123
0.164412805106
0.164411987548
0.164411304268
0.164410752215
0.164410314325
0.164409965854
0.164409681549
0.164409440497
0.164409227325
0.164409029099
0.164408835771
0.164408672415
0.161295203332
0.161295016944
0.161294270764
0.161293451567
0.161292375381
0.161291230845
0.161289975614
0.161288685629
0.161287362451
0.161286037762
0.161284722043
0.161283429969
0.161282170169
0.161280950349
0.16127977683
0.161278657005
0.161277601444
0.161276625635
0.161275749262
0.161274990861
0.161274359693
0.161273850847
0.161273446992
0.161273124588
0.161272860302
0.161272635133
0.161272435241
0.161272248921
0.161272067014
0.161271913255
0.158215864732
0.158215693521
0.158214985584
0.158214213574
0.158213196158
0.158212115769
0.158210929874
0.158209711733
0.158208461891
0.158207210817
0.158205968103
0.158204747772
0.15820355791
0.158202405922
0.158201298055
0.158200241878
0.158199248216
0.158198332568
0.158197513831
0.158196808671
0.158196224055
0.15819575357
0.158195379841
0.158195080524
0.158194834038
0.158194623072
0.158194435122
0.15819425955
0.158194087975
0.158193942901
0.155192032507
0.155191875006
0.155191201893
0.15519047274
0.155189508776
0.155188486677
0.155187363829
0.155186210987
0.155185027819
0.155183843663
0.155182667318
0.155181512207
0.155180385932
0.155179295642
0.155178247541
0.155177249373
0.155176312176
0.155175451376
0.155174685005
0.155174027911
0.155173485029
0.155173048743
0.155172701803
0.155172423036
0.155172192457
0.155171994253
0.15517181709
0.155171651261
0.155171489068
0.155171351886
0.152220596362
0.15222045129
0.152219809999
0.15221911991
0.152218204731
0.15221723579
0.152216170472
0.15221507719
0.152213954855
0.152212831743
0.152211715949
0.152210620338
0.152209552083
0.152208518115
0.152207524621
0.152206579515
0.152205694006
0.152204883368
0.152204164707
0.152203551136
0.152203045791
0.152202640109
0.152202317094
0.152202056702
0.152201840403
0.152201653716
0.152201486335
0.152201329372
0.152201175729
0.152201045745
0.14929872394
0.14929859017
0.149297978055
0.14929732369
0.149296453187
0.149295532883
0.149294520235
0.14929348146
0.149292414811
0.149291347571
0.149290287202
0.149289246055
0.149288230919
0.14928724854
0.149286305111
0.149285408706
0.149284570663
0.149283806036
0.149283130959
0.149282556904
0.149282085425
0.149281707233
0.149281405671
0.149281161779
0.149280958353
0.149280782102
0.149280623624
0.149280474757
0.149280328934
0.149280205535
0.146423827277
0.146423703817
0.146423118536
0.146422496944
0.146421667478
0.146420791816
0.14641982754
0.146418838803
0.146417823289
0.146416807346
0.146415797869
0.146414806731
0.14641384038
0.146412905406
0.146412008026
0.146411156461
0.146410362138
0.146409639824
0.146409004663
0.146408466579
0.146408025747
0.146407672329
0.146407390076
0.146407161061
0.146406969287
0.146406802528
0.146406652183
0.146406510732
0.146406372081
0.146406254726
0.143593534407
0.143593420379
0.143592859848
0.143592268411
0.143591476749
0.143590642183
0.143589722457
0.14358877979
0.143587811367
0.143586842659
0.143585880047
0.143584934962
0.143584013547
0.143583122266
0.143582267367
0.143581457207
0.143580703263
0.143580019961
0.143579421438
0.143578916178
0.143578503159
0.143578172142
0.143577907331
0.143577691777
0.143577510588
0.143577352491
0.143577209599
0.143577074963
0.143576942912
0.14357683112
0.140805664995
0.140805559619
0.140805021976
0.14080445836
0.140803701619
0.140802904985
0.140802026401
0.140801126266
0.140800201328
0.14079927623
0.140798356891
0.140797454332
0.140796574422
0.140795723522
0.140794907923
0.140794136101
0.140793419544
0.140792772289
0.14079220747
0.140791732233
0.140791344521
0.140791033819
0.140790784817
0.140790581488
0.140790409948
0.140790259782
0.140790123741
0.140789995384
0.140789869421
0.140789762763
0.138058209377
0.138058111957
0.138057595537
0.138057057653
0.138056333249
0.138055571717
0.138054731225
0.138053870454
0.138052985772
0.13805210104
0.13805122176
0.138050358568
0.138049517094
0.138048703613
0.138047924465
0.138047188229
0.13804650637
0.138045892493
0.13804535874
0.138044911025
0.138044546399
0.138044254176
0.138044019546
0.138043827354
0.138043664638
0.138043521756
0.138043392029
0.138043269474
0.138043149142
0.138043047234
0.135349310456
0.13534922037
0.135348723673
0.135348209646
0.135347515259
0.135346786288
0.135345981146
0.135345156895
0.135344309567
0.135343462289
0.13534262018
0.135341793519
0.135340987725
0.135340209004
0.135339463747
0.135338760621
0.135338111034
0.135337528122
0.135337023061
0.135336600627
0.135336257111
0.135335981742
0.135335760219
0.135335578204
0.135335423581
0.135335287408
0.135335163516
0.135335046335
0.135334931223
0.135334833721
0.132677247993
0.13267716468
0.132676686354
0.132676194497
0.132675528034
0.132674829335
0.132674057071
0.132673266779
0.132672454191
0.132671641741
0.132670834201
0.132670041516
0.132669268919
0.132668522561
0.132667808888
0.132667136636
0.132666517124
0.132665962994
0.132665484476
0.132665085313
0.132664761147
0.132664501189
0.132664291652
0.132664118964
0.132663971785
0.132663841807
0.132663723321
0.132663611128
0.132663500868
0.132663407461
0.130040424931
0.130040347888
0.13003988671
0.130039415497
0.130038775065
0.130038104571
0.130037362951
0.1300366043
0.130035824089
0.130035044094
0.13003426877
0.130033507752
0.13003276611
0.130032049951
0.130031365773
0.13003072237
0.130030130938
0.130029603603
0.130029149686
0.130028771982
0.130028465591
0.130028219762
0.130028021214
0.130027857097
0.130027716783
0.13002759254
0.130027479074
0.130027371522
0.130027265779
0.130027176187
0.12743735542
0.127437284192
0.127436839051
0.127436387101
0.127435770985
0.127435126819
0.127434413818
0.127433684709
0.127432934732
0.12743218504
0.1274314398
0.127430708357
0.127429995637
0.127429307715
0.127428651139
0.127428034743
0.127427469573
0.127426967224
0.127426536143
0.127426178267
0.127425888237
0.127425655391
0.127425466944
0.127425310724
0.127425176757
0.127425057835
0.12742494904
0.127424845815
0.127424744288
0.127424658256
0.124866654284
0.124866588459
0.124866158345
0.124865724402
0.124865131041
0.124864511501
0.124863825276
0.124863123802
0.124862402111
0.124861680767
0.124860963673
0.124860259904
0.124859574259
0.124858912789
0.124858282093
0.124857691025
0.124857150458
0.124856671443
0.124856261594
0.124855922069
0.124855647131
0.12485542624
0.124855247101
0.124855098174
0.124854970088
0.124854856115
0.124854751676
0.124854652493
0.124854554906
0.124854472203
0.122327027745
0.122326966948
0.12232655094
0.12232613386
0.122325561832
0.122324965365
0.122324304238
0.122323628659
0.122322933479
0.122322238701
0.122321547986
0.122320870158
0.122320209907
0.122319573265
0.122318966876
0.122318399602
0.122317882117
0.122317424925
0.122317034845
0.122316712333
0.122316451342
0.122316241486
0.122316070942
0.122315928766
0.122315806143
0.12231569678
0.122315596411
0.122315501011
0.122315407114
0.12231532753
0.119817265229
0.11981720912
0.119816806374
0.119816405114
0.119815853119
0.119815278307
0.119814640743
0.119813989472
0.119813319179
0.11981264934
0.119811983392
0.119811329923
0.119810693528
0.119810080229
0.11980949671
0.119808951824
0.119808456025
0.119808019269
0.119807647624
0.119807340909
0.119807092832
0.11980689318
0.119806730591
0.119806594677
0.119806477138
0.119806372081
0.119806275522
0.119806183668
0.119806093232
0.119806016575
0.117336232075
0.117336180343
0.117335790087
0.117335403692
0.117334870538
0.117334316084
0.117333700678
0.11733307226
0.11733242537
0.117331778979
0.117331136319
0.117330505761
0.117329891817
0.117329300502
0.117328738534
0.117328214744
0.117327739347
0.117327321753
0.11732696732
0.117326675299
0.117326439199
0.117326249003
0.117326093791
0.117325963699
0.117325850901
0.117325749871
0.117325656883
0.117325568359
0.117325481177
0.117325407269
0.114882863049
0.114882815409
0.114882436934
0.114882064526
0.114881549121
0.114881013834
0.114880419297
0.114879812397
0.114879187546
0.114878563236
0.114877942509
0.114877333533
0.11487674075
0.11487617017
0.114875628543
0.114875124659
0.11487466848
0.114874268876
0.114873930536
0.1148736522
0.114873427229
0.11487324581
0.114873097453
0.114872972783
0.114872864414
0.114872767158
0.114872677525
0.114872592133
0.114872508012
0.114872436692
0.112456156555
0.112456112747
0.112455745399
0.112455386173
0.112454887511
0.112454370296
0.11245379544
0.112453208833
0.112452604767
0.112452001279
0.112451401239
0.112450812624
0.112450239816
0.112449688823
0.11244916642
0.112448681344
0.112448243289
0.112447860595
0.112447537319
0.11244727175
0.112447057134
0.112446883878
0.112446741903
0.112446622292
0.112446518068
0.112446424355
0.112446337878
0.112446255436
0.112446174199
0.11244610532
0.110055169455
0.110055129241
0.110054772416
0.11005442563
0.110053942785
0.110053442633
0.110052886366
0.11005231892
0.110051734483
0.110051150659
0.110050570157
0.110050000779
0.110049446853
0.110048914388
0.110048410179
0.110047942897
0.110047521954
0.11004715517
0.110046846014
0.110046592369
0.110046387406
0.110046221754
0.11004608573
0.110045970848
0.110045870511
0.110045780128
0.110045696624
0.110045616964
0.110045538451
0.110045471875
0.107679012408
0.107678975567
0.107678628709
0.107678293679
0.107677825793
0.107677341775
0.107676803086
0.107676253758
0.107675687883
0.107675122653
0.107674560629
0.10767400945
0.107673473398
0.107672958484
0.107672471516
0.107672021086
0.107671616316
0.107671264519
0.107670968613
0.107670726121
0.107670530169
0.107670371613
0.107670241148
0.107670130694
0.107670034007
0.107669946759
0.10766986606
0.107669789029
0.107669713088
0.107669648689
0.105326845676
0.105326812006
0.1053264746
0.105326150692
0.105325696974
0.105325228227
0.105324706184
0.105324174008
0.105323625708
0.105323078083
0.105322533557
0.105321999616
0.105321480506
0.105320982239
0.105320511629
0.105320077177
0.10531968771
0.105319350044
0.105319066585
0.105318834539
0.10531864701
0.105318495085
0.105318369821
0.105318263521
0.105318170266
0.105318085975
0.105318007926
0.10531793338
0.105317859874
0.105317797535
0.102997875363
0.102997844676
0.102997516243
0.102997202872
0.102996762588
0.102996308315
0.102995802051
0.102995286134
0.102994754494
0.102994223557
0.102993695622
0.102993178031
0.102992674998
0.102992192538
0.102991737466
0.102991318181
0.102990943205
0.102990618877
0.102990347124
0.102990124874
0.102989945229
0.10298979951
0.102989679122
0.102989576722
0.102989486701
0.102989405201
0.102989329658
0.102989257466
0.102989186266
0.10298912588
0.100691349985
0.10069132211
0.100691002206
0.100690698827
0.100690271295
0.100689830756
0.100689339468
0.100688838981
0.100688323152
0.100687808053
0.100687295865
0.100686793799
0.100686306043
0.100685838612
0.100685398315
0.100684993439
0.1006846322
0.100684320472
0.10068405974
0.100683846686
0.100683674434
0.100683534532
0.100683418718
0.100683319989
0.100683233016
0.100683154155
0.100683080987
0.100683011026
0.100682942014
0.100682883479
0.0984065573749
0.0984065321502
0.0984062203615
0.0984059264701
0.0984055110574
0.0984050835652
0.0984046065064
0.0984041206768
0.0984036198701
0.0984031198192
0.0984026225965
0.0984021352897
0.0984016620645
0.098401208937
0.0984007827058
0.0984003915324
0.0984000433251
0.0983997435134
0.0983994931679
0.0983992887576
0.0983991234428
0.0983989890013
0.0983988774872
0.0983987822142
0.0983986981212
0.0983986217593
0.0983985508416
0.0983984829987
0.0983984160638
0.0983983592877
0.0961428218702
0.0961427991479
0.0961424950895
0.0961422102153
0.0961418063317
0.0961413912458
0.0961409277211
0.0961404558315
0.0961399693127
0.0961394835737
0.0961390005874
0.0961385273268
0.0961380679391
0.0961376284403
0.0961372156109
0.0961368374804
0.0961365016477
0.0961362131134
0.0961359725662
0.0961357762897
0.0961356174949
0.0961354881853
0.0961353807178
0.0961352887054
0.0961352073356
0.0961351333416
0.0961350645606
0.0961349987301
0.0961349337696
0.0961348786653
0.093899501758
0.0938994814003
0.0938991847126
0.0938989084175
0.0938985155129
0.0938981122366
0.0938976615977
0.0938972029789
0.0938967300629
0.0938962579502
0.0938957885212
0.0938953286422
0.0938948824455
0.0938944559451
0.0938940558977
0.0938936901925
0.0938933661194
0.0938930882676
0.0938928569726
0.0938926683584
0.0938925156984
0.0938923912182
0.0938922875642
0.0938921986312
0.0938921198398
0.0938920480926
0.0938919813422
0.0938919174258
0.093891854344
0.0938918008305
0.0916759869336
0.0916759688123
0.0916756791595
0.0916754110348
0.0916750285957
0.091674636572
0.0916741982136
0.091673752241
0.0916732922886
0.091672833162
0.0916723766566
0.0916719295392
0.0916714959295
0.0916710818386
0.091670693993
0.0916703401342
0.0916700272452
0.0916697595207
0.0916695369706
0.0916693555821
0.0916692087011
0.0916690887713
0.0916689887155
0.0916689026946
0.0916688263474
0.0916687567343
0.0916686919155
0.0916686298216
0.0916685685291
0.091668516531
0.0894716967667
0.0894716807624
0.0894713978301
0.0894711374937
0.0894707650397
0.089470383748
0.0894699571042
0.0894695231937
0.0894690756071
0.0894686288684
0.0894681846942
0.089467749759
0.0894673281717
0.089466925939
0.0894665497512
0.0894662071959
0.0894659049514
0.0894656468356
0.0894654325582
0.0894652579907
0.0894651165597
0.0894650009225
0.089464904266
0.0894648210021
0.0894647469743
0.0894646793907
0.0894646164113
0.0894645560543
0.0894644964676
0.0894644459143
0.0872860781665
0.0872860641679
0.0872857876614
0.0872855347557
0.087285171837
0.0872848007899
0.0872843853309
0.0872839629358
0.0872835271554
0.0872830922446
0.0872826598475
0.0872822365518
0.0872818264584
0.0872814355671
0.0872810705265
0.0872807387644
0.0872804466583
0.0872801976664
0.0872799912217
0.0872798230996
0.0872796868139
0.0872795752309
0.0872794817894
0.0872794011387
0.0872793293144
0.0872792636624
0.0872792024363
0.0872791437361
0.087279085777
0.0872790366026
0.0851186037852
0.0851185916884
0.0851183213314
0.0851180755217
0.0851177217168
0.0851173604576
0.0851169556867
0.0851165442948
0.0851161197962
0.0851156961887
0.0851152750493
0.0851148628851
0.0851144637898
0.085114083755
0.0851137293817
0.0851134079329
0.0851131254897
0.0851128851677
0.0851126861458
0.0851125241199
0.085112392697
0.085112284947
0.0851121945498
0.0851121163787
0.0851120466498
0.0851119828383
0.0851119232849
0.0851118661665
0.085111809762
0.0851117619045
0.082968770372
0.0829687600801
0.0829684956131
0.0829682565852
0.0829679114985
0.0829675595989
0.0829671650502
0.0829667641808
0.0829663504719
0.0829659376756
0.0829655273067
0.0829651257973
0.082964737235
0.0829643676009
0.0829640234431
0.082963711856
0.0829634386289
0.0829632065515
0.0829630145695
0.0829628583149
0.0829627314925
0.0829626273705
0.0829625398589
0.082962464043
0.0829623963089
0.0829623342527
0.0829622762965
0.0829622206896
0.082962165771
0.0829621191725
0.0808360972695
0.0808360886915
0.0808358298703
0.0808355973293
0.0808352605888
0.0808349176463
0.0808345328818
0.0808341420834
0.0808337387019
0.0808333362544
0.0808329361985
0.080832544896
0.0808321664295
0.0808318067673
0.0808314723995
0.0808311702481
0.0808309058166
0.0808306815849
0.0808304962852
0.0808303454994
0.0808302230334
0.0808301223489
0.0808300375753
0.0808299639989
0.0808298981655
0.0808298377847
0.080829781355
0.0808297271937
0.0808296736965
0.0808296283025
0.078720125026
0.0787201180769
0.0787198646717
0.0787196383401
0.0787193095962
0.0787189752322
0.0787185998401
0.0787182186879
0.078717825199
0.0787174326656
0.0787170424927
0.0787166609759
0.0787162921937
0.0787159420994
0.07871561712
0.0787153240026
0.0787150679707
0.0787148512102
0.0787146722583
0.0787145266589
0.0787144083225
0.0787143108981
0.0787142287251
0.0787141572801
0.0787140932594
0.0787140344793
0.0787139795097
0.078713926732
0.0787138745956
0.0787138303548
0.076620414102
0.0766204087021
0.0766201604965
0.0766199401135
0.0766196190368
0.0766192928951
0.0766189264877
0.076618554582
0.0766181705765
0.076617787548
0.0766174068532
0.0766170347258
0.0766166752403
0.0766163343329
0.0766160183629
0.0766157338999
0.0766154858943
0.0766152762533
0.076615103336
0.0766149626597
0.0766148482411
0.0766147539116
0.0766146742112
0.0766146047967
0.0766145425064
0.0766144852568
0.0766144316848
0.0766143802324
0.0766143293999
0.076614286264
0.0745365436888
0.0745365397631
0.0745362965527
0.0745360818723
0.0745357681524
0.0745354498971
0.0745350921089
0.074534729073
0.0745343541651
0.074533980256
0.0745336086578
0.0745332455464
0.0745328949921
0.0745325629118
0.0745322555928
0.0745319794255
0.0745317390942
0.0745315362419
0.0745313690657
0.0745312330662
0.074531122368
0.0745310309794
0.074530953632
0.0745308861535
0.0745308255165
0.0745307697315
0.0745307174983
0.0745306673163
0.0745306177339
0.0745305756576
0.072468110626
0.0724681081041
0.0724678696958
0.0724676604861
0.0724673538299
0.0724670431442
0.0724666936302
0.0724663391085
0.0724659729343
0.0724656077811
0.0724652449197
0.0724648904716
0.0724645485034
0.0724642249102
0.0724639259029
0.0724636576921
0.0724634247025
0.0724632283277
0.0724630666172
0.0724629350642
0.072462827902
0.0724627393103
0.0724626642041
0.0724625985733
0.0724625395171
0.0724624851346
0.0724624341851
0.0724623852217
0.0724623368388
0.0724622957791
0.0704147283787
0.0704147271945
0.0704144934062
0.0704142894484
0.0704139895794
0.0704136861642
0.0704133445988
0.0704129982558
0.0704126404716
0.0704122837309
0.0704119292668
0.0704115831492
0.0704112494411
0.0704109340132
0.0704106429963
0.0704103824205
0.0704101564586
0.070409966268
0.0704098097648
0.0704096824427
0.070409578644
0.0704094927147
0.0704094197451
0.0704093558791
0.0704092983356
0.0704092452974
0.0704091955793
0.0704091477857
0.0704091005544
0.070409060471
0.0683760260887
0.06837602618
0.068375796839
0.0683755979263
0.0683753045829
0.0683750081557
0.0683746742311
0.0683743357495
0.0683739860307
0.0683736373782
0.0683732909904
0.0683729528889
0.0683726271324
0.0683723195651
0.068372036234
0.0683717829887
0.0683715637574
0.0683713794748
0.0683712279362
0.0683711046428
0.0683710040462
0.0683709206534
0.0683708497223
0.0683707875433
0.0683707314485
0.0683706796996
0.0683706311637
0.0683705844938
0.0683705383689
0.0683704992235
0.0663516477127
0.0663516490207
0.0663514239636
0.0663512299003
0.0663509428348
0.066350653128
0.0663503265529
0.0663499956326
0.0663496536719
0.0663493128007
0.0663489741856
0.0663486438025
0.0663483257054
0.0663480257098
0.0663477497755
0.0663475035719
0.0663472907902
0.0663471121549
0.0663469653525
0.0663468458981
0.0663467483523
0.066346667378
0.0663465983936
0.0663465378286
0.0663464831222
0.0663464326106
0.0663463852105
0.0663463396207
0.0663462945595
0.0663462563159
0.0643412512072