/*--------------------------------*- C++ -*----------------------------------*\
| =========                 |                                                 |
| \\      /  F ield         | OpenFOAM: The Open Source CFD Toolbox           |
|  \\    /   O peration     | Version:  2206                                  |
|   \\  /    A nd           | Website:  www.openfoam.com                      |
|    \\/     M anipulation  |                                                 |
\*---------------------------------------------------------------------------*/
FoamFile
{
    version     2.0;
    format      ascii;
    arch        "LSB;label=32;scalar=64";
    class       surfaceScalarField;
    location    "300";
    object      phi;
}
// * * * * * * * * * * * * * * * * * * * * * * * * * * * * * * * * * * * * * //

dimensions      [0 3 -1 0 0 0 0];

oriented        oriented;

internalField   nonuniform List<scalar> 
5870
(
-2.62252904279e-08
1.26032276797e-06
-9.82008270544e-08
3.40466758525e-06
-2.06755104018e-07
5.0576845899e-06
-3.44779463878e-07
6.30551510007e-06
-5.06519892143e-07
7.22023297582e-06
-6.87136790078e-07
7.86215154272e-06
-8.82446097986e-07
8.28173860811e-06
-1.08876476133e-06
8.52119445345e-06
-1.30281979644e-06
8.61576766312e-06
-1.52169566032e-06
8.5948571419e-06
-1.74280373196e-06
8.48293744086e-06
-1.96386357612e-06
8.30033717963e-06
-2.18288952321e-06
8.0638947489e-06
-2.39817872513e-06
7.78751129782e-06
-2.60829863143e-06
7.48261755734e-06
-2.81207261116e-06
7.15856785467e-06
-3.00856106328e-06
6.82297069472e-06
-3.19703497037e-06
6.48196461244e-06
-3.3769590824e-06
6.14046732405e-06
-3.54806471049e-06
5.8024675883e-06
-3.71061045176e-06
5.47138374631e-06
-3.86556114569e-06
5.15012571276e-06
-4.0132684271e-06
4.83971756553e-06
-4.1477316833e-06
4.53497965486e-06
-4.24361468453e-06
4.21736962445e-06
-4.23711307442e-06
3.84890477843e-06
-4.00863520406e-06
3.37403523325e-06
-3.37945719054e-06
2.73366805225e-06
-2.12810320572e-06
1.88493402359e-06
7.9449639484e-07
-2.05617407412e-08
1.28088450874e-06
-7.55378139077e-08
3.45964365829e-06
-1.56661928051e-07
5.138808704e-06
-2.56916913389e-07
6.40577008544e-06
-3.70494889448e-07
7.33381095189e-06
-4.92698881049e-07
7.98435553451e-06
-6.19812970853e-07
8.40885269799e-06
-7.48966308576e-07
8.65034779127e-06
-8.78001189619e-07
8.74480254416e-06
-1.00534991711e-06
8.7222058691e-06
-1.12992284886e-06
8.60751037299e-06
-1.25100880897e-06
8.42142313899e-06
-1.36818825144e-06
8.18107419217e-06
-1.48125912598e-06
7.90058217167e-06
-1.59017482673e-06
7.591533258e-06
-1.69499222055e-06
7.26338524848e-06
-1.79582647346e-06
6.92380494746e-06
-1.89282203002e-06
6.57896016899e-06
-1.98619324e-06
6.23383853491e-06
-2.07638702451e-06
5.8926613727e-06
-2.16406055696e-06
5.55905727808e-06
-2.24855138771e-06
5.23461654379e-06
-2.32258721587e-06
4.91375339418e-06
-2.36258383644e-06
4.57497627477e-06
-2.31989669082e-06
4.17468247879e-06
-2.12553787339e-06
3.65454596103e-06
-1.72072290207e-06
2.96922026216e-06
-1.11278338811e-06
2.12572853835e-06
-4.36108570962e-07
1.20825920662e-06
3.58387823844e-07
-1.06067004394e-08
1.29149120921e-06
-3.88679270997e-08
3.48790488493e-06
-8.11528150564e-08
5.18109359198e-06
-1.34501987054e-07
6.4591192575e-06
-1.96497174465e-07
7.39580613936e-06
-2.651574995e-07
8.05301585968e-06
-3.38848302823e-07
8.4825435014e-06
-4.16207011999e-07
8.72770650054e-06
-4.96084829429e-07
8.82468036163e-06
-5.7750208053e-07
8.80362312012e-06
-6.59615045812e-07
8.68962333848e-06
-7.41692086563e-07
8.50350017947e-06
-8.23096982506e-07
8.26247908849e-06
-9.03277639145e-07
7.98076282806e-06
-9.81758076553e-07
7.67001369541e-06
-1.05813070988e-06
7.33975788184e-06
-1.13205091103e-06
6.99772514857e-06
-1.20326372431e-06
6.65017298229e-06
-1.27171065732e-06
6.30228546834e-06
-1.3375469194e-06
5.95849763475e-06
-1.40013275455e-06
5.62164311294e-06
-1.45423552298e-06
5.28871931235e-06
-1.48298233019e-06
4.94250020163e-06
-1.45246081752e-06
4.54445476179e-06
-1.31874231077e-06
4.04096397203e-06
-1.05496436043e-06
3.39076801071e-06
-6.88714441847e-07
2.60297034368e-06
-3.1766890438e-07
1.7546830009e-06
-6.78711301612e-08
9.58461432433e-07
2.90516693677e-07
-1.03183865092e-08
1.30180959573e-06
-3.84009433494e-08
3.51598744174e-06
-8.01948314295e-08
5.22288748007e-06
-1.32376615273e-07
6.51130104138e-06
-1.92197532943e-07
7.45562705706e-06
-2.57371946791e-07
8.1181902736e-06
-3.26000001119e-07
8.55117155578e-06
-3.96509400959e-07
8.79821590044e-06
-4.67609978448e-07
8.89578093915e-06
-5.38256394505e-07
8.87426953612e-06
-6.07616172027e-07
8.75898311614e-06
-6.75041387266e-07
8.57092539451e-06
-7.40043121281e-07
8.32748082277e-06
-8.02268149219e-07
8.04298785581e-06
-8.61476805466e-07
7.72922235165e-06
-9.17521542714e-07
7.3958026191e-06
-9.70338851482e-07
7.0505424573e-06
-1.01999291025e-06
6.69982704107e-06
-1.06672526702e-06
6.34901782542e-06
-1.11047710261e-06
6.00224947031e-06
-1.14855525852e-06
5.65972126863e-06
-1.17056797224e-06
5.31073202618e-06
-1.15362741529e-06
4.92555964486e-06
-1.0661412602e-06
4.45696860648e-06
-8.86802657613e-07
3.86162536944e-06
-6.30974236342e-07
3.13493958945e-06
-3.59432534772e-07
2.33142864215e-06
-1.47594432075e-07
1.54284489821e-06
-3.27574678942e-08
8.43624468267e-07
2.57759225779e-07
-8.83849324888e-09
1.31064808899e-06
-3.27950774389e-08
3.53994402591e-06
-6.82288655483e-08
5.2583212682e-06
-1.12120198804e-07
6.55519237469e-06
-1.61993984007e-07
7.50550084232e-06
-2.15844018259e-07
8.17204030797e-06
-2.72063853453e-07
8.60739139106e-06
-3.29383115118e-07
8.8555351622e-06
-3.86810808785e-07
8.95320863288e-06
-4.43585657277e-07
8.9310443846e-06
-4.99133412312e-07
8.81453087136e-06
-5.53030740704e-07
8.62482272277e-06
-6.04975108254e-07
8.37942519061e-06
-6.54759739657e-07
8.09277248709e-06
-7.02252077729e-07
7.77671468975e-06
-7.47377992696e-07
7.44092853412e-06
-7.90131954353e-07
7.09329641896e-06
-8.30624693509e-07
6.74031978027e-06
-8.68943375103e-07
6.38733650732e-06
-9.03970729161e-07
6.03727682437e-06
-9.30067925138e-07
5.68581846445e-06
-9.32683908818e-07
5.31334800998e-06
-8.88562405811e-07
4.88143814202e-06
-7.77203501484e-07
4.345609702e-06
-6.00654697156e-07
3.68507656513e-06
-3.94210354771e-07
2.9284952471e-06
-2.10343565879e-07
2.1475618533e-06
-8.43731614714e-08
1.41687449383e-06
-1.86645940086e-08
7.77915900826e-07
2.39094631785e-07
-7.19040534459e-09
1.31783849434e-06
-2.65688811357e-08
3.55932250167e-06
-5.53389244114e-08
5.28709131146e-06
-9.11880933062e-08
6.59104154357e-06
-1.32215091025e-07
7.54652784003e-06
-1.76865966912e-07
8.21669118388e-06
-2.23878021626e-07
8.65440344577e-06
-2.72231516949e-07
8.90388865752e-06
-3.21108903831e-07
9.00208601973e-06
-3.69860421299e-07
8.97979590197e-06
-4.17975294955e-07
8.86264574507e-06
-4.65057693628e-07
8.67190512124e-06
-5.10806655534e-07
8.42517415266e-06
-5.54998930034e-07
8.1369647614e-06
-5.97474011443e-07
7.81918977111e-06
-6.38128416867e-07
7.48158293952e-06
-6.76939099038e-07
7.13210710107e-06
-7.13958553325e-07
6.77733923453e-06
-7.48841160055e-07
6.42221911424e-06
-7.78942172144e-07
6.06737783642e-06
-7.9576113497e-07
5.70263742709e-06
-7.82819359202e-07
5.30040623426e-06
-7.20966775404e-07
4.81958555832e-06
-6.02573371738e-07
4.22721629819e-06
-4.44194935326e-07
3.5266981287e-06
-2.82146331263e-07
2.76644664302e-06
-1.50256084624e-07
2.01567160667e-06
-6.19837972192e-08
1.32860220641e-06
-1.43156317158e-08
7.30247735321e-07
2.2477900006e-07
-6.6294586748e-09
1.32446795303e-06
-2.45091634867e-08
3.57720220649e-06
-5.10700048164e-08
5.31365215283e-06
-8.41898454225e-08
6.62416138425e-06
-1.22120815382e-07
7.58445881006e-06
-1.63429417332e-07
8.25799978594e-06
-2.06945938924e-07
8.69791996745e-06
-2.51721888503e-07
8.94866460719e-06
-2.96994254932e-07
9.04735838623e-06
-3.42155211235e-07
9.02495685828e-06
-3.86726469236e-07
8.90721700321e-06
-4.30337532885e-07
8.71551618481e-06
-4.72707175462e-07
8.46754379546e-06
-5.13627243773e-07
8.17788482964e-06
-5.52949746855e-07
7.85851227423e-06
-5.90588278331e-07
7.51922147105e-06
-6.26536998602e-07
7.16805582135e-06
-6.60740672511e-07
6.81154290848e-06
-6.92193272156e-07
6.45367171411e-06
-7.1651934332e-07
6.09170390758e-06
-7.23046160799e-07
5.70916424446e-06
-6.95675145887e-07
5.27303521943e-06
-6.21529311832e-07
4.74543972438e-06
-5.03307464387e-07
4.10899445066e-06
-3.63036141466e-07
3.38642680579e-06
-2.30197942056e-07
2.63360844364e-06
-1.24895306519e-07
1.91036897117e-06
-5.30123027466e-08
1.25671920266e-06
-1.26889341614e-08
6.89924366755e-07
2.12090065894e-07
-6.27924085388e-09
1.33074719389e-06
-2.32414254828e-08
3.59416439109e-06
-4.84227495808e-08
5.33883347692e-06
-7.97885694597e-08
6.65552720414e-06
-1.15666088393e-07
7.620336329e-06
-1.54687324703e-07
8.2970210223e-06
-1.9574023391e-07
8.73897287669e-06
-2.37927021753e-07
8.99085139507e-06
-2.80528792023e-07
9.08996015652e-06
-3.22975522774e-07
9.067403589e-06
-3.64820729802e-07
8.94906221033e-06
-4.05720109205e-07
8.75641556409e-06
-4.45413428932e-07
8.50723711536e-06
-4.83708981612e-07
8.21618038221e-06
-5.20473647041e-07
7.89527693966e-06
-5.5563956839e-07
7.55438739241e-06
-5.89192333903e-07
7.20160858685e-06
-6.20845334674e-07
6.84319590927e-06
-6.48709555224e-07
6.48153593485e-06
-6.66742246544e-07
6.10973659889e-06
-6.63167158784e-07
5.70558915657e-06
-6.24125744556e-07
5.23399380526e-06
-5.43285917629e-07
4.66459989755e-06
-4.2991871723e-07
3.99562725017e-06
-3.05980145642e-07
3.2624882342e-06
-1.93550500938e-07
2.52117879894e-06
-1.05262880195e-07
1.82208135044e-06
-4.46804943911e-08
1.19613681686e-06
-1.06296240319e-08
6.55873496404e-07
2.01460441873e-07
-5.87410377676e-09
1.33662129767e-06
-2.17428111609e-08
3.61003309845e-06
-4.53044648882e-08
5.36239513065e-06
-7.46589139831e-08
6.68488165325e-06
-1.0824391052e-07
7.65392132556e-06
-1.44781445927e-07
8.33355855775e-06
-1.83231882086e-07
8.77742331288e-06
-2.2275506407e-07
9.03037457709e-06
-2.62677418876e-07
9.12988251134e-06
-3.02464090631e-07
9.10719026072e-06
-3.41695460387e-07
8.98829358018e-06
-3.8004734023e-07
8.79476744382e-06
-4.17274109482e-07
8.54446388477e-06
-4.53194705164e-07
8.25210097778e-06
-4.87686526903e-07
7.9297687614e-06
-5.20690924335e-07
7.58739178986e-06
-5.52136196577e-07
7.23305385907e-06
-5.81368039489e-07
6.87242775219e-06
-6.05492230109e-07
6.50566012565e-06
-6.17131585649e-07
6.12137595442e-06
-6.04539469424e-07
5.69299704023e-06
-5.5715310709e-07
5.18660744299e-06
-4.74206832849e-07
4.58165362339e-06
-3.68250767043e-07
3.88967118429e-06
-2.58851180485e-07
3.15308864765e-06
-1.62456791777e-07
2.42478441024e-06
-8.77168652369e-08
1.74734142392e-06
-3.69117579026e-08
1.14533170953e-06
-8.67965944715e-09
6.27641397958e-07
1.92780782431e-07
-5.52492785234e-09
1.34214622554e-06
-2.04447904316e-08
3.62495296103e-06
-4.26004203305e-08
5.38455076055e-06
-7.0209177702e-08
6.71249041064e-06
-1.01804953888e-07
7.68551710175e-06
-1.36187824077e-07
8.36794142797e-06
-1.72381040304e-07
8.81361652912e-06
-2.09594707192e-07
9.06758824399e-06
-2.47195050714e-07
9.16748285486e-06
-2.84678408257e-07
9.14467361821e-06
-3.21649295142e-07
9.02526446711e-06
-3.57801855296e-07
8.83092000384e-06
-3.92904052742e-07
8.57956608234e-06
-4.26785416171e-07
8.28598234109e-06
-4.59334098128e-07
7.96231744333e-06
-4.90489791279e-07
7.618547483e-06
-5.20066340832e-07
7.26263040859e-06
-5.46927018619e-07
6.89928842997e-06
-5.67174735196e-07
6.52590784237e-06
-5.72581845787e-07
6.12678306499e-06
-5.52340538862e-07
5.67275573318e-06
-4.9943749353e-07
5.13370439769e-06
-4.17197282752e-07
4.49941341267e-06
-3.19208875078e-07
3.79168277654e-06
-2.22149459567e-07
3.05602923212e-06
-1.38514586204e-07
2.34114953688e-06
-7.44681906278e-08
1.68329502835e-06
-3.12707415656e-08
1.10213426046e-06
-7.35649895809e-09
6.03727155349e-07
1.85424283458e-07
-5.2489440071e-09
1.34739516955e-06
-1.9422830096e-08
3.63912684712e-06
-4.04705353085e-08
5.40559846581e-06
-6.6698568255e-08
6.73871844366e-06
-9.67141881506e-08
7.71553272173e-06
-1.29377608953e-07
8.40060484889e-06
-1.63761115528e-07
8.8480000358e-06
-1.99114548147e-07
9.10294167672e-06
-2.34836066461e-07
9.20320437327e-06
-2.70447420639e-07
9.18028497244e-06
-3.0557309323e-07
9.06039013986e-06
-3.39922636574e-07
8.86526954716e-06
-3.73275750585e-07
8.61291919657e-06
-4.05471893364e-07
8.31817848384e-06
-4.36408214298e-07
7.99325376432e-06
-4.66004801496e-07
7.64814407027e-06
-4.93898055324e-07
7.29052366246e-06
-5.18389808651e-07
6.92378018335e-06
-5.3468941344e-07
6.54220744737e-06
-5.34235822583e-07
6.12632947416e-06
-5.07749253119e-07
5.64626916366e-06
-4.51493534667e-07
5.07744867933e-06
-3.71471461677e-07
4.41939133978e-06
-2.81043118315e-07
3.70125443315e-06
-1.94214827867e-07
2.96920094171e-06
-1.20657962616e-07
2.26759267166e-06
-6.48140816404e-08
1.62745114741e-06
-2.72573311187e-08
1.06457750997e-06
-6.4357785798e-09
5.82905602836e-07
1.78988504891e-07
-5.01329208872e-09
1.35240846164e-06
-1.85520452048e-08
3.6526656002e-06
-3.86566049715e-08
5.42570302555e-06
-6.37090731019e-08
6.76377091178e-06
-9.23789553858e-08
7.744202604e-06
-1.23577441682e-07
8.4318033352e-06
-1.56418320552e-07
8.88084091467e-06
-1.90185008173e-07
9.13670836435e-06
-2.24302602405e-07
9.23732196749e-06
-2.58314261731e-07
9.21429663171e-06
-2.91861270942e-07
9.09393714912e-06
-3.24666149382e-07
8.89807442548e-06
-3.56518657375e-07
8.64477170467e-06
-3.87267212487e-07
8.34892703885e-06
-4.16813634271e-07
8.02280018609e-06
-4.45033811211e-07
7.67636424721e-06
-4.71325212308e-07
7.31681506353e-06
-4.93393974212e-07
6.94584894526e-06
-5.05742689034e-07
6.55455616233e-06
-4.99947709744e-07
6.12053449485e-06
-4.68550733474e-07
5.61487218729e-06
-4.10573168499e-07
5.01947111439e-06
-3.33583180997e-07
4.34240135233e-06
-2.50101510187e-07
3.61777276228e-06
-1.71863837967e-07
2.89096326948e-06
-1.06463367282e-07
2.20219220097e-06
-5.7131334766e-08
1.5781191149e-06
-2.4025915977e-08
1.03147209118e-06
-5.67421647959e-09
5.6455390334e-07
1.73314288423e-07
-4.80223616506e-09
1.35721069782e-06
-1.77713019104e-08
3.66563466595e-06
-3.70301261724e-08
5.44496184984e-06
-6.1029022295e-08
6.78776980794e-06
-8.84936053183e-08
7.77166718706e-06
-1.18380954238e-07
8.46169068419e-06
-1.49842165734e-07
8.91230212621e-06
-1.8219078674e-07
9.1690569854e-06
-2.14876047317e-07
9.2700072281e-06
-2.47460248827e-07
9.24688083321e-06
-2.7959966676e-07
9.12607656714e-06
-3.11028385452e-07
8.9295031441e-06
-3.41545326062e-07
8.67528864542e-06
-3.71006962324e-07
8.37838867504e-06
-3.99313060615e-07
8.05110628439e-06
-4.26266426846e-07
7.70331761346e-06
-4.5097348935e-07
7.34152212603e-06
-4.7055659438e-07
6.9654320503e-06
-4.79039912693e-07
6.56303948079e-06
-4.68513419259e-07
6.11000800142e-06
-4.33401626598e-07
5.57976039455e-06
-3.74899131593e-07
4.96096861943e-06
-3.01348350491e-07
4.26885057128e-06
-2.24194444252e-07
3.540618856e-06
-1.53295058001e-07
2.82006388324e-06
-9.46821170712e-08
2.14357926005e-06
-5.07245726505e-08
1.53416157049e-06
-2.13090356875e-08
1.00205655422e-06
-5.02760467974e-09
5.4827247234e-07
1.68286683736e-07
-4.61361251829e-09
1.36182431035e-06
-1.70730634035e-08
3.67809411684e-06
-3.5575293574e-08
5.46346408003e-06
-5.86317169313e-08
6.81082623133e-06
-8.50181985348e-08
7.7980536687e-06
-1.13732920141e-07
8.49040540585e-06
-1.43960407809e-07
8.94252961392e-06
-1.75041215312e-07
9.20013779295e-06
-2.06446210268e-07
9.30141222308e-06
-2.37754861475e-07
9.27818948441e-06
-2.68636888005e-07
9.15695859375e-06
-2.98836789143e-07
8.95970304516e-06
-3.28161936246e-07
8.70461379266e-06
-3.56475444622e-07
8.40670218334e-06
-3.83665708844e-07
8.07829654862e-06
-4.09431781624e-07
7.72908368626e-06
-4.32551712833e-07
7.36464205723e-06
-4.4961571233e-07
6.98249604981e-06
-4.54405251917e-07
6.56782902052e-06
-4.39787597168e-07
6.09539034666e-06
-4.0197381816e-07
5.54194661547e-06
-3.43783420491e-07
4.9027782218e-06
-2.73806209635e-07
4.19887336048e-06
-2.0236717691e-07
3.46917982324e-06
-1.37780569169e-07
2.7554772755e-06
-8.48834590989e-08
2.09068214999e-06
-4.54121444644e-08
1.49469025587e-06
-1.90649283669e-08
9.75709338129e-07
-4.49722618213e-09
5.33704770159e-07
1.63789457546e-07
-4.44550924797e-09
1.3662698196e-06
-1.64509180627e-08
3.69009952564e-06
-3.42790062789e-08
5.48129216825e-06
-5.64955430945e-08
6.83304276818e-06
-8.1921102326e-08
7.82347922796e-06
-1.09590443012e-07
8.5180747466e-06
-1.38717851013e-07
8.97165702198e-06
-1.686679316e-07
9.2300878736e-06
-1.98930832404e-07
9.33167512394e-06
-2.29101327461e-07
9.30835997948e-06
-2.58861131894e-07
9.18671839829e-06
-2.87964111632e-07
8.98880602485e-06
-3.16225373311e-07
8.7328750545e-06
-3.43512436214e-07
8.4339892462e-06
-3.69690617923e-07
8.10447473036e-06
-3.9432531798e-07
7.75371838636e-06
-4.15846273266e-07
7.38616301253e-06
-4.30392538316e-07
6.9970423149e-06
-4.3172127e-07
6.56915775236e-06
-4.13634853756e-07
6.07730393043e-06
-3.73945695241e-07
5.5022574569e-06
-3.16631606205e-07
4.84546413282e-06
-2.50196277698e-07
4.13243803204e-06
-1.8389017655e-07
3.40287372207e-06
-1.24757173372e-07
2.69634427235e-06
-7.67051733498e-08
2.04263014999e-06
-4.09977484893e-08
1.45898283103e-06
-1.72072350607e-08
9.51918824718e-07
-4.0597867451e-09
5.20557321861e-07
1.59729670819e-07
-4.29430037559e-09
1.37056411998e-06
-1.58914057329e-08
3.70169663097e-06
-3.31132398677e-08
5.49851400236e-06
-5.45744034383e-08
6.85450393172e-06
-7.91356384329e-08
7.84804046292e-06
-1.05864568455e-07
8.54480367661e-06
-1.34002222617e-07
8.99979467611e-06
-1.62934822823e-07
9.25902047377e-06
-1.92169849222e-07
9.36091015029e-06
-2.21315838058e-07
9.33750596823e-06
-2.50065302719e-07
9.21546786295e-06
-2.78180622736e-07
9.01692134473e-06
-3.0548390409e-07
8.76017833591e-06
-3.31843900349e-07
8.46034924233e-06
-3.57089325764e-07
8.12972015573e-06
-3.80625143329e-07
7.77725420389e-06
-4.00530566575e-07
7.40606843572e-06
-4.12592541238e-07
7.00910428953e-06
-4.10730505105e-07
6.56729571631e-06
-3.89752846511e-07
6.0563262718e-06
-3.48850365968e-07
5.46135497626e-06
-2.92784921812e-07
4.78939868867e-06
-2.29773190507e-07
4.06942630075e-06
-1.68074947541e-07
3.34117547905e-06
-1.13684501139e-07
2.64195382593e-06
-6.97788269217e-08
1.99872447575e-06
-3.7265684078e-08
1.42646968817e-06
-1.56366651507e-08
9.3028980578e-07
-3.68930680819e-09
5.08609963509e-07
1.56040364007e-07
-4.15692922775e-09
1.37472104922e-06
-1.53830746801e-08
3.71292277644e-06
-3.20540979528e-08
5.51518502567e-06
-5.28289660579e-08
6.87527879988e-06
-7.66049147718e-08
7.8718164117e-06
-1.02479425639e-07
8.57067818756e-06
-1.29717825252e-07
9.02703307579e-06
-1.57725975051e-07
9.28702862365e-06
-1.86027102997e-07
9.3892112783e-06
-2.1424224896e-07
9.36572111422e-06
-2.42073751787e-07
9.24329936588e-06
-2.69291815026e-07
9.04413940793e-06
-2.95724693705e-07
8.78661121474e-06
-3.21238216388e-07
8.48586276497e-06
-3.45609890355e-07
8.15409182972e-06
-3.68062428739e-07
7.79970674231e-06
-3.86338530934e-07
7.42434453793e-06
-3.9597971745e-07
7.01874547608e-06
-3.91216076125e-07
6.56253207513e-06
-3.6786755042e-07
6.03297774611e-06
-3.26275362531e-07
5.41976278832e-06
-2.71696263024e-07
4.73481958921e-06
-2.11946538598e-07
4.00967657638e-06
-1.54391664268e-07
3.2836206047e-06
-1.04155242346e-07
2.59171740402e-06
-6.38338344439e-08
1.95840306787e-06
-3.40649239852e-08
1.39670077773e-06
-1.42891111475e-08
9.10513992954e-07
-3.37104413414e-09
4.97691896508e-07
1.52669319866e-07
-4.03142546572e-09
1.37875247469e-06
-1.49186318276e-08
3.72380998278e-06
-3.1086384584e-08
5.53135277844e-06
-5.12341895513e-08
6.89542660488e-06
-7.42926263791e-08
7.89487484856e-06
-9.93864573438e-08
8.59577201859e-06
-1.25803210089e-07
9.05344982859e-06
-1.52966691204e-07
9.31419210482e-06
-1.80414518453e-07
9.41665910559e-06
-2.07779157931e-07
9.3930857537e-06
-2.3477194901e-07
9.27029215705e-06
-2.61170319241e-07
9.07053777811e-06
-2.86807597288e-07
8.81224849292e-06
-3.11541558979e-07
8.51059672662e-06
-3.35083641502e-07
8.17763391227e-06
-3.56458672439e-07
7.82108177329e-06
-3.73100328462e-07
7.44098619397e-06
-3.80410472118e-07
7.02605561976e-06
-3.73039366284e-07
6.55516096943e-06
-3.47778768302e-07
6.00771714814e-06
-3.05905893333e-07
5.37788991331e-06
-2.52954664805e-07
4.68186836072e-06
-1.9628412196e-07
3.95300603358e-06
-1.42461989034e-07
3.22979847176e-06
-9.58862886489e-08
2.54514170365e-06
-5.8688365494e-08
1.92120514473e-06
-3.12980450546e-08
1.36931045731e-06
-1.31248816836e-08
8.92340829595e-07
-3.09618763757e-09
4.87663202476e-07
1.4957313224e-07
-3.91627947494e-09
1.38266875416e-06
-1.44925202734e-08
3.73438622357e-06
-3.01985311634e-08
5.54705878934e-06
-4.97710038688e-08
6.91499907761e-06
-7.2171103641e-08
7.91727494836e-06
-9.65486174802e-08
8.62014953248e-06
-1.22211439487e-07
9.07911265064e-06
-1.48599839403e-07
9.34058050478e-06
-1.75264637611e-07
9.44332390384e-06
-2.01848786695e-07
9.41966990279e-06
-2.28071913999e-07
9.29651528444e-06
-2.53718112002e-07
9.09618397607e-06
-2.78624404991e-07
8.83715478604e-06
-3.0263453376e-07
8.53460685535e-06
-3.25379544662e-07
8.2003789232e-06
-3.45677476165e-07
7.84137970482e-06
-3.60690632885e-07
7.4559993507e-06
-3.65779879984e-07
7.03114486689e-06
-3.56089524364e-07
6.54547061394e-06
-3.29314822444e-07
5.98094244623e-06
-2.87477252768e-07
5.33605234359e-06
-2.36227285209e-07
4.63061839321e-06
-1.82445771762e-07
3.89922452019e-06
-1.3199356579e-07
3.17934626578e-06
-8.86610972269e-08
2.5018092351e-06
-5.42034862849e-08
1.88674753381e-06
-2.88896117098e-08
1.34399658275e-06
-1.21121788769e-08
8.75563396775e-07
-2.85719888104e-09
4.78408222492e-07
1.46715933375e-07
-3.81015434678e-09
1.38647890852e-06
-1.40997958381e-08
3.74467586507e-06
-2.93802395595e-08
5.56233923307e-06
-4.84224430433e-08
6.93404128111e-06
-7.02157550443e-08
7.93906826037e-06
-9.39330225712e-08
8.64386680003e-06
-1.18900908185e-07
9.10408053626e-06
-1.44574853725e-07
9.36625445034e-06
-1.70517847756e-07
9.46926689787e-06
-1.96382512268e-07
9.44553456727e-06
-2.21896146572e-07
9.32202891879e-06
-2.46848954155e-07
9.12113678357e-06
-2.71079927478e-07
8.86138575945e-06
-2.94412121071e-07
8.55793904886e-06
-3.16383125194e-07
8.22234992731e-06
-3.35602005876e-07
7.8605985855e-06
-3.49004111295e-07
7.4694014561e-06
-3.5199694176e-07
7.03413769735e-06
-3.40262205114e-07
6.53373587738e-06
-3.12314610095e-07
5.9529948512e-06
-2.70754094964e-07
5.2944918284e-06
-2.21231380773e-07
4.58109567903e-06
-1.70150582639e-07
3.84814372208e-06
-1.22748435243e-07
3.13194411835e-06
-8.23040365838e-08
2.46136483644e-06
-5.0265841974e-08
1.8547093392e-06
-2.67772661013e-08
1.32050800688e-06
-1.12243066882e-08
8.60010437357e-07
-2.64765989594e-09
4.698315757e-07
1.44068273466e-07
-3.71191670268e-09
1.39019082524e-06
-1.37362588655e-08
3.75470020724e-06
-2.86227596366e-08
5.57722573388e-06
-4.71740927217e-08
6.95259261425e-06
-6.84056928305e-08
7.96029986054e-06
-9.15117511363e-08
8.66697285842e-06
-1.15836302688e-07
9.12840508789e-06
-1.40848833272e-07
9.391266981e-06
-1.66123595496e-07
9.49454166015e-06
-1.91322168581e-07
9.47073314039e-06
-2.16178985835e-07
9.34688573614e-06
-2.40489776891e-07
9.1454475746e-06
-2.64093402896e-07
8.8849893856e-06
-2.86785142882e-07
8.58063078882e-06
-3.0799789657e-07
8.24356268103e-06
-3.26135838777e-07
7.87873652775e-06
-3.3795541013e-07
7.48122102747e-06
-3.38985306563e-07
7.03516759382e-06
-3.2546323456e-07
6.52021380551e-06
-2.96632788218e-07
5.92416440487e-06
-2.55532269687e-07
5.25339130984e-06
-2.07730147448e-07
4.53329355684e-06
-1.59168788732e-07
3.79958236341e-06
-1.14534734781e-07
3.08731006439e-06
-7.66746461887e-08
2.42350474786e-06
-4.67852486984e-08
1.82481994173e-06
-2.49116936582e-08
1.29863445186e-06
-1.04403645373e-08
8.45539108251e-07
-2.46263424809e-09
4.61853845424e-07
1.41605639215e-07
-3.62063892241e-09
1.39381146415e-06
-1.3398475848e-08
3.76447804414e-06
-2.79189380086e-08
5.59174619602e-06
-4.60141663896e-08
6.97068784262e-06
-6.67238315006e-08
7.98100952565e-06
-8.92619551826e-08
8.68951098212e-06
-1.12988713492e-07
9.1521318462e-06
-1.37386640883e-07
9.4156649084e-06
-1.62040456547e-07
9.51919547582e-06
-1.86620071015e-07
9.49531275483e-06
-2.10866571646e-07
9.37113223682e-06
-2.3458056424e-07
9.16916156712e-06
-2.57598308892e-07
8.90800713034e-06
-2.79680034939e-07
8.6027125148e-06
-3.00144960957e-07
8.26402760704e-06
-3.17201951029e-07
7.89579351783e-06
-3.27477547124e-07
7.49149662356e-06
-3.2668251475e-07
7.03437256144e-06
-3.11609966932e-07
6.50514125778e-06
-2.82141536648e-07
5.89469597458e-06
-2.41637508758e-07
5.2128872819e-06
-1.95527033913e-07
4.48718308202e-06
-1.49313486623e-07
3.75336881615e-06
-1.07198507366e-07
3.04519508512e-06
-7.16612903251e-08
2.38796753082e-06
-4.36905858058e-08
1.79684923721e-06
-2.32542876083e-08
1.27819815367e-06
-9.74410270714e-09
8.32028923354e-07
-2.29830905966e-09
4.54408051779e-07
1.39307330169e-07
-3.53554579651e-09
1.39734700996e-06
-1.3083579318e-08
3.77402607765e-06
-2.72628009929e-08
5.60592541768e-06
-4.49328204912e-08
6.98835786211e-06
-6.51558999548e-08
8.00123260509e-06
-8.7164546917e-08
8.71151962908e-06
-1.10333984037e-07
9.17530128331e-06
-1.34158909944e-07
9.43948983429e-06
-1.5823380213e-07
9.54327036798e-06
-1.82236348476e-07
9.51931530112e-06
-2.05913850792e-07
9.39480973916e-06
-2.29071047693e-07
9.19231876392e-06
-2.51538784005e-07
8.93047486672e-06
-2.73035035111e-07
8.62420876581e-06
-2.9275883959e-07
8.2837514115e-06
-3.08737885003e-07
7.91177256322e-06
-3.17516656292e-07
7.50027539481e-06
-3.15035568396e-07
7.03189147353e-06
-2.98628334493e-07
6.48873402395e-06
-2.68727483781e-07
5.86479512385e-06
-2.2891986975e-07
5.17307966781e-06
-1.84457233349e-07
4.44272044562e-06
-1.40430734878e-07
3.70934231769e-06
-1.00614393627e-07
3.00537874383e-06
-6.71737013088e-08
2.35452683849e-06
-4.09245596667e-08
1.77060009556e-06
-2.17739750746e-08
1.25904756907e-06
-9.1224168394e-09
8.19377365113e-07
-2.15159279454e-09
4.4743722773e-07
1.37155737372e-07
-3.4559746687e-09
1.40080298464e-06
-1.27891174295e-08
3.78335922042e-06
-2.66492405375e-08
5.61978554082e-06
-4.39216381031e-08
7.00563025972e-06
-6.36896960995e-08
8.02100066313e-06
-8.52032070348e-08
8.73303314008e-06
-1.07851463069e-07
9.19794953939e-06
-1.31140537315e-07
9.46277890859e-06
-1.54674033687e-07
9.56680386439e-06
-1.78136924424e-07
9.54277819187e-06
-2.01282310894e-07
9.4179551257e-06
-2.23918206428e-07
9.21495465941e-06
-2.45866928049e-07
8.95242358845e-06
-2.66797302635e-07
8.64513914036e-06
-2.85784276997e-07
8.30273838588e-06
-3.00692033646e-07
7.9266803199e-06
-3.08028096905e-07
7.50761145808e-06
-3.0399784956e-07
7.02786122621e-06
-2.86450790393e-07
6.47118696489e-06
-2.56289249475e-07
5.83463358294e-06
-2.17249274919e-07
5.13403969323e-06
-1.74381143137e-07
4.39985231387e-06
-1.32392200042e-07
3.66735337463e-06
-9.4678902447e-08
2.96766544623e-06
-6.31377494368e-08
2.32298568549e-06
-3.8440214089e-08
1.74590256023e-06
-2.04452824214e-08
1.24105263742e-06
-8.56454604944e-09
8.07496628748e-07
-2.01994043825e-09
4.40892622126e-07
1.35135796927e-07
-3.38135645046e-09
1.40418434109e-06
-1.25129841074e-08
3.79249084806e-06
-2.60738688197e-08
5.63334642555e-06
-4.2973389126e-08
7.02252978007e-06
-6.23147386012e-08
8.04034201266e-06
-8.33639179704e-08
8.75408231952e-06
-1.055234126e-07
9.2201090341e-06
-1.28309961873e-07
9.48556545795e-06
-1.51335730044e-07
9.58982963263e-06
-1.74292532065e-07
9.56573499393e-06
-1.96938864112e-07
9.44060145786e-06
-2.19085026823e-07
9.23710082212e-06
-2.40541460296e-07
8.97388002207e-06
-2.60921469695e-07
8.66551914975e-06
-2.79174549928e-07
8.32099146616e-06
-2.93021582847e-07
7.94052735287e-06
-2.98974405649e-07
7.51356428092e-06
-2.93527809733e-07
7.02241463034e-06
-2.75015667135e-07
6.45267482242e-06
-2.44736258395e-07
5.80435417423e-06
-2.06512688899e-07
5.09581612373e-06
-1.65180014973e-07
4.35851963999e-06
-1.25090274451e-07
3.62726363417e-06
-8.93060288592e-08
2.93188120065e-06
-5.94921483055e-08
2.29317180497e-06
-3.61988355883e-08
1.72260924754e-06
-1.92472388213e-08
1.22410104068e-06
-8.06164124752e-09
7.96311031197e-07
-1.90126211452e-09
4.34732243016e-07
1.3323453483e-07
-3.31120134408e-09
1.40749554243e-06
-1.22533668282e-08
3.80143301353e-06
-2.55329096113e-08
5.64662596833e-06
-4.20818510774e-08
7.03907872155e-06
-6.10220065191e-08
8.05928216811e-06
-8.16346147328e-08
8.77469492777e-06
-1.03334564713e-07
9.2418089841e-06
-1.25648624038e-07
9.50787951729e-06
-1.4819700794e-07
9.61237801655e-06
-1.70677975086e-07
9.58821596106e-06
-1.92855008411e-07
9.46277849123e-06
-2.14539571478e-07
9.25878538513e-06
-2.35526714086e-07
8.99486716477e-06
-2.55368543076e-07
8.68536097869e-06
-2.72890152984e-07
8.33851307608e-06
-2.85690928382e-07
7.95332812829e-06
-2.90323818168e-07
7.5181971707e-06
-2.83588112075e-07
7.01567892426e-06
-2.64266719047e-07
6.43335342948e-06
-2.33987693029e-07
5.77407514822e-06
-1.96611760375e-07
5.05844019104e-06
-1.56752486834e-07
4.31866036647e-06
-1.18434287195e-07
3.58894543456e-06
-8.44238990179e-08
2.89787081246e-06
-5.61859376158e-08
2.26493384358e-06
-3.41683295818e-08
1.70059163951e-06
-1.81624902447e-08
1.20809520135e-06
-7.60638791042e-09
7.85754928868e-07
-1.79383180686e-09
4.28919686919e-07
1.31440703033e-07
-3.24508512394e-09
1.41074062757e-06
-1.20086957736e-08
3.8101966242e-06
-2.50230922305e-08
5.65964036482e-06
-4.12416343016e-08
7.05529726365e-06
-5.98036859635e-08
8.07784421981e-06
-8.00048462424e-08
8.7948960881e-06
-1.01271693276e-07
9.26307583117e-06
-1.23140445539e-07
9.52974826959e-06
-1.45238909038e-07
9.63447648008e-06
-1.67271422001e-07
9.61024847402e-06
-1.89006030775e-07
9.48451310007e-06
-2.10254099744e-07
9.28003345405e-06
-2.30791688951e-07
9.01540475408e-06
-2.5010486157e-07
8.70467415126e-06
-2.66897557994e-07
8.35530577251e-06
-2.78670240693e-07
7.965100811e-06
-2.82048986343e-07
7.52157591635e-06
-2.74144850357e-07
7.00777478829e-06
-2.54152553342e-07
6.41336113255e-06
-2.23971352984e-07
5.74389394786e-06
-1.8746064588e-07
5.0219294839e-06
-1.4901161203e-07
4.28021133265e-06
-1.12347366333e-07
3.55228118889e-06
-7.99720268759e-08
2.865495473e-06