/*--------------------------------*- C++ -*----------------------------------*\
| =========                 |                                                 |
| \\      /  F ield         | OpenFOAM: The Open Source CFD Toolbox           |
|  \\    /   O peration     | Version:  2206                                  |
|   \\  /    A nd           | Website:  www.openfoam.com                      |
|    \\/     M anipulation  |                                                 |
\*---------------------------------------------------------------------------*/
FoamFile
{
    version     2.0;
    format      ascii;
    arch        "LSB;label=32;scalar=64";
    class       volVectorField;
    location    "300";
    object      U;
}
// * * * * * * * * * * * * * * * * * * * * * * * * * * * * * * * * * * * * * //

dimensions      [0 1 -1 0 0 0 0];

internalField   nonuniform List<vector> 
3000
(
(1.00514458058 -0.000744522705941 -2.80327279619e-13)
(1.00519974501 -0.00170310632646 -9.53774479331e-14)
(1.00531043586 -0.00269826283419 -6.22389444368e-14)
(1.00546243557 -0.00365899422562 -4.78341686865e-14)
(1.00564683019 -0.00457985139397 -3.87997119223e-14)
(1.00585649185 -0.00546342722162 -3.40517340748e-14)
(1.00608551792 -0.00631206599359 -2.97781905623e-14)
(1.00632890799 -0.00712708042266 -2.74169901632e-14)
(1.00658237121 -0.00790899146838 -2.5816970339e-14)
(1.00684220526 -0.0086578086382 -2.41043675259e-14)
(1.00710521504 -0.00937326445999 -2.29223296588e-14)
(1.00736865455 -0.0100549961296 -2.13598120551e-14)
(1.00763018162 -0.010702677785 -2.23771091601e-14)
(1.0078878206 -0.011316111306 -1.82463192846e-14)
(1.00813993925 -0.0118952842332 -2.09852533302e-14)
(1.00838525053 -0.0124404027859 -1.90104104528e-14)
(1.00862271865 -0.0129519031656 -2.01841150289e-14)
(1.00885085624 -0.0134304281663 -2.43542449175e-14)
(1.00906629155 -0.0138767537746 -2.28977506336e-14)
(1.00926649507 -0.0142918094358 -1.13388773794e-14)
(1.00947305484 -0.0146774029245 -1.56300864065e-14)
(1.0097901034 -0.0150381337862 -2.52210966977e-14)
(1.01043763909 -0.0153812308444 -1.55512918536e-14)
(1.01149155889 -0.0157035996817 -7.74939590962e-15)
(1.01178906063 -0.0159580706889 -2.50494113233e-14)
(1.00640478836 -0.0160112342509 -2.2283968893e-14)
(0.982512281327 -0.0155819836085 -2.18005671992e-14)
(0.913706816671 -0.0140618328098 -1.41623061643e-14)
(0.750658833221 -0.0103476457079 -8.0303085091e-15)
(0.396854543207 -0.00366081918168 -1.03303266334e-14)
(1.02739406077 -0.000572460173102 -7.25414177986e-13)
(1.02756270325 -0.00131409350846 -2.63008214717e-13)
(1.027903575 -0.0020534116801 -1.85305591434e-13)
(1.02836903452 -0.00274438283415 -1.23694724238e-13)
(1.02892964844 -0.0033762434212 -1.03108226917e-13)
(1.02956199524 -0.00395211505789 -9.17039808991e-14)
(1.03024694395 -0.00447567655534 -7.74829657526e-14)
(1.03096863551 -0.00495116960132 -7.16249727066e-14)
(1.03171385078 -0.00538312021322 -6.58863566322e-14)
(1.03247156688 -0.00577607826678 -5.7722665953e-14)
(1.03323262074 -0.00613446712549 -5.97406688068e-14)
(1.03398944227 -0.00646248523449 -4.77084976199e-14)
(1.03473583497 -0.00676403766905 -5.78224520782e-14)
(1.03546679823 -0.0070426903958 -3.98515928452e-14)
(1.03617839762 -0.00730164324391 -4.96745901327e-14)
(1.03686756915 -0.00754371771764 -4.56426718138e-14)
(1.03753131984 -0.00777134927905 -4.77353945276e-14)
(1.03816530668 -0.00798657315419 -5.54886139931e-14)
(1.03876818296 -0.00819106359756 -5.61666165445e-14)
(1.03937125704 -0.00838650173761 -2.87283364491e-14)
(1.04009628062 -0.00857557356487 -3.57760605682e-14)
(1.04109861044 -0.00876193594231 -5.43679039732e-14)
(1.04192554748 -0.00894100791091 -3.82311961148e-14)
(1.03959084349 -0.00906893657282 -2.64202270597e-14)
(1.0252489452 -0.00901810451991 -5.23144045029e-14)
(0.981179745674 -0.00856999173926 -4.79394329404e-14)
(0.881876216539 -0.00747530909851 -4.15830953513e-14)
(0.70334356358 -0.00554013740509 -2.6860677247e-14)
(0.442257350831 -0.0028390721268 -1.32022055469e-14)
(0.139647664066 -0.000247218215827 -7.49106649001e-15)
(1.04476400268 -0.000294306558177 -9.38525754234e-13)
(1.04492110378 -0.000684130957148 -3.68369732428e-13)
(1.04523857595 -0.00106506517102 -2.353742824e-13)
(1.04567053242 -0.00143628829771 -1.69131962603e-13)
(1.04618902529 -0.00178623612433 -1.39970938641e-13)
(1.04677177085 -0.00211845483384 -1.18851970601e-13)
(1.04740072934 -0.00243415965421 -1.05121162013e-13)
(1.04806109901 -0.00273466732099 -9.74229952536e-14)
(1.04874071359 -0.00302110836343 -8.95534470963e-14)
(1.04942959267 -0.00329435380001 -7.85562861087e-14)
(1.05011958534 -0.00355505142943 -8.00740956264e-14)
(1.05080408082 -0.00380366534212 -6.62534644945e-14)
(1.05147777054 -0.0040405168519 -7.61773855216e-14)
(1.05213646605 -0.00426582543358 -5.41783086696e-14)
(1.0527769469 -0.00447974695309 -6.63657333859e-14)
(1.05339650114 -0.00468240264002 -6.23254272914e-14)
(1.05399160581 -0.00487388663787 -6.57099037504e-14)
(1.05455897287 -0.00505429655712 -7.47008502359e-14)
(1.05511477092 -0.00522400707665 -7.02599070512e-14)
(1.05574408033 -0.00538429301613 -4.44678416044e-14)
(1.05657215969 -0.00553679178503 -5.20219353042e-14)
(1.05722131333 -0.00567651101574 -6.71962516148e-14)
(1.05505233124 -0.00577094249656 -5.29380555322e-14)
(1.04213219955 -0.00572874502241 -4.53358872955e-14)
(1.00295313074 -0.00539161318266 -6.35346063758e-14)
(0.916976611815 -0.00459886705906 -5.75120059337e-14)
(0.768905690323 -0.00332334123865 -4.54167253365e-14)
(0.563372890363 -0.00180155812038 -3.00222636825e-14)
(0.330956354887 -0.000545069416728 -1.50238793967e-14)
(0.107742004257 -3.94265939497e-06 -4.93189603994e-15)
(1.05270604401 -0.000287045120579 -1.06480621019e-12)
(1.05284838598 -0.000671771084732 -4.55150698448e-13)
(1.05313558708 -0.00104710943041 -2.84774991572e-13)
(1.0535271842 -0.00141094547315 -2.02615474645e-13)
(1.05399883747 -0.00174633276909 -1.70117164213e-13)
(1.05453096837 -0.00205805722975 -1.46382031011e-13)
(1.05510768825 -0.0023465280709 -1.2768806196e-13)
(1.05571581067 -0.00261295345689 -1.16731610836e-13)
(1.05634434608 -0.00285848721733 -1.07863490061e-13)
(1.05698412666 -0.00308423858696 -9.60184423283e-14)
(1.0576275206 -0.00329131049052 -9.54775039416e-14)
(1.05826820676 -0.00348080312319 -8.11776351468e-14)
(1.0589009971 -0.00365381431103 -8.92228244358e-14)
(1.05952170789 -0.00381143658991 -6.94853703668e-14)
(1.0601269567 -0.0039547508646 -7.94962692979e-14)
(1.06071338034 -0.00408481123576 -7.66040691944e-14)
(1.06127697416 -0.00420262198923 -8.0887249523e-14)
(1.06182154534 -0.00430921560693 -8.75379695678e-14)
(1.0623924662 -0.0044060592357 -7.90856449764e-14)
(1.06308597078 -0.00449517956753 -5.78446266864e-14)
(1.06372622707 -0.0045753474406 -6.55068162916e-14)
(1.06257812057 -0.00462799231252 -7.53537146345e-14)
(1.05381285493 -0.0045936077689 -6.28397696793e-14)
(1.02522459939 -0.00436151931839 -5.92346096029e-14)
(0.959791404634 -0.00381145914842 -6.83086601763e-14)
(0.843738488544 -0.00291404137812 -5.97927233313e-14)
(0.677905350851 -0.00182301094144 -4.5307822231e-14)
(0.481936368163 -0.000847836763133 -3.05079222381e-14)
(0.28200167974 -0.000250609889805 -1.64222984841e-14)
(0.0922358211517 -1.51502860102e-05 -5.43793272546e-15)
(1.05842793218 -0.000243669755321 -1.16136738489e-12)
(1.05857363264 -0.000574950796374 -5.29547640909e-13)
(1.05886701536 -0.000893351362079 -3.27713963348e-13)
(1.05926700671 -0.0012003073502 -2.33463373918e-13)
(1.05974834718 -0.00147775754232 -1.95409517565e-13)
(1.06029068253 -0.00173282579826 -1.67624834251e-13)
(1.06087756025 -0.00196565402958 -1.4645420389e-13)
(1.06149533858 -0.00217814672739 -1.33546250484e-13)
(1.062132692 -0.00237199414686 -1.22926411048e-13)
(1.06278021728 -0.00254880896972 -1.10423451654e-13)
(1.06343013432 -0.00271011452995 -1.07726873378e-13)
(1.06407604834 -0.00285732093702 -9.28866885681e-14)
(1.06471276435 -0.00299172143768 -9.95325277462e-14)
(1.06533613178 -0.00311449424546 -8.14869379094e-14)
(1.06594267415 -0.00322670565157 -8.93002966017e-14)
(1.06652871192 -0.00332930864261 -8.85839111992e-14)
(1.06709231276 -0.00342316379958 -9.32364820535e-14)
(1.06765084317 -0.00350922600957 -9.66028116422e-14)
(1.0682669646 -0.00358886255097 -8.61388857022e-14)
(1.0689176172 -0.00366254602585 -6.861885386e-14)
(1.06871748737 -0.00372201325821 -7.47161146816e-14)
(1.06399936839 -0.00373281150083 -8.15703673667e-14)
(1.04595354647 -0.00361963221858 -7.11420505057e-14)
(1.00063377936 -0.00328533931354 -6.77461372031e-14)
(0.914301203842 -0.00268030981544 -6.99743783501e-14)
(0.782707132874 -0.00187993044506 -5.9472307882e-14)
(0.616615355135 -0.00108180844262 -4.45310869795e-14)
(0.435827272032 -0.000482599416246 -3.02969004876e-14)
(0.256146575615 -0.000143785645478 -1.68692159398e-14)
(0.0842632978211 -6.14198596512e-06 -5.52910835386e-15)
(1.06474587046 -0.000197206062008 -1.21836849943e-12)
(1.06489001131 -0.000467611537412 -5.89967885395e-13)
(1.06518000966 -0.000724234605803 -3.58637952841e-13)
(1.06557530174 -0.000975919693005 -2.59001303597e-13)
(1.06605075341 -0.00120431857178 -2.15776946965e-13)
(1.06658619149 -0.00141751724488 -1.85010702112e-13)
(1.06716536661 -0.00161431553997 -1.61637393703e-13)
(1.06777481167 -0.00179634200785 -1.47261805385e-13)
(1.06840337835 -0.00196465636804 -1.34919939106e-13)
(1.06904183039 -0.0021202943111 -1.22172851914e-13)
(1.06968254135 -0.00226422502424 -1.17597895875e-13)
(1.07031925521 -0.00239734024842 -1.03482557284e-13)
(1.07094690117 -0.00252046214573 -1.06261836512e-13)
(1.07156139639 -0.00263434840021 -9.12776033816e-14)
(1.07215912858 -0.00273969374139 -9.82436101589e-14)
(1.07273662041 -0.00283713082414 -9.89630690228e-14)
(1.07329674692 -0.00292729259099 -1.02564409977e-13)
(1.07387011592 -0.00301103783186 -1.04445206287e-13)
(1.07449074477 -0.0030892565704 -9.26604579137e-14)
(1.07482349862 -0.00315932899517 -7.85171305533e-14)
(1.07290785824 -0.00320389835879 -8.25518460399e-14)
(1.06302274993 -0.0031754338111 -8.68340082443e-14)
(1.03444213755 -0.00299767760191 -7.74978774689e-14)
(0.974077450583 -0.00260715900428 -7.3331577042e-14)
(0.873599807552 -0.00201914458698 -7.0317026079e-14)
(0.736132456897 -0.00135306342028 -5.816560923e-14)
(0.575319501556 -0.000766747222543 -4.43336694883e-14)
(0.406517900384 -0.000351735282885 -3.00581279257e-14)
(0.239620384327 -0.00011022048969 -1.68954026013e-14)
(0.0791579676515 -6.39204508989e-06 -5.51470258207e-15)
(1.07071292257 -0.000182250438474 -1.25549064674e-12)
(1.07085484385 -0.000431555340965 -6.42902667956e-13)
(1.07113989368 -0.000667199481908 -3.8386737925e-13)
(1.07152853849 -0.000900166326982 -2.81688689181e-13)
(1.07199622015 -0.00111110641408 -2.33746978086e-13)
(1.07252324911 -0.00130880200093 -2.00343483327e-13)
(1.0730937468 -0.00149118144669 -1.75064313526e-13)
(1.07369451148 -0.00166007350535 -1.59369837907e-13)
(1.07431459677 -0.00181629591082 -1.4570864796e-13)
(1.07494490656 -0.00196077469785 -1.32558449877e-13)
(1.07557790791 -0.00209437627582 -1.2634893239e-13)
(1.07620740392 -0.00221790707537 -1.12554521398e-13)
(1.07682835343 -0.00233212069977 -1.12931777668e-13)
(1.07743661618 -0.00243771829112 -1.00090604882e-13)
(1.0780284148 -0.00253534619691 -1.05857903029e-13)
(1.07860139775 -0.00262560649611 -1.0746186103e-13)
(1.07916521948 -0.00270916385821 -1.10293674642e-13)
(1.07975232066 -0.00278688399484 -1.09822284799e-13)
(1.08028714197 -0.00285868032172 -9.88930776911e-14)
(1.07990280936 -0.00291748845895 -8.67626904723e-14)
(1.07532795855 -0.0029366491741 -9.02532099393e-14)
(1.05907252175 -0.0028613439747 -9.17005150975e-14)
(1.0198262549 -0.00262655615782 -8.21474028247e-14)
(0.947049668154 -0.00220672574964 -7.61728184455e-14)
(0.837663443028 -0.00165786847218 -7.01996932897e-14)
(0.698859263443 -0.001098031476 -5.74126542241e-14)
(0.543610121474 -0.000631530373582 -4.32371186808e-14)
(0.383543974252 -0.000298897182415 -2.95799631947e-14)
(0.225958048597 -9.73167070021e-05 -1.67139367692e-14)
(0.0746015594986 -6.42882415347e-06 -5.44918979938e-15)
(1.07594959572 -0.00017281512511 -1.28228267988e-12)
(1.07609154285 -0.000409230254469 -6.91431151228e-13)
(1.07637607791 -0.000632417164606 -4.11001178316e-13)
(1.07676404593 -0.000853539046754 -3.02754567141e-13)
(1.07723094887 -0.00105266864661 -2.50450549785e-13)
(1.07775715959 -0.00123936847614 -2.14568031097e-13)
(1.07832683757 -0.00141100125168 -1.87535659772e-13)
(1.07892680152 -0.00156974451612 -1.70539560427e-13)
(1.07954612474 -0.00171627792806 -1.54726937311e-13)
(1.08017572079 -0.00185155915497 -1.42109757628e-13)
(1.08080806297 -0.00197644552221 -1.34730966255e-13)
(1.08143695951 -0.00209173237734 -1.23399471258e-13)
(1.08205736045 -0.00219815859218 -1.21270435605e-13)
(1.08266503651 -0.00229640585851 -1.08230209588e-13)
(1.08325627904 -0.00238709916837 -1.12719586888e-13)
(1.08383110623 -0.00247083805916 -1.14927759456e-13)
(1.08440513939 -0.00254832474041 -1.17079031415e-13)
(1.08498564709 -0.00262021687441 -1.15333621261e-13)
(1.08527786609 -0.00268465336384 -1.04647462039e-13)
(1.08368408203 -0.00272918732157 -9.29075513884e-14)
(1.07557588236 -0.00271949627441 -9.60923583167e-14)
(1.05226247894 -0.00260041821889 -9.60395200907e-14)
(1.00302775881 -0.00232550494569 -8.59491111113e-14)
(0.92053252154 -0.00190125973876 -7.91598614138e-14)
(0.805715401388 -0.00140080392466 -7.00034369815e-14)
(0.667405337108 -0.0009222215897 -5.74793191174e-14)
(0.517039737881 -0.000532042517255 -4.22076129334e-14)
(0.363942451809 -0.00025220210409 -2.90554287327e-14)
(0.214073394787 -8.16355607804e-05 -1.66507458806e-14)
(0.0705802105733 -5.05295324581e-06 -5.75349458757e-15)
(1.08077082179 -0.00016152007069 -1.30027234819e-12)
(1.08091303877 -0.000382938293579 -7.3595311055e-13)
(1.0811976944 -0.000591560428826 -4.3857369035e-13)
(1.0815858497 -0.000798922486312 -3.22349880967e-13)
(1.08205295844 -0.000985052279083 -2.65987940274e-13)
(1.08257939124 -0.00116007817373 -2.27755255916e-13)
(1.08314929932 -0.0013207940521 -1.99149795151e-13)
(1.08374949432 -0.00146961869012 -1.80763128191e-13)
(1.08436904919 -0.00160700821752 -1.62315672995e-13)
(1.08499887518 -0.00173390324074 -1.50914254682e-13)
(1.08563144598 -0.00185108624279 -1.42491360163e-13)
(1.08626057097 -0.00195929304199 -1.31402904529e-13)
(1.0868811785 -0.00205920741275 -1.28277643623e-13)
(1.08748896769 -0.0021514596965 -1.15877283973e-13)
(1.08808071308 -0.00223663249321 -1.20018150874e-13)
(1.08865966788 -0.00231531344007 -1.21740976517e-13)
(1.08924129874 -0.00238818313072 -1.23239490097e-13)
(1.08976396497 -0.00245534946891 -1.20779339439e-13)
(1.08959270369 -0.00251240644278 -1.10130517595e-13)
(1.08626641028 -0.00254136399805 -9.90595293182e-14)
(1.07394344602 -0.00250317398213 -1.01017574434e-13)
(1.04340610337 -0.00234834677153 -9.97512095784e-14)
(0.985335440738 -0.00205100011381 -8.90512249175e-14)
(0.895494603533 -0.00163977449033 -8.12143919143e-14)
(0.777491121516 -0.00118932739981 -7.17250285466e-14)
(0.640506713661 -0.000776110102072 -5.72607088459e-14)
(0.494566264444 -0.000444649990956 -4.23222815664e-14)
(0.347484548372 -0.000208916842331 -2.89512825237e-14)
(0.204215963973 -6.67801124754e-05 -1.65771535242e-14)
(0.0673095563012 -3.9354035696e-06 -5.72162527483e-15)
(1.08536311765 -0.000151847431198 -1.31091897442e-12)
(1.08550530661 -0.000360188204286 -7.7671462066e-13)
(1.08578956067 -0.000556089812697 -4.59158518156e-13)
(1.08617719746 -0.000751384652119 -3.40566065432e-13)
(1.08664368993 -0.000926257279166 -2.80477693872e-13)
(1.08716946463 -0.00109116967671 -2.4003868349e-13)
(1.08773870308 -0.0012424281704 -2.09984190968e-13)
(1.08833823975 -0.00138267436916 -1.9023217934e-13)
(1.08895716637 -0.00151215164277 -1.70663895845e-13)
(1.08958640507 -0.00163180493382 -1.59062203066e-13)
(1.09021843817 -0.00174234553983 -1.49639884371e-13)
(1.09084707758 -0.00184446312727 -1.37509750408e-13)
(1.09146722167 -0.00193879639152 -1.34428332414e-13)
(1.09207457468 -0.00202593414767 -1.2296369178e-13)
(1.09266690036 -0.00210642923231 -1.26189913432e-13)
(1.09325036145 -0.00218086468722 -1.28006144819e-13)
(1.09382719722 -0.00224981097629 -1.28780852171e-13)
(1.09420967155 -0.00231243823225 -1.25092277197e-13)
(1.09331022289 -0.00236124613907 -1.15316422774e-13)
(1.0877587811 -0.00237331791232 -1.04882140112e-13)
(1.07077596956 -0.00230819196861 -1.0672523306e-13)
(1.03323604661 -0.00212586924987 -1.02891184602e-13)
(0.967619595038 -0.00181901971677 -9.12349919366e-14)
(0.872325614681 -0.00142880036073 -8.17326950421e-14)
(0.752577785021 -0.00102383159174 -7.12867002334e-14)
(0.617350824439 -0.000663074372937 -5.68886691317e-14)
(0.475497682451 -0.000377930538237 -4.22106739643e-14)
(0.333679766699 -0.00017704701327 -2.87912419811e-14)
(0.196025373243 -5.66013066713e-05 -1.63719540741e-14)
(0.0646125682364 -3.40196071208e-06 -5.30852899403e-15)
(1.0897349011 -0.000144277493534 -1.31626985706e-12)
(1.08987707444 -0.000342259246858 -8.14340331529e-13)
(1.09016096898 -0.00052818173409 -4.8284512623e-13)
(1.09054813093 -0.000713899651857 -3.57702742003e-13)
(1.09101405863 -0.000879837416637 -2.94108356271e-13)
(1.09153923414 -0.00103664415675 -2.5158761554e-13)
(1.09210786481 -0.00118025808445 -2.20171042435e-13)
(1.09270680683 -0.00131353415323 -1.99091507967e-13)
(1.09332516875 -0.00143652870106 -1.77591396732e-13)
(1.09395388286 -0.00155021456968 -1.66660053103e-13)
(1.09458543939 -0.00165524302737 -1.56667300604e-13)
(1.09521364854 -0.00175227536081 -1.44542491357e-13)
(1.0958333792 -0.00184191747329 -1.4070060635e-13)
(1.09644048554 -0.00192472920095 -1.29581760351e-13)
(1.09703414053 -0.00200124775499 -1.32263143407e-13)
(1.09762105421 -0.00207204622149 -1.33689777787e-13)
(1.09816965364 -0.00213745155749 -1.33899760405e-13)
(1.09830128411 -0.00219531049589 -1.29736250443e-13)
(1.09638766508 -0.00223479196975 -1.20153631164e-13)
(1.08818757966 -0.0022292450504 -1.09941639886e-13)
(1.06631854462 -0.00213977825648 -1.09727242443e-13)
(1.02222489701 -0.0019374635675 -1.05505912846e-13)
(0.950280353385 -0.00162961020782 -9.30700832741e-14)
(0.850959911735 -0.00126269693336 -8.2827831206e-14)
(0.730392116432 -0.0008968701145 -7.1764846912e-14)
(0.597121142408 -0.000578032013497 -5.67016062187e-14)
(0.459009926634 -0.000328882494978 -4.20684752303e-14)
(0.321793699091 -0.000154237019383 -2.8769028249e-14)
(0.188966077708 -4.95048204189e-05 -1.6542292543e-14)
(0.0622754297076 -3.0363865197e-06 -5.68998360271e-15)
(1.0938896425 -0.000137811210548 -1.31769705745e-12)
(1.09403188274 -0.000326951445719 -8.49148097978e-13)
(1.09431560832 -0.000504435673989 -5.06405425475e-13)
(1.09470254824 -0.000681983004953 -3.73893065175e-13)
(1.09516821028 -0.000840333913027 -3.070509692e-13)
(1.09569311433 -0.000990223817832 -2.62530830312e-13)
(1.09626147913 -0.00112731614149 -2.29843094448e-13)
(1.09686017374 -0.00125464534694 -2.07508205606e-13)
(1.09747831574 -0.00137209579029 -1.85465280786e-13)
(1.09810684246 -0.00148067491808 -1.73903581267e-13)
(1.09873824764 -0.00158097536015 -1.63517477696e-13)
(1.09936633308 -0.00167363743295 -1.53362905049e-13)
(1.09998595509 -0.00175923794192 -1.46588010776e-13)
(1.10059331307 -0.00183831397378 -1.35925881276e-13)
(1.10118905427 -0.00191139331244 -1.3917859333e-13)
(1.10177528669 -0.00197901030073 -1.40257488898e-13)
(1.10225909237 -0.00204107511326 -1.38928264399e-13)
(1.10200541765 -0.00209377938301 -1.35640535672e-13)
(1.09879131193 -0.00212305227583 -1.24971538834e-13)
(1.0876090301 -0.00210000323448 -1.15371685091e-13)
(1.06080854164 -0.0019895913839 -1.13185214936e-13)
(1.01072254915 -0.00177387241952 -1.07697396225e-13)
(0.933519989894 -0.00147061141011 -9.44965698254e-14)
(0.831236862352 -0.00112706405442 -8.31169876351e-14)
(0.710453451493 -0.000794917763681 -7.1281329532e-14)
(0.579202996766 -0.00051035273014 -5.58544665675e-14)
(0.444504585196 -0.000289936145588 -4.26931338223e-14)
(0.311352639848 -0.000135959222799 -2.89903469089e-14)
(0.182756069577 -4.36574451755e-05 -1.65081958371e-14)
(0.060213710353 -2.67559017715e-06 -5.3442399351e-15)
(1.09785762967 -0.000132008269484 -1.31598644023e-12)
(1.09799995675 -0.000313215216267 -8.81418315136e-13)
(1.09828358409 -0.000483156260811 -5.21486468864e-13)
(1.09867039619 -0.000653355919414 -3.89260754877e-13)
(1.09913590596 -0.000804930910147 -3.19283122852e-13)
(1.09966066385 -0.000948622783622 -2.72934485239e-13)
(1.10022889485 -0.00107989210007 -2.39024435275e-13)
(1.10082747801 -0.00120191544445 -2.15534501818e-13)
(1.10144553657 -0.00131442211719 -1.93125872864e-13)
(1.10207401086 -0.00141845561374 -1.80836483972e-13)
(1.10270539527 -0.00151455053051 -1.7001667455e-13)
(1.10333347989 -0.00160333076596 -1.59487387797e-13)
(1.1039531494 -0.0016853456722 -1.50446696352e-13)
(1.10456114953 -0.00176111398636 -1.41975941291e-13)
(1.1051589946 -0.00183115387148 -1.44671537151e-13)
(1.10573577279 -0.00189591001768 -1.45045247088e-13)
(1.10610437195 -0.00195468276874 -1.43521239869e-13)
(1.10531401458 -0.00200177608516 -1.39082848963e-13)
(1.10053074256 -0.00202025348 -1.29401431733e-13)
(1.08612913395 -0.00198051606568 -1.19594122079e-13)
(1.0544901017 -0.00185283048604 -1.17488151687e-13)
(0.999011307379 -0.00162913027165 -1.09604782323e-13)
(0.917462780826 -0.00133400238524 -9.57235105037e-14)
(0.813018107509 -0.00101295084492 -8.39185925818e-14)
(0.692426329375 -0.000710092166812 -7.09930858144e-14)
(0.563194460073 -0.00045423948514 -5.64696803701e-14)
(0.431622271284 -0.000257540552467 -4.2119539363e-14)
(0.302104643291 -0.000120626042307 -2.87499992743e-14)
(0.177263108036 -3.86950531926e-05 -1.63853611255e-14)
(0.0583923202163 -2.36314862844e-06 -5.29248175528e-15)
(1.10166648403 -0.000126826191371 -1.31185174024e-12)
(1.10180889228 -0.000300927103552 -9.11326973484e-13)
(1.10209243496 -0.000464133291281 -5.37613205755e-13)
(1.10247913492 -0.000627737659896 -4.03883056143e-13)
(1.10294451213 -0.000773267074609 -3.3115071918e-13)
(1.10346914548 -0.000911406375601 -2.82878912167e-13)
(1.1040372654 -0.00103747332297 -2.47980313321e-13)
(1.10463576074 -0.00115475384152 -2.23205735499e-13)
(1.10525375952 -0.00126284194083 -2.00416520541e-13)
(1.10588220478 -0.00136281656462 -1.87634876814e-13)
(1.10651358993 -0.00145515662203 -1.76168715547e-13)
(1.10714169537 -0.00154047382504 -1.65116368602e-13)
(1.1077614993 -0.00161929220741 -1.56216714699e-13)
(1.10837042437 -0.00169211639853 -1.47555990111e-13)
(1.1089692554 -0.00175944861439 -1.48981820957e-13)
(1.10952225788 -0.00182157449919 -1.4974412801e-13)
(1.10971229158 -0.0018769947281 -1.47802653578e-13)
(1.10822501928 -0.00191801815183 -1.42208245226e-13)
(1.10163429764 -0.00192541953635 -1.33468153749e-13)
(1.08386717438 -0.00187026227321 -1.23580537235e-13)
(1.04757769312 -0.00172881654003 -1.20726119675e-13)
(0.987295900084 -0.00150130696182 -1.11306204615e-13)
(0.902165527381 -0.00121631604924 -9.65429903886e-14)
(0.79616810709 -0.000916360248827 -8.34406592883e-14)
(0.676045805171 -0.000639049954264 -7.0565010477e-14)
(0.548794567923 -0.000407513581724 -5.59285011829e-14)
(0.420097987388 -0.000230649321381 -4.16341778114e-14)
(0.293855550817 -0.000107942240033 -2.84384037365e-14)
(0.172370963853 -3.46188873749e-05 -1.62289983955e-14)
(0.0567716518744 -2.11728373699e-06 -5.24192683282e-15)
(1.10533331024 -0.00012221411598 -1.30591173499e-12)
(1.10547579953 -0.000289971884805 -9.39243927529e-13)
(1.10575927725 -0.000447191849908 -5.55342389171e-13)
(1.10614588899 -0.000604902397909 -4.17906496559e-13)
(1.1066111629 -0.000745056711391 -3.37459509437e-13)
(1.10713570352 -0.000878236625592 -2.92370319509e-13)
(1.10770374559 -0.000999667300443 -2.54232015308e-13)
(1.10830218705 -0.0011127152969 -2.30541812422e-13)
(1.10892015968 -0.00121685908361 -2.07322327373e-13)
(1.10954860867 -0.00131321053783 -1.91908602832e-13)
(1.11018002482 -0.00140219633573 -1.82007513642e-13)
(1.11080818743 -0.00148441957217 -1.70578514435e-13)
(1.1114282492 -0.00156038135878 -1.61758216949e-13)
(1.11203826858 -0.00163057546637 -1.5221418261e-13)
(1.11263544443 -0.00169547431455 -1.55018925734e-13)
(1.11314428132 -0.00175512072786 -1.55239299916e-13)
(1.11308136848 -0.00180704852944 -1.51943562056e-13)
(1.11073575251 -0.0018415927639 -1.46503879617e-13)
(1.10213685676 -0.00183792812506 -1.37153022535e-13)
(1.08093669406 -0.00176888185276 -1.26894231443e-13)
(1.04024362778 -0.00161682962398 -1.22113681699e-13)
(0.975711825124 -0.0013885979584 -1.12741976774e-13)
(0.887633724116 -0.00111471900492 -9.7496525025e-14)
(0.780548828997 -0.000834237421889 -8.43499897179e-14)
(0.661084117983 -0.000579253222443 -7.11561111821e-14)
(0.535753179727 -0.000368442734208 -5.59680359843e-14)
(0.409708275297 -0.000208271777413 -4.14965581198e-14)
(0.286434288966 -9.74313038413e-05 -2.82985005669e-14)
(0.167972615303 -3.12549323369e-05 -1.61510127125e-14)
(0.0553143155614 -1.91600280927e-06 -5.21399001195e-15)
(1.1088712122 -0.000118068126628 -1.29855730526e-12)
(1.1090137861 -0.000280113204342 -9.6541134591e-13)
(1.10929722389 -0.000431963036526 -5.76516978396e-13)
(1.10968377937 -0.000584360115787 -4.31437584335e-13)
(1.11014898873 -0.00071969102394 -3.52107573367e-13)
(1.11067347882 -0.00084840123821 -3.01518281865e-13)
(1.1112414873 -0.00096566394709 -2.62988395521e-13)
(1.11183991997 -0.00107490103296 -2.37610619237e-13)
(1.11245791122 -0.00117549378023 -2.13998068519e-13)
(1.11308640747 -0.00126858298691 -1.98665235333e-13)
(1.11371789577 -0.0013545469711 -1.87648986568e-13)
(1.11434617103 -0.00143398274079 -1.7591686479e-13)
(1.11496664065 -0.00150737067452 -1.66992280028e-13)
(1.1155776704 -0.00157519484581 -1.58935518731e-13)
(1.11616856927 -0.00163787557771 -1.59978107205e-13)
(1.11660656965 -0.00169512023433 -1.5806985633e-13)
(1.11620779661 -0.00174336588312 -1.55898803501e-13)
(1.11284771615 -0.00177111022812 -1.49736318395e-13)
(1.10208019701 -0.00175664568225 -1.40598527285e-13)
(1.07744377655 -0.00167536198205 -1.29382247397e-13)
(1.03262566132 -0.00151543847467 -1.24172321488e-13)
(0.964348210542 -0.00128873229931 -1.13999962577e-13)
(0.873847136359 -0.00102631861028 -9.82728173482e-14)
(0.766032610737 -0.000763693872311 -8.454907566e-14)
(0.647350914993 -0.000528310692115 -7.09181045512e-14)
(0.523867577285 -0.000335319719617 -5.58702921542e-14)
(0.400274433322 -0.00018934739759 -4.14141661429e-14)
(0.279706563613 -8.8546033242e-05 -2.82278110287e-14)
(0.163986914259 -2.84061622124e-05 -1.61142576082e-14)
(0.0539934630982 -1.74294914204e-06 -5.19931452021e-15)
(1.11229233983 -0.000114302712322 -1.29015857884e-12)
(1.11243499952 -0.000271152002208 -9.8974087814e-13)
(1.11271841616 -0.000418132661972 -5.92960266169e-13)
(1.11310493928 -0.000565691586212 -4.44411938112e-13)
(1.11357011319 -0.000696649631358 -3.62127031016e-13)
(1.11409458426 -0.000821291807142 -3.10314728722e-13)
(1.11466259217 -0.000934771656332 -2.71660021909e-13)
(1.11526104959 -0.00104054453323 -2.44438398287e-13)
(1.11587909261 -0.00113791119989 -2.20440580829e-13)
(1.11650766805 -0.00122803655918 -2.05646399007e-13)
(1.11713925961 -0.00131125464664 -1.93118286238e-13)
(1.11776770287 -0.00138815804476 -1.81088057098e-13)
(1.1183887139 -0.0014592083206 -1.72031989691e-13)
(1.11900023142 -0.00152487833014 -1.63477591492e-13)
(1.11957784087 -0.00158550587255 -1.63799233395e-13)
(1.11991220625 -0.00164036810817 -1.62756806243e-13)
(1.11908891669 -0.00168472210041 -1.59822089043e-13)
(1.11456863291 -0.00170545592775 -1.54123733974e-13)
(1.10151180824 -0.00168066209856 -1.43890026367e-13)
(1.07348615749 -0.00158880293117 -1.32653555347e-13)
(1.02483420784 -0.00142332053481 -1.27520095773e-13)
(0.953263787915 -0.00119974803209 -1.15165146071e-13)
(0.86077437793 -0.000948775325068 -9.87935788046e-14)
(0.752507284393 -0.000702482492187 -8.41162500392e-14)
(0.63469033083 -0.000484403751674 -7.04034305556e-14)
(0.51297683446 -0.000306873650782 -5.55706851975e-14)
(0.391657828191 -0.000173116553025 -4.1238761041e-14)
(0.273570578098 -8.09234244601e-05 -2.81206043146e-14)
(0.160353640781 -2.59587742331e-05 -1.60625454977e-14)
(0.0527895213586 -1.5933983748e-06 -5.18101178291e-15)
(1.11560738293 -0.000110863920888 -1.2810212636e-12)
(1.1157501274 -0.000262961342273 -1.01251579028e-12)
(1.11603353563 -0.000405500632036 -6.03330495588e-13)
(1.11642004232 -0.000548630110656 -4.56957210409e-13)
(1.11688520032 -0.000675600670253 -3.72041510889e-13)
(1.11740967334 -0.000796519760462 -3.18755108194e-13)
(1.11797770259 -0.000906546979627 -2.77632065639e-13)
(1.11857620686 -0.00100915277574 -2.51003099033e-13)
(1.11919432334 -0.00110357233274 -2.26532673539e-13)
(1.11982299854 -0.00119098963412 -2.09683579659e-13)
(1.12045471547 -0.00127169865098 -1.98325748299e-13)
(1.12108338195 -0.00134628863796 -1.86094593218e-13)
(1.12170501653 -0.00141520398979 -1.76900532489e-13)
(1.12231588116 -0.00147890178156 -1.68352356673e-13)
(1.12287050429 -0.00153759991901 -1.67359027662e-13)
(1.12306280896 -0.0015900553071 -1.66262253848e-13)
(1.12172342569 -0.00163031221636 -1.63458828112e-13)
(1.11591114542 -0.00164393979532 -1.57592977613e-13)
(1.10048139734 -0.001609434409 -1.46948010028e-13)
(1.06915107322 -0.00150859335999 -1.35374491962e-13)
(1.0169562635 -0.00133946578027 -1.28190375366e-13)
(0.942495139343 -0.00112014702987 -1.16103162824e-13)
(0.848378093845 -0.000880353831068 -9.93793821635e-14)
(0.739874046233 -0.00064898007831 -8.4928009575e-14)
(0.62297277152 -0.000446252021379 -7.1108047778e-14)
(0.502950437595 -0.000282237350363 -5.55269451974e-14)
(0.383747364887 -0.000159081797232 -4.11169673459e-14)
(0.267944897381 -7.43365451404e-05 -2.80285377834e-14)
(0.157024206433 -2.38446573748e-05 -1.60174074259e-14)
(0.0516863975819 -1.46443830381e-06 -5.16567363412e-15)
(1.11882533468 -0.000107710199367 -1.27132693888e-12)
(1.11896816248 -0.000255444016941 -1.03377921642e-12)
(1.11925157263 -0.000393914673972 -6.23085540069e-13)
(1.11963807578 -0.000532972852633 -4.6907300562e-13)
(1.12010323369 -0.000656291528469 -3.8174396801e-13)
(1.12062772554 -0.000773789080604 -3.26894342235e-13)