/*--------------------------------*- C++ -*----------------------------------*\
| =========                 |                                                 |
| \\      /  F ield         | OpenFOAM: The Open Source CFD Toolbox           |
|  \\    /   O peration     | Version:  2206                                  |
|   \\  /    A nd           | Website:  www.openfoam.com                      |
|    \\/     M anipulation  |                                                 |
\*---------------------------------------------------------------------------*/
FoamFile
{
    version     2.0;
    format      ascii;
    arch        "LSB;label=32;scalar=64";
    class       volScalarField;
    location    "1900";
    object      epsilon;
}
// * * * * * * * * * * * * * * * * * * * * * * * * * * * * * * * * * * * * * //

dimensions      [0 2 -3 0 0 0 0];

internalField   nonuniform List<scalar> 
13056
(
0.0071499532
0.0069814917
0.0068842053
0.0068326403
0.0068005484
0.0067779352
0.0067609974
0.0067479085
0.0067375955
0.006729361
0.006722731
0.0067173773
0.0067130733
0.0067096692
0.0067070823
0.0067052925
0.0067043846
0.0067045118
0.0067063171
0.0067101944
0.0067198493
0.0067429785
0.0067437798
0.0083464083
0.029632894
0.0017607887
0.0049519299
0.00035292963
0.001836968
0.00017282812
0.0010419197
0.00010747292
0.00069211177
0.00051986552
0.00049980348
0.00041467512
0.00037802895
0.00033106695
0.00029884049
0.00026858871
0.00024381474
0.00022204557
0.00020323113
0.00018670838
0.00017214623
0.00015922484
0.00014770045
0.00013737073
0.0001280703
0.00011966212
0.0001120314
0.00010508155
9.8730921e-05
9.290992e-05
8.7559161e-05
8.2627627e-05
7.8070991e-05
7.3850741e-05
6.9933367e-05
6.6289503e-05
6.2893301e-05
5.9722075e-05
5.6755781e-05
5.3976486e-05
5.1368222e-05
4.8916769e-05
4.6609395e-05
4.4434642e-05
4.2382187e-05
4.0442806e-05
3.8608151e-05
3.6870561e-05
3.5223097e-05
3.3659479e-05
3.2173962e-05
3.0761309e-05
2.9416713e-05
2.8135786e-05
2.6914577e-05
2.5749362e-05
2.4636679e-05
2.3573404e-05
2.2556631e-05
2.158367e-05
2.0652033e-05
1.9759407e-05
1.8903682e-05
1.80829e-05
1.7295193e-05
1.6538831e-05
1.581222e-05
1.5113862e-05
1.4442368e-05
1.3796425e-05
1.3174817e-05
1.2576437e-05
1.2000212e-05
1.1445124e-05
1.091024e-05
1.039468e-05
9.8976182e-06
9.4182726e-06
8.955913e-06
8.5098744e-06
8.0795052e-06
7.6641873e-06
7.2633511e-06
6.8764565e-06
6.5029847e-06
6.1424571e-06
5.7944281e-06
5.4583376e-06
5.1341504e-06
4.8295788e-06
4.5523387e-06
4.3007647e-06
4.0714845e-06
3.8620043e-06
3.6699764e-06
3.493413e-06
3.330591e-06
3.1800148e-06
3.0403817e-06
2.9105552e-06
2.789532e-06
2.6764122e-06
2.5703887e-06
2.4707115e-06
2.3767082e-06
2.2876326e-06
2.2029599e-06
2.1214233e-06
2.0435165e-06
1.9634732e-06
1.8956055e-06
1.7961866e-06
0.0071487922
0.0069802428
0.0068829007
0.0068313045
0.0067991927
0.0067765651
0.0067596163
0.0067465186
0.0067361983
0.0067279574
0.0067213218
0.0067159627
0.0067116533
0.0067082434
0.0067056498
0.006703852
0.0067029335
0.0067030469
0.0067048303
0.006708679
0.0067182678
0.0067413271
0.0067417138
0.0083441495
0.029053208
0.0017449469
0.0048615161
0.00034946697
0.0018077129
0.00017120095
0.0010266311
0.00010652733
0.00068257273
0.0005131012
0.00049327689
0.00040943702
0.00037331053
0.00032702965
0.00029525352
0.00026542335
0.000240987
0.00021951113
0.00020094605
0.00018463948
0.00017026524
0.00015750849
0.00014612915
0.00013592789
0.00012674178
0.00011843578
0.00011089677
0.00010402955
9.7753632e-05
9.2000406e-05
8.6711318e-05
8.183606e-05
7.7330918e-05
7.3157903e-05
6.9283964e-05
6.5680127e-05
6.2320891e-05
5.9183871e-05
5.6249289e-05
5.3499445e-05
5.0918581e-05
4.8492661e-05
4.6209115e-05
4.4056633e-05
4.2025023e-05
4.0105176e-05
3.8288849e-05
3.6568477e-05
3.4937207e-05
3.3388835e-05
3.1917686e-05
3.0518589e-05
2.9186793e-05
2.7917964e-05
2.67082e-05
2.555382e-05
2.4451402e-05
2.3397859e-05
2.239032e-05
2.1426128e-05
2.0502822e-05
1.9618116e-05
1.8769924e-05
1.7956311e-05
1.7175431e-05
1.6425572e-05
1.5705159e-05
1.5012712e-05
1.4346855e-05
1.3706291e-05
1.3089818e-05
1.2496341e-05
1.1924798e-05
1.1374182e-05
1.0843573e-05
1.0332097e-05
9.8389389e-06
9.363325e-06
8.904533e-06
8.4619049e-06
8.034796e-06
7.6225948e-06
7.2247376e-06
6.8406902e-06
6.469939e-06
6.1120107e-06
5.7664642e-06
5.432745e-06
5.110819e-06
4.808345e-06
4.5329905e-06
4.2831093e-06
4.055356e-06
3.8472569e-06
3.6564828e-06
3.4810609e-06
3.3192818e-06
3.1696608e-06
3.0309055e-06
2.9018877e-06
2.7816115e-06
2.6691836e-06
2.5638028e-06
2.4647246e-06
2.3712812e-06
2.2827314e-06
2.1985539e-06
2.1174889e-06
2.0400314e-06
1.960429e-06
1.8929409e-06
1.7940782e-06
0.0071451091
0.0069762843
0.0068787691
0.0068270766
0.0067949034
0.0067722319
0.0067552497
0.0067421256
0.0067317838
0.0067235251
0.0067168741
0.0067115015
0.0067071796
0.0067037575
0.0067011513
0.0066993397
0.0066984047
0.0066984975
0.0067002505
0.0067040601
0.006713559
0.0067365317
0.006736326
0.0083372236
0.028477666
0.0017291051
0.004770663
0.00034596763
0.0017782283
0.00016955301
0.0010112002
0.00010556864
0.00067293665
0.00050626269
0.00048667981
0.00040414004
0.00036853872
0.00032294551
0.00029162449
0.00026222026
0.00023812516
0.00021694573
0.00019863276
0.00018254476
0.00016836056
0.00015577034
0.00014453772
0.00013446642
0.00012539597
0.00011719336
0.00010974716
0.00010296357
9.6763269e-05
9.1078647e-05
8.5851988e-05
8.1033704e-05
7.6580696e-05
7.245551e-05
6.8625551e-05
6.5062248e-05
6.1740448e-05
5.8638072e-05
5.5735608e-05
5.3015596e-05
5.0462486e-05
4.806243e-05
4.5803024e-05
4.3673106e-05
4.1662615e-05
3.976256e-05
3.7964805e-05
3.626188e-05
3.464702e-05
3.3114098e-05
3.1657512e-05
3.0272154e-05
2.8953332e-05
2.7696766e-05
2.6498602e-05
2.5355205e-05
2.4263193e-05
2.3219517e-05
2.2221342e-05
2.1266039e-05
2.0351181e-05
1.9474506e-05
1.8633954e-05
1.7827611e-05
1.7053654e-05
1.6310392e-05
1.5596266e-05
1.4909814e-05
1.4249675e-05
1.361457e-05
1.3003306e-05
1.2414803e-05
1.1848012e-05
1.1301935e-05
1.0775664e-05
1.0268334e-05
9.7791383e-06
9.3073129e-06
8.852143e-06
8.4129778e-06
7.9891797e-06
7.5801438e-06
7.1853126e-06
6.8041575e-06
6.4361705e-06
6.0808834e-06
5.7378596e-06
5.4065505e-06
5.0869233e-06
4.7865821e-06
4.5131452e-06
4.2649856e-06
4.0387857e-06
3.8320917e-06
3.6425932e-06
3.4683331e-06
3.3076153e-06
3.1589669e-06
3.0211052e-06
2.8929108e-06
2.7733954e-06
2.6616723e-06
2.5569463e-06
2.4584783e-06
2.3656054e-06
2.2775915e-06
2.1939188e-06
2.113335e-06
2.0363354e-06
1.9571847e-06
1.8900842e-06
1.7917895e-06
0.0071387881
0.0069694913
0.0068716801
0.006819823
0.006787545
0.0067647986
0.0067477593
0.0067345905
0.0067242126
0.0067159242
0.0067092481
0.0067038537
0.0066995122
0.0066960719
0.0066934478
0.0066916176
0.0066906616
0.0066907294
0.0066924467
0.0066962119
0.0067056083
0.0067284914
0.0067275809
0.0083255748
0.027898558
0.0017130476
0.0046781377
0.00034238277
0.0017481094
0.00016786115
0.0009954138
0.00010458315
0.00066306977
0.0004992544
0.00047992033
0.00039871007
0.00036364681
0.00031875731
0.00028790249
0.00025893445
0.00023518898
0.00021431327
0.00019625868
0.00018039469
0.00016640529
0.00015398582
0.00014290363
0.00013296561
0.00012401378
0.00011591723
0.00010856624
0.00010186843
9.5745722e-05
9.0131494e-05
8.49689e-05
8.0209085e-05
7.5809585e-05
7.173349e-05
6.7948677e-05
6.4426983e-05
6.1143615e-05
5.8076806e-05
5.520732e-05
5.251794e-05
4.999333e-05
4.7619834e-05
4.5385219e-05
4.3278474e-05
4.1289674e-05
3.9409949e-05
3.7631271e-05
3.5946269e-05
3.4348266e-05
3.2831218e-05
3.1389593e-05
3.0018351e-05
2.871286e-05
2.7468895e-05
2.6282652e-05
2.5150543e-05
2.4069226e-05
2.3035692e-05
2.204714e-05
2.1100976e-05
2.0194801e-05
1.9326383e-05
1.8493685e-05
1.7694818e-05
1.692798e-05
1.6191501e-05
1.5483841e-05
1.4803555e-05
1.4149298e-05
1.3519806e-05
1.2913902e-05
1.2330518e-05
1.1768615e-05
1.1227209e-05
1.0705402e-05
1.0202339e-05
9.7172224e-06
9.249297e-06
8.7978563e-06
8.362257e-06
7.9418685e-06
7.5360929e-06
7.1443789e-06
6.7662036e-06
6.401065e-06
6.0485e-06
5.7080768e-06
5.3792526e-06
5.0619958e-06
4.7638546e-06
4.4923962e-06
4.2460132e-06
4.0214165e-06
3.816173e-06
3.6279915e-06
3.4549312e-06
3.2953097e-06
3.1476659e-06
3.0107275e-06
2.8833841e-06
2.7646551e-06
2.6536606e-06
2.5496117e-06
2.451775e-06
2.3594923e-06
2.2720331e-06
2.1888829e-06
2.1087973e-06
2.0322719e-06
1.9535906e-06
1.8868922e-06
1.7891865e-06
0.0071296474
0.0069596686
0.0068614293
0.0068093344
0.006776905
0.0067540503
0.006736929
0.0067236956
0.006713266
0.006704935
0.0066982232
0.0066927981
0.0066884296
0.0066849646
0.0066823169
0.0066804629
0.0066794809
0.0066795188
0.0066811948
0.0066849098
0.00669419
0.0067169801
0.0067152426
0.0083088924
0.027308879
0.0016965727
0.0045827602
0.00033866441
0.0017169634
0.00016610244
0.0009790634
0.00010355719
0.00065284078
0.0004919822
0.00047290794
0.00039307403
0.00035856896
0.00031440846
0.00028403722
0.00025552139
0.00023213861
0.00021157796
0.00019379145
0.00017815994
0.00016437273
0.00015213049
0.0001412045
0.00013140486
0.00012257622
0.00011458982
0.00010733772
0.00010072903
9.4686923e-05
8.9145833e-05
8.4049806e-05
7.935075e-05
7.5006858e-05
7.0981783e-05
6.7243893e-05
6.3765451e-05
6.0522034e-05
5.7492202e-05
5.4657001e-05
5.1999468e-05
4.9504493e-05
4.7158615e-05
4.4949781e-05
4.2867137e-05
4.0900897e-05
3.9042317e-05
3.7283481e-05
3.5617123e-05
3.4036658e-05
3.2536122e-05
3.1110063e-05
2.9753508e-05
2.8461888e-05
2.7231037e-05
2.60572e-05
2.4936837e-05
2.3866651e-05
2.2843673e-05
2.1865138e-05
2.0928488e-05
2.0031353e-05
1.9171531e-05
1.8347011e-05
1.7555929e-05
1.6796505e-05
1.6067089e-05
1.5366164e-05
1.46923e-05
1.4044172e-05
1.3420528e-05
1.2820208e-05
1.2242157e-05
1.1685348e-05
1.1148811e-05
1.0631657e-05
1.0133042e-05
9.6521788e-06
9.1883203e-06
8.740769e-06
8.3088892e-06
7.8920577e-06
7.4896839e-06
7.1012228e-06
6.726158e-06
6.363993e-06
6.0142704e-06
5.6765633e-06
5.3503349e-06
5.035555e-06
4.7397131e-06
4.4703232e-06
4.2257981e-06
4.0028783e-06
3.7991523e-06
3.6123491e-06
3.4405445e-06
3.2820708e-06
3.135479e-06
2.9995078e-06
2.873056e-06
2.755151e-06
2.6449202e-06
2.5415813e-06
2.4444065e-06
2.352743e-06
2.2658657e-06
2.183264e-06
2.1037016e-06
2.0276739e-06
1.9494878e-06
1.8832121e-06
1.7861258e-06
0.0071174416
0.0069465518
0.0068477403
0.0067953277
0.0067626959
0.0067396967
0.0067224656
0.0067091463
0.0066986476
0.0066902601
0.0066835011
0.0066780357
0.0066736319
0.0066701351
0.0066674575
0.0066655741
0.0066645606
0.0066645634
0.0066661918
0.0066698501
0.0066789994
0.0067016926
0.0066989944
0.008286759
0.026702267
0.0016794909
0.0044833954
0.00033476498
0.0016844059
0.00016425389
0.00096194359
0.000102477
0.00064211968
0.00048435257
0.00046555269
0.00038715912
0.00035323954
0.00030984253
0.00027997839
0.00025193656
0.00022893419
0.00020870395
0.00019119869
0.00017581109
0.00016223606
0.00015017986
0.00013941783
0.00012976347
0.00012106419
0.00011319345
0.00010604521
9.9530137e-05
9.3572698e-05
8.8108445e-05
8.3082359e-05
7.8447145e-05
7.4161687e-05
7.0190232e-05
6.6501659e-05
6.3068677e-05
5.9867257e-05
5.6876294e-05
5.4077138e-05
5.145309e-05
4.8989274e-05
4.6672439e-05
4.4490716e-05
4.2433416e-05
4.0490904e-05
3.8654564e-05
3.6916601e-05
3.5269855e-05
3.3707838e-05
3.2224675e-05
3.0814993e-05
2.9473892e-05
2.8196868e-05
2.6979816e-05
2.5819035e-05
2.4711035e-05
2.3652565e-05
2.2640698e-05
2.1672709e-05
2.0746074e-05
1.9858458e-05
1.9007686e-05
1.8191778e-05
1.7408894e-05
1.6657278e-05
1.5935304e-05
1.5241472e-05
1.4574374e-05
1.3932702e-05
1.3315222e-05
1.2720786e-05
1.2148356e-05
1.1596918e-05
1.1065513e-05
1.0553265e-05
1.0059341e-05
9.5829631e-06
9.1233944e-06
8.6799463e-06
8.2519911e-06
7.8389136e-06
7.4401305e-06
7.0551038e-06
6.6833234e-06
6.3242993e-06
5.9775794e-06
5.6427424e-06
5.3192577e-06
5.0070965e-06
4.7136865e-06
4.4464849e-06
4.203926e-06
3.9827812e-06
3.780662e-06
3.5953186e-06
3.4248443e-06
3.2675867e-06
3.12211e-06
2.9871642e-06
2.8616578e-06
2.7446269e-06
2.6352066e-06
2.5326212e-06
2.4361492e-06
2.3451432e-06
2.2588842e-06
2.1768653e-06
2.0978594e-06
2.0223609e-06
1.944703e-06
1.8788776e-06
1.7824509e-06
0.0071018629
0.0069298097
0.0068302668
0.0067774477
0.0067445573
0.0067213732
0.006704002
0.0066905729
0.0066799862
0.0066715267
0.0066647077
0.0066591912
0.0066547431
0.0066512065
0.0066484921
0.0066465729
0.0066455221
0.0066454838
0.006647058
0.0066506525
0.0066596544
0.0066822467
0.0066784402
0.0082586548
0.026072981
0.0016616243
0.0043789495
0.00033063694
0.0016500598
0.00016229234
0.00094385088
0.00010132862
0.00063077702
0.00047627202
0.00045776468
0.00038089243
0.00034759276
0.00030500281
0.00027567549
0.00024813516
0.00022553553
0.00020565511
0.0001884477
0.00017331844
0.00015996821
0.00014810912
0.00013752085
0.00012802049
0.00011945833
0.00011171022
0.0001046721
9.8256294e-05
9.2388653e-05
8.7005898e-05
8.2054002e-05
7.7486517e-05
7.3263056e-05
6.9348495e-05
6.5712254e-05
6.2327517e-05
5.9170667e-05
5.6220963e-05
5.3460068e-05
5.0871566e-05
4.8440829e-05
4.6154828e-05
4.4001892e-05
4.1971506e-05
4.0054191e-05
3.8241472e-05
3.6525676e-05
3.4899761e-05
3.3357341e-05
3.1892634e-05
3.0500351e-05
2.9175668e-05
2.7914153e-05
2.6711764e-05
2.5564859e-05
2.4469998e-05
2.3423979e-05
2.2423923e-05
2.1467144e-05
2.0551157e-05
1.967366e-05
1.8832513e-05
1.8025762e-05
1.7251596e-05
1.6508285e-05
1.5794226e-05
1.5107941e-05
1.4448042e-05
1.381324e-05
1.3202318e-05
1.2614146e-05
1.2047698e-05
1.1501978e-05
1.0976038e-05
1.0469014e-05
9.9800853e-06
9.5084856e-06
9.0534872e-06
8.6144114e-06
8.190639e-06
7.7815631e-06
7.3866084e-06
7.0052443e-06
6.6369674e-06
6.2812942e-06
5.9377789e-06
5.6060057e-06
5.2854507e-06
4.9760866e-06
4.685275e-06
4.4204127e-06
4.179956e-06
3.9607097e-06
3.7603095e-06
3.5765282e-06
3.4074779e-06
3.2515225e-06
3.1072402e-06
2.9733929e-06
2.8488998e-06
2.7328061e-06
2.6242548e-06
2.5224777e-06
2.42676e-06
2.3364598e-06
2.2508646e-06
2.1694719e-06
2.091064e-06
2.0161341e-06
1.939046e-06
1.8737053e-06
1.7779886e-06
0.0070825432
0.006909046
0.006808594
0.0067552696
0.0067220575
0.0066986437
0.0066810983
0.0066675328
0.0066568367
0.0066482879
0.0066413946
0.0066358152
0.0066313126
0.0066277275
0.0066249685
0.0066230065
0.0066219117
0.0066218259
0.0066233382
0.0066268611
0.0066356977
0.0066581849
0.0066531068
0.0082239631
0.025415917
0.0016428075
0.0042683723
0.00032623261
0.0016135547
0.00016019426
0.00092458333
0.00010009778
0.0006186835
0.00046764675
0.00044945365
0.00037420055
0.00034156231
0.00029983212
0.00027107747
0.00024407188
0.00022190198
0.00020239481
0.00018550532
0.00017065184
0.00015754164
0.00014589306
0.0001354904
0.00012615455
0.0001177389
0.00011012184
0.00010320142
9.6891724e-05
9.112008e-05
8.582446e-05
8.0951894e-05
7.645684e-05
7.2299685e-05
6.8445977e-05
6.4865716e-05
6.1532592e-05
5.8423428e-05
5.5517869e-05
5.2797916e-05
5.0247454e-05
4.7852122e-05
4.5599124e-05
4.3477003e-05
4.1475429e-05
3.958509e-05
3.7797659e-05
3.6105601e-05
3.4501992e-05
3.2980559e-05
3.1535618e-05
3.016197e-05
2.8854874e-05
2.7609973e-05
2.6423293e-05
2.5291254e-05
2.4210473e-05
2.3177797e-05
2.2190398e-05
2.1245635e-05
2.0341061e-05
1.9474412e-05
1.8643583e-05
1.7846651e-05
1.7081834e-05
1.634743e-05
1.5641859e-05
1.4963669e-05
1.4311493e-05
1.3684062e-05
1.3080177e-05
1.2498727e-05
1.1938701e-05
1.1399118e-05
1.0879045e-05
1.0377631e-05
9.8940684e-06
9.4276012e-06
8.9775131e-06
8.5431356e-06
8.1238589e-06
7.7190849e-06
7.3282469e-06
6.9508218e-06
6.5863139e-06
6.2342466e-06
5.8941806e-06
5.565706e-06
5.2483063e-06
4.9419557e-06
4.6539447e-06
4.3916045e-06
4.1534152e-06
3.9362171e-06
3.737672e-06
3.5555771e-06
3.3880646e-06
3.2335159e-06
3.0905242e-06
2.9578644e-06
2.834467e-06
2.7193868e-06
2.6117759e-06
2.5108737e-06
2.4159725e-06
2.3264368e-06
2.2415609e-06
2.160847e-06
2.0830875e-06
2.0087743e-06
1.9323061e-06
1.8674919e-06
1.7725463e-06
0.0070590557
0.006883801
0.0067822407
0.0067282999
0.0066946956
0.0066710015
0.0066532437
0.0066395119
0.0066286826
0.0066200251
0.0066130415
0.0066073857
0.0066028171
0.0065991737
0.0065963615
0.0065943488
0.0065932026
0.006593062
0.0065945041
0.0065979468
0.0066065984
0.0066289761
0.0066224448
0.0081819758
0.024726651
0.0016228887
0.0041506642
0.00032150409
0.0015745279
0.00015793577
0.00090394088
9.8769847e-05
0.00060571006
0.00045838267
0.00044052903
0.0003670096
0.0003350814
0.00029427267
0.00026613269
0.00023970081
0.0002179923
0.00019888586
0.00018233783
0.00016778061
0.00015492832
0.00014350598
0.00013330283
0.00012414386
0.00011588575
0.00010840963
0.00010161581
9.5420266e-05
8.9751908e-05
8.455005e-05
7.976286e-05
7.5345762e-05
7.1259982e-05
6.7471786e-05
6.3951798e-05
6.0674249e-05
5.7616438e-05
5.4758422e-05
5.2082568e-05
4.9573083e-05
4.7215891e-05
4.499845e-05
4.2909531e-05
4.0939004e-05
3.9077736e-05
3.7317561e-05
3.5651088e-05
3.4071524e-05
3.2572715e-05
3.1149084e-05
2.9795528e-05
2.8507396e-05
2.7280411e-05
2.6110675e-05
2.4994671e-05
2.3929076e-05
2.2910795e-05
2.1937052e-05
2.1005253e-05
2.0112995e-05
1.9258054e-05
1.8438361e-05
1.7652028e-05
1.6897304e-05
1.6172515e-05
1.5476112e-05
1.4806664e-05
1.4162829e-05
1.354336e-05
1.2947078e-05
1.2372891e-05
1.1819805e-05
1.1286855e-05
1.0773125e-05
1.0277777e-05
9.8000165e-06
9.3391005e-06
8.8943245e-06
8.4650308e-06
8.0506195e-06
7.6505022e-06
7.2641214e-06
6.8909624e-06
6.5305374e-06
6.1823774e-06
5.8460501e-06
5.5211521e-06
5.2071746e-06
4.9040934e-06
4.6191222e-06
4.3595207e-06
4.1237943e-06
3.9088218e-06
3.7122932e-06
3.5320318e-06
3.366192e-06
3.2131737e-06
3.0715866e-06
2.9402198e-06
2.8180156e-06
2.7040398e-06
2.5974537e-06
2.4975054e-06
2.4034947e-06
2.3147932e-06
2.2307023e-06
2.1507294e-06
2.0736785e-06
2.0000389e-06
1.9242499e-06
1.8600117e-06
1.7659098e-06
0.0070309163
0.0068535534
0.0067506607
0.0066959785
0.0066619024
0.0066378713
0.006619858
0.0066059262
0.0065949369
0.0065861488
0.0065790569
0.0065733096
0.0065686622
0.0065649494
0.0065620741
0.006560002
0.006558796
0.0065585924
0.0065599551
0.0065633082
0.0065717529
0.006594017
0.0065858302
0.0081318993
0.024001519
0.0016017325
0.0040248906
0.00031640328
0.0015326284
0.00015549255
0.0008817266
9.7329841e-05
0.00059172849
0.0004483857
0.00043090019
0.00035924537
0.00032808282
0.00028826621
0.00026078904
0.00023497555
0.0002137647
0.00019509054
0.00017891099
0.00016467353
0.0001520997
0.00014092168
0.00013093404
0.00012196615
0.00011387828
0.00010655448
9.9897502e-05
9.3825362e-05
8.8268682e-05
8.316822e-05
7.8473367e-05
7.4140595e-05
7.0132031e-05
6.6414717e-05
6.2959949e-05
5.9742544e-05
5.6740313e-05
5.3933761e-05
5.1305647e-05
4.8840526e-05
4.6524631e-05
4.4345696e-05
4.2292734e-05
4.0355834e-05
3.8526057e-05
3.6795409e-05
3.5156654e-05
3.3603144e-05
3.212885e-05
3.0728313e-05
2.9396535e-05
2.8128957e-05
2.6921394e-05
2.5770026e-05
2.4671409e-05
2.3622281e-05
2.261961e-05
2.1660678e-05
2.0742941e-05
1.9864043e-05
1.9021804e-05
1.8214195e-05
1.7439364e-05
1.6695593e-05
1.5981242e-05
1.5294789e-05
1.4634833e-05
1.4000056e-05
1.3389233e-05
1.280121e-05
1.2234912e-05
1.1689367e-05
1.1163626e-05
1.0656789e-05
1.0168035e-05
9.6965831e-06
9.241704e-06
8.8027058e-06
8.3789428e-06
7.9698259e-06
7.5747771e-06
7.1932488e-06
6.8247355e-06
6.4687579e-06
6.1248552e-06
5.7926028e-06
5.4716041e-06
5.1613589e-06
4.8618448e-06
4.5801915e-06
4.3235805e-06
4.0905445e-06
3.8780039e-06
3.6836794e-06
3.505423e-06
3.3414126e-06
3.190069e-06
3.0500195e-06
2.9200683e-06
2.7991712e-06
2.6864054e-06
2.5809427e-06
2.4820403e-06
2.3890065e-06
2.3012203e-06
2.2179912e-06
2.1388321e-06
2.0625595e-06
1.9896602e-06
1.9146195e-06
1.851015e-06
1.7578415e-06
0.0069975852
0.0068177216
0.0067132445
0.0066576799
0.0066230423
0.0065986102
0.006580293
0.0065661232
0.0065549436
0.0065460003
0.0065387796
0.0065329238
0.0065281831
0.0065243884
0.0065214391
0.0065192976
0.0065180225
0.006517747
0.0065190199
0.0065222728
0.0065304868
0.0065526329
0.0065425656
0.0080728609
0.023237721
0.0015792238
0.0038902021
0.00031088218
0.0014875212
0.00015283998
0.00085774899
9.5762415e-05
0.00057661264
0.00043756254
0.00042047722
0.00035083392
0.00032049946
0.00028175441
0.00025499419
0.0002298494
0.00020917711
0.00019097078
0.0001751902
0.00016129903
0.00014902684
0.00013811357
0.0001283595
0.00011959878
0.00011169549
0.00010453689
9.802835e-05
9.2090098e-05
8.66546e-05
8.1664182e-05
7.7069557e-05
7.2828331e-05
6.8903605e-05
6.5263263e-05
6.1879327e-05
5.872725e-05
5.5785399e-05
5.303476e-05
5.045852e-05
4.8041611e-05
4.57706e-05
4.3633518e-05
4.1619646e-05
3.9719306e-05
3.792377e-05
3.622523e-05
3.4616622e-05
3.3091449e-05
3.1643823e-05
3.0268409e-05
2.8960323e-05
2.7715112e-05
2.6528684e-05
2.5397308e-05
2.4317615e-05
2.3286414e-05
2.2300738e-05
2.1357931e-05
2.0455507e-05
1.9591161e-05
1.8762757e-05
1.7968311e-05
1.720601e-05
1.6474175e-05
1.5771198e-05
1.5095591e-05
1.4445982e-05
1.3821079e-05
1.3219685e-05
1.2640667e-05
1.2082976e-05
1.1545657e-05
1.1027781e-05
1.0528467e-05
1.004691e-05
9.5823452e-06
9.134058e-06
8.7013701e-06
8.2836489e-06
7.880317e-06
7.4908077e-06
7.1145843e-06
6.7511511e-06
6.400038e-06
6.0607935e-06
5.7330009e-06
5.4162714e-06
5.1101139e-06
4.814508e-06
4.5364915e-06
4.2831598e-06
4.0530751e-06
3.8432032e-06
3.6512982e-06
3.4752435e-06
3.313243e-06
3.1637397e-06
3.0253802e-06
2.8969858e-06
2.7775266e-06
2.6660924e-06
2.5618664e-06
2.4641158e-06
2.3721583e-06
2.2853807e-06
2.2031017e-06
2.1248402e-06
2.0494266e-06
1.977344e-06
1.9031311e-06
1.840227e-06
1.7480794e-06
0.0069584682
0.0067756655
0.0066693205
0.0066127149
0.0065774147
0.0065525094
0.0065338336
0.0065193832
0.006507979
0.0064988527
0.0064914804
0.0064854968
0.0064806466
0.006476756
0.0064737202
0.0064714982
0.0064701436
0.006469786
0.0064709576
0.0064740988
0.0064820558
0.0065040799
0.0064918817
0.0080039162
0.022433441
0.0015552729
0.0037458629
0.00030489328
0.0014388955
0.00014995323
0.00083182541
9.4051953e-05
0.00056024037
0.00042582194
0.000409172
0.00034170236
0.00031226505
0.00027467946
0.00024869617
0.00022427586
0.00020418749
0.00018648849
0.00017114075
0.00015762537
0.00014568065
0.00013505486
0.00012555451
0.00011701885
0.00010931616
0.00010233712
9.5989963e-05
9.01973e-05
8.4893604e-05
8.0022891e-05
7.5537316e-05
7.1395708e-05
6.7562229e-05
6.4005673e-05
6.0698852e-05
5.7617908e-05
5.4741809e-05
5.2052069e-05
4.9532335e-05
4.716795e-05
4.4945844e-05
4.2854371e-05
4.0883101e-05
3.9022612e-05
3.7264401e-05
3.5600869e-05
3.402513e-05
3.253086e-05
3.1112318e-05
2.9764307e-05
2.8482068e-05
2.7261258e-05
2.6097892e-05
2.4988331e-05
2.3929293e-05
2.2917659e-05
2.1950535e-05
2.1025335e-05
2.0139632e-05
1.9291176e-05
1.8477883e-05
1.7697816e-05
1.6949206e-05
1.6230412e-05
1.5539865e-05
1.4876112e-05
1.4237813e-05
1.3623706e-05
1.3032621e-05
1.2463454e-05
1.1915176e-05
1.1386856e-05
1.0877586e-05
1.0386506e-05
9.9128272e-06
9.4558029e-06
9.0147345e-06
8.5889587e-06
8.1778569e-06
7.7808645e-06
7.3974274e-06
7.0270204e-06
6.6691587e-06
6.3233823e-06
5.9892496e-06
5.6663527e-06
5.3543114e-06
5.0526442e-06
4.7613331e-06
4.4873148e-06
4.2375902e-06
4.0107527e-06
3.8038182e-06
3.6145775e-06
3.4409479e-06
3.2811619e-06
3.133687e-06
2.9971912e-06
2.870514e-06
2.7526414e-06
2.6426771e-06
2.5398167e-06
2.4433385e-06
2.3525702e-06
2.2669077e-06
2.1856794e-06
2.1084108e-06
2.0339479e-06
1.9627695e-06
1.8894747e-06
1.8273469e-06
1.7363364e-06
0.006912919
0.0067266887
0.0066181574
0.0065603321
0.0065242557
0.0064987961
0.0064797002
0.0064649211
0.0064532538
0.0064439133
0.0064363636
0.0064302307
0.0064252526
0.0064212501
0.0064181141
0.0064157991
0.0064143533
0.0064139022
0.0064149599
0.0064179767
0.0064256478
0.0064475461
0.0064329392
0.0079240577
0.021587979
0.0015298217
0.0035912874
0.0002983902
0.001386475
0.00014680761
0.00080378701
9.2182692e-05
0.00054249628
0.00041307654
0.00039690006
0.0003317803
0.00030331535
0.00026698504
0.00024184419
0.00021820932
0.00019875454
0.00018160612
0.00016672835
0.00015362114
0.00014203223
0.00013171891
0.0001224944
0.00011420352
0.00010671905
9.9935395e-05
9.3763886e-05
8.8129718e-05
8.2969535e-05
7.8229194e-05
7.3862407e-05
6.9829336e-05
6.609529e-05
6.2630053e-05
5.9407295e-05
5.6403906e-05
5.3599507e-05
5.0976184e-05
4.8518086e-05
4.6211002e-05
4.4042257e-05
4.2000555e-05
4.0075782e-05
3.8258792e-05
3.6541332e-05
3.4916021e-05
3.3376178e-05
3.1915657e-05
3.0528883e-05
2.9210809e-05
2.7956808e-05
2.6762661e-05
2.5624498e-05
2.4538783e-05
2.3502324e-05
2.2512081e-05
2.1565242e-05
2.0659297e-05
1.9791882e-05
1.8960808e-05
1.8164047e-05
1.7399713e-05
1.6666084e-05
1.5961564e-05
1.5284625e-05
1.463385e-05
1.4007935e-05
1.3405653e-05
1.2825861e-05
1.2267484e-05
1.1729521e-05
1.1211065e-05
1.0711229e-05
1.0229176e-05
9.7641368e-06
9.3153835e-06
8.8822349e-06
8.4640441e-06
8.060208e-06
7.6701758e-06
7.293407e-06
6.9293892e-06
6.5776494e-06
6.2377389e-06
5.9092264e-06
5.5917141e-06
5.2848307e-06
4.9881056e-06
4.7015233e-06
4.4319093e-06
4.1861597e-06
3.9629022e-06
3.7592072e-06
3.5729057e-06
3.4019525e-06
3.2446113e-06
3.0993768e-06
2.9649399e-06
2.8401606e-06
2.7240422e-06
2.6157036e-06
2.514354e-06
2.4192841e-06
2.3298326e-06
2.2454052e-06
2.165341e-06
2.0891731e-06
2.0157645e-06
1.9455889e-06
1.8733143e-06
1.8120484e-06
1.7223006e-06
0.0068602417
0.0066700417
0.0065589672
0.0064997217
0.0064627414
0.0064366363
0.0064170512
0.0064018893
0.0063899158
0.006380326
0.0063725699
0.0063662634
0.0063611367
0.0063570047
0.0063537528
0.0063513308
0.0063497807
0.0063492237
0.0063501533
0.0063530317
0.0063603855
0.0063821544
0.0063648325
0.0078322255
0.020701882
0.001502852
0.0034260849
0.00029132855
0.0013300311
0.00014337886
0.00077348514
9.013893e-05
0.00052327556
0.00039924536
0.0003835829
0.00032100163
0.00029358976
0.0002586177
0.00023438981
0.00021160611
0.00019283851
0.00017628741
0.00016191979
0.00014925579
0.00013805341
0.00012807967
0.00011915506
0.00011113037
0.00010388328
9.7312231e-05
9.13319e-05
8.5870286e-05
8.0866386e-05
7.6268051e-05
7.2030683e-05
6.8115886e-05
6.4490217e-05
6.1124533e-05
5.7993434e-05
5.5074624e-05
5.2348434e-05
4.9797571e-05
4.7406727e-05
4.5162178e-05
4.3051677e-05
4.106431e-05
3.9190306e-05
3.742082e-05
3.5747867e-05
3.416431e-05
3.2663682e-05
3.1240038e-05
2.9887983e-05
2.8602629e-05
2.7379496e-05
2.6214501e-05
2.5103897e-05
2.4044261e-05
2.3032499e-05
2.2065659e-05
2.1141013e-05
2.0256137e-05
1.9408738e-05
1.8596691e-05
1.7818029e-05
1.7070922e-05
1.63537e-05
1.5664813e-05
1.500278e-05
1.4366226e-05
1.3753883e-05
1.3164559e-05
1.2597148e-05
1.2050602e-05
1.1523951e-05
1.1016313e-05
1.0526828e-05
1.005468e-05
9.5991239e-06
9.1594506e-06
8.7349983e-06
8.3251383e-06
7.9292841e-06
7.5469004e-06
7.1774613e-06
6.8204684e-06
6.4754616e-06
6.1420044e-06
5.819677e-06
5.5080925e-06
5.2068893e-06
4.9156088e-06
4.6342381e-06
4.3694802e-06
4.1281154e-06
3.9088085e-06
3.7086896e-06
3.525634e-06
3.3576376e-06
3.2029983e-06
3.0602404e-06
2.9280807e-06
2.805401e-06
2.6912239e-06
2.5846851e-06
2.4850089e-06
2.3914993e-06
2.3035072e-06
2.2204491e-06
2.141676e-06
2.0667293e-06
1.9944909e-06
1.9254286e-06
1.8542886e-06
1.7939806e-06
1.7056363e-06
0.006799695
0.0066049263
0.0064909097
0.0064300192
0.0063919919
0.0063651392
0.0063449874
0.0063293822
0.0063170541
0.0063071755
0.0062991805
0.0062926732
0.0062873749
0.0062830936
0.0062797083
0.0062771637
0.0062754947
0.0062748177
0.0062756037
0.0062783285
0.0062853307
0.0063069675
0.0062865941
0.0077273203
0.019777055
0.0014743943
0.0032501126
0.00028366713
0.0012693993
0.00013964373
0.00074079957
8.7905303e-05
0.00050248878
0.00038425712
0.00036915111
0.00030930699
0.00028303352
0.00024952865
0.00022628854
0.00020442583
0.00018640245
0.00017049848
0.00015668387
0.00014450053
0.00013371756
0.00012411243
0.00011551347
0.00010777795
0.00010078883
9.4448886e-05
8.867644e-05
8.3402514e-05
7.8568652e-05
7.4124861e-05
7.0028375e-05
6.6242362e-05
6.2734727e-05
5.9477492e-05
5.6446266e-05
5.3619633e-05
5.0978696e-05
4.8506834e-05
4.6189332e-05
4.4012989e-05
4.1966028e-05
4.0037945e-05
3.8219347e-05
3.650171e-05
3.4877346e-05
3.3339377e-05
3.1881576e-05
3.0498211e-05
2.9184082e-05
2.7934477e-05
2.6745076e-05
2.5611941e-05
2.4531462e-05
2.3500338e-05
2.2515583e-05
2.1574336e-05
2.0673966e-05
1.981214e-05
1.8986641e-05
1.8195417e-05
1.7436564e-05
1.6708317e-05
1.6009059e-05
1.5337294e-05
1.4691587e-05
1.4070611e-05
1.3473139e-05
1.2898018e-05
1.2344176e-05
1.1810602e-05
1.1296356e-05
1.0800583e-05
1.0322453e-05
9.8611739e-06
9.4160248e-06
8.9863192e-06
8.571416e-06
8.1707059e-06
7.7836208e-06
7.409642e-06
7.0482598e-06
6.698991e-06
6.3613898e-06
6.0350326e-06
5.7195125e-06
5.4144542e-06
5.1195072e-06
4.8342255e-06
4.5585991e-06
4.2991962e-06
4.0626689e-06
3.847722e-06
3.6515515e-06
3.4720809e-06
3.3073513e-06
3.1556983e-06
3.0156789e-06
2.8860378e-06
2.7656814e-06
2.6536531e-06
2.5491072e-06
2.4512845e-06
2.3595037e-06
2.2731293e-06
2.1915895e-06
2.1142487e-06
2.040657e-06
1.9697177e-06
1.9018915e-06
1.832013e-06
1.7727698e-06
1.6859854e-06
0.0067304979
0.0065305015
0.0064130986
0.006350312
0.0063110779
0.0062833635
0.0062625586
0.0062464423
0.0062337055
0.0062234941
0.0062152239
0.0062084854
0.0062029897
0.0061985367
0.0061949986
0.006192314
0.0061905099
0.0061896975
0.0061903228
0.0061928773
0.006199491
0.0062209936
0.0061972027
0.0076082204
0.018816847
0.0014445391
0.0030635364
0.00027536937
0.0012044996
0.00013558065
0.00070564864
8.5467165e-05
0.00048006803
0.00036805436
0.00035354844
0.00029664689
0.00027160045
0.00023967614
0.00021750188
0.00019663315
0.00017941375
0.00016420919
0.00015099267
0.00013932941
0.00012900049
0.00011979463
0.00011154856
0.00010412653
9.7417174e-05
9.1327973e-05
8.5781146e-05
8.0710988e-05
7.6061792e-05
7.1785893e-05
6.7842501e-05
6.4196474e-05
6.0817177e-05
5.7677887e-05
5.4755306e-05
5.2028971e-05
4.948082e-05
4.709496e-05
4.4857316e-05
4.2755258e-05
4.0777511e-05
3.8914023e-05
3.7155803e-05
3.5494684e-05
3.3923291e-05
3.2435034e-05
3.1023939e-05
2.9684512e-05
2.8411761e-05
2.7201166e-05
2.6048581e-05
2.4950225e-05
2.3902638e-05
2.290265e-05
2.1947393e-05
2.1034103e-05
2.0160257e-05
1.932362e-05
1.8522059e-05
1.7753597e-05
1.7016405e-05
1.6308782e-05
1.5629174e-05
1.497614e-05