/*--------------------------------*- C++ -*----------------------------------*\
| =========                 |                                                 |
| \\      /  F ield         | OpenFOAM: The Open Source CFD Toolbox           |
|  \\    /   O peration     | Version:  2206                                  |
|   \\  /    A nd           | Website:  www.openfoam.com                      |
|    \\/     M anipulation  |                                                 |
\*---------------------------------------------------------------------------*/
FoamFile
{
    version     2.0;
    format      ascii;
    arch        "LSB;label=32;scalar=64";
    class       volScalarField;
    location    "1900";
    object      k;
}
// * * * * * * * * * * * * * * * * * * * * * * * * * * * * * * * * * * * * * //

dimensions      [0 2 -2 0 0 0 0];

internalField   nonuniform List<scalar> 
13056
(
0.00012368413
0.00011045753
0.00010568244
0.00010325862
0.0001017232
0.00010064234
9.9839344e-05
9.9222709e-05
9.8737901e-05
9.834971e-05
9.8034224e-05
9.7774615e-05
9.7558686e-05
9.7377399e-05
9.7223875e-05
9.7092936e-05
9.6980169e-05
9.6883442e-05
9.6796648e-05
9.6732309e-05
9.6629015e-05
9.6781653e-05
9.5645689e-05
0.00010104828
1.7643454e-05
2.6866332e-06
5.3528757e-06
9.2016004e-07
2.7635853e-06
5.7167338e-07
1.8936296e-06
4.1649012e-07
1.4416396e-06
1.1912409e-06
1.1603945e-06
1.0245773e-06
9.6328845e-07
8.8175957e-07
8.2356788e-07
7.6700519e-07
7.1908439e-07
6.756182e-07
6.3689349e-07
6.0188832e-07
5.7017097e-07
5.4127005e-07
5.1482707e-07
4.9053463e-07
4.6813653e-07
4.4741588e-07
4.28187e-07
4.1029034e-07
3.9358857e-07
3.7796225e-07
3.6330785e-07
3.4953494e-07
3.365634e-07
3.2432245e-07
3.1274959e-07
3.0178916e-07
2.913914e-07
2.815121e-07
2.721117e-07
2.6315415e-07
2.546069e-07
2.4644064e-07
2.3862877e-07
2.3114701e-07
2.239732e-07
2.1708742e-07
2.1047142e-07
2.0410812e-07
1.979819e-07
1.9207847e-07
1.8638464e-07
1.8088822e-07
1.7557789e-07
1.7044322e-07
1.6547487e-07
1.6066378e-07
1.5600137e-07
1.5147995e-07
1.4709223e-07
1.4283142e-07
1.3869114e-07
1.3466542e-07
1.307488e-07
1.2693619e-07
1.2322259e-07
1.1960331e-07
1.1607406e-07
1.1263073e-07
1.0926946e-07
1.0598658e-07
1.0277863e-07
9.964254e-08
9.6575195e-08
9.3573577e-08
9.0634955e-08
8.7756681e-08
8.4936266e-08
8.2171294e-08
7.9459492e-08
7.6798822e-08
7.4187182e-08
7.1622534e-08
6.9102994e-08
6.6626735e-08
6.4191931e-08
6.1796886e-08
5.9439994e-08
5.7118725e-08
5.4834071e-08
5.2643422e-08
5.0608971e-08
4.8726824e-08
4.6979244e-08
4.5353679e-08
4.3837527e-08
4.2419968e-08
4.1091415e-08
3.9843379e-08
3.8668322e-08
3.7559545e-08
3.651101e-08
3.5517152e-08
3.4572849e-08
3.3673157e-08
3.2813526e-08
3.1988437e-08
3.1194145e-08
3.0419595e-08
2.96702e-08
2.8890273e-08
2.822064e-08
2.7225068e-08
0.0001236752
0.00011044149
0.00010566375
0.00010323857
0.00010170228
0.00010062081
9.9817351e-05
9.9200365e-05
9.8715281e-05
9.8326867e-05
9.8011201e-05
9.7751441e-05
9.7535387e-05
9.7353993e-05
9.7200377e-05
9.7069359e-05
9.6956524e-05
9.6859737e-05
9.6772888e-05
9.6708507e-05
9.6605153e-05
9.6757859e-05
9.5621357e-05
0.00010102666
1.7583918e-05
2.662275e-06
5.2418247e-06
9.1056364e-07
2.7111391e-06
5.652381e-07
1.8597957e-06
4.1191575e-07
1.4172517e-06
1.1721128e-06
1.1416496e-06
1.008525e-06
9.4836635e-07
8.6839634e-07
8.1127923e-07
7.5576232e-07
7.0871013e-07
6.6602324e-07
6.2798224e-07
5.9358747e-07
5.6241606e-07
5.3400685e-07
5.0800847e-07
4.8411971e-07
4.6208945e-07
4.4170516e-07
4.2278485e-07
4.0517212e-07
3.8873234e-07
3.7334843e-07
3.5891884e-07
3.4535491e-07
3.3257805e-07
3.2051884e-07
3.0911595e-07
2.9831478e-07
2.8806651e-07
2.7832775e-07
2.6905968e-07
2.6022692e-07
2.5179753e-07
2.4374273e-07
2.3603644e-07
2.2865481e-07
2.2157606e-07
2.1478064e-07
2.0825061e-07
2.019692e-07
1.9592105e-07
1.9009215e-07
1.8446951e-07
1.7904116e-07
1.7379599e-07
1.6872377e-07
1.638153e-07
1.5906168e-07
1.5445445e-07
1.4998607e-07
1.456494e-07
1.4143774e-07
1.3734483e-07
1.3336478e-07
1.2949223e-07
1.2572218e-07
1.220497e-07
1.1847019e-07
1.1497943e-07
1.1157335e-07
1.0824819e-07
1.0500032e-07
1.0182634e-07
9.8723229e-08
9.568792e-08
9.2717443e-08
8.9809109e-08
8.6960313e-08
8.4168605e-08
8.1431605e-08
7.8747076e-08
7.611301e-08
7.3527339e-08
7.0988053e-08
6.8493298e-08
6.6041272e-08
6.3630176e-08
6.1258338e-08
5.8924177e-08
5.6625193e-08
5.4362375e-08
5.2192548e-08
5.0177334e-08
4.8312923e-08
4.6581762e-08
4.4971427e-08
4.3469446e-08
4.2065104e-08
4.0748912e-08
3.9512462e-08
3.8348292e-08
3.7249769e-08
3.6210912e-08
3.522621e-08
3.4290593e-08
3.3399164e-08
3.2547414e-08
3.1729876e-08
3.094284e-08
3.0175348e-08
2.9432794e-08
2.8659824e-08
2.7996228e-08
2.7009727e-08
0.00012364639
0.00011039085
0.00010560504
0.00010317572
0.0001016368
0.00010055347
9.9748628e-05
9.9130577e-05
9.8644653e-05
9.8255565e-05
9.7939347e-05
9.7679131e-05
9.7462695e-05
9.7280977e-05
9.7127085e-05
9.6995828e-05
9.6882784e-05
9.6785815e-05
9.66988e-05
9.6634288e-05
9.6530745e-05
9.6683638e-05
9.5545589e-05
0.00010095829
1.7527284e-05
2.6379087e-06
5.1307563e-06
9.008882e-07
2.6585146e-06
5.5873823e-07
1.8257913e-06
4.0729134e-07
1.3927152e-06
1.1528503e-06
1.1227749e-06
9.9235315e-07
9.3333102e-07
8.5492716e-07
7.9889076e-07
7.4442539e-07
6.9824705e-07
6.5634423e-07
6.1899135e-07
5.8521101e-07
5.545893e-07
5.2667525e-07
5.011247e-07
4.776426e-07
4.5598298e-07
4.3593766e-07
4.1732834e-07
4.0000182e-07
3.8382617e-07
3.6868666e-07
3.5448378e-07
3.4113061e-07
3.2855012e-07
3.1667424e-07
3.0544282e-07
2.9480234e-07
2.8470489e-07
2.7510795e-07
2.6597344e-07
2.5726663e-07
2.489562e-07
2.4101392e-07
2.3341422e-07
2.2613367e-07
2.1915092e-07
2.1244673e-07
2.0600351e-07
1.998048e-07
1.938355e-07
1.8808187e-07
1.8253113e-07
1.7717155e-07
1.7199221e-07
1.6698306e-07
1.6213509e-07
1.5743953e-07
1.5288806e-07
1.4847329e-07
1.441882e-07
1.400262e-07
1.3598116e-07
1.3204727e-07
1.2821926e-07
1.2449223e-07
1.2086131e-07
1.1732201e-07
1.1387014e-07
1.1050174e-07
1.0721309e-07
1.0400061e-07
1.0086098e-07
9.7791211e-08
9.4788296e-08
9.184931e-08
8.8971608e-08
8.6152627e-08
8.3389953e-08
8.0681247e-08
7.8024306e-08
7.5417155e-08
7.2857756e-08
7.0344131e-08
6.7874453e-08
6.5446949e-08
6.3059845e-08
6.0711495e-08
5.840034e-08
5.6123913e-08
5.3883198e-08
5.1734451e-08
4.9738714e-08
4.7892261e-08
4.6177727e-08
4.4582814e-08
4.3095184e-08
4.1704228e-08
4.0400553e-08
3.9175837e-08
3.8022695e-08
3.6934559e-08
3.5905506e-08
3.493008e-08
3.4003262e-08
3.3120203e-08
3.2276438e-08
3.1466553e-08
3.0686869e-08
2.992653e-08
2.9190908e-08
2.8425007e-08
2.7767533e-08
2.6790232e-08
0.00012359683
0.00011030402
0.00010550447
0.00010306809
0.00010152469
0.00010043819
9.9630995e-05
9.9011131e-05
9.8523777e-05
9.8133539e-05
9.7816383e-05
9.7555391e-05
9.7338303e-05
9.7156035e-05
9.7001671e-05
9.6870007e-05
9.6756608e-05
9.6659328e-05
9.6572029e-05
9.6507294e-05
9.640343e-05
9.6556633e-05
9.5415983e-05
0.00010084103
1.7473092e-05
2.6132087e-06
5.0181837e-06
8.9100167e-07
2.6050032e-06
5.5208521e-07
1.7911563e-06
4.0255384e-07
1.3676971e-06
1.1331902e-06
1.1035131e-06
9.7584076e-07
9.1797702e-07
8.4116774e-07
7.8623293e-07
7.3283913e-07
6.8755181e-07
6.4644851e-07
6.0979754e-07
5.7664406e-07
5.465833e-07
5.1917467e-07
4.9408131e-07
4.7101445e-07
4.4973334e-07
4.3003423e-07
4.1174261e-07
3.9470851e-07
3.7880277e-07
3.6391303e-07
3.4994186e-07
3.3680413e-07
3.244244e-07
3.1273595e-07
3.0167987e-07
2.912037e-07
2.8126052e-07
2.7180863e-07
2.6281072e-07
2.5423277e-07
2.4604404e-07
2.3821689e-07
2.3072624e-07
2.2354914e-07
2.166646e-07
2.1005379e-07
2.0369942e-07
1.9758535e-07
1.9169677e-07
1.8602018e-07
1.8054306e-07
1.7525387e-07
1.7014191e-07
1.6519735e-07
1.6041133e-07
1.5577522e-07
1.5128084e-07
1.4692096e-07
1.4268869e-07
1.3857756e-07
1.3458154e-07
1.3069492e-07
1.2691254e-07
1.2322956e-07
1.1964123e-07
1.161431e-07
1.1273109e-07
1.0940128e-07
1.0615002e-07
1.0297381e-07
9.9869369e-08
9.6833769e-08
9.3864047e-08
9.095733e-08
8.8111018e-08
8.532259e-08
8.2589672e-08
7.9909965e-08
7.7281301e-08
7.4701738e-08
7.216927e-08
6.9681951e-08
6.7237983e-08
6.4835619e-08
6.2473115e-08
6.0148849e-08
5.7861286e-08
5.5607993e-08
5.3389948e-08
5.1262823e-08
4.9287066e-08
4.7459036e-08
4.5761558e-08
4.4182469e-08
4.2709563e-08
4.1332341e-08
4.0041511e-08
3.8828837e-08
3.7687012e-08
3.6609534e-08
3.5590543e-08
3.4624637e-08
3.3706851e-08
3.2832384e-08
3.1996814e-08
3.1194784e-08
3.0422649e-08
2.9669656e-08
2.8941149e-08
2.8182524e-08
2.7531341e-08
2.656349e-08
0.00012352515
0.00011017854
0.00010535914
0.00010291259
0.00010136271
0.00010027165
9.9461052e-05
9.8838572e-05
9.8349156e-05
9.795726e-05
9.763875e-05
9.7376638e-05
9.7158612e-05
9.6975549e-05
9.6820505e-05
9.6688254e-05
9.6574341e-05
9.6476613e-05
9.6388904e-05
9.6323847e-05
9.6219519e-05
9.6373162e-05
9.5228791e-05
0.00010067152
1.7420828e-05
2.5878712e-06
4.9027135e-06
8.8077563e-07
2.5499303e-06
5.4519227e-07
1.7554489e-06
3.9764116e-07
1.3418762e-06
1.112878e-06
1.0836151e-06
9.5877334e-07
9.0210488e-07
8.2693882e-07
7.7314066e-07
7.2085221e-07
6.7648456e-07
6.3620652e-07
6.0028033e-07
5.6777425e-07
5.3829298e-07
5.1140659e-07
4.8678574e-07
4.641481e-07
4.4325832e-07
4.239172e-07
4.0595415e-07
3.8922251e-07
3.7359597e-07
3.5896465e-07
3.4523324e-07
3.3231846e-07
3.201465e-07
3.0865206e-07
2.9777749e-07
2.8747144e-07
2.7768797e-07
2.6838629e-07
2.5952984e-07
2.5108533e-07
2.4302266e-07
2.3531474e-07
2.2793707e-07
2.2086713e-07
2.1408436e-07
2.0757028e-07
2.0130798e-07
1.9528161e-07
1.8947667e-07
1.8387991e-07
1.7847907e-07
1.7326284e-07
1.6822072e-07
1.633431e-07
1.5862129e-07
1.5404681e-07
1.496116e-07
1.4530862e-07
1.4113111e-07
1.3707272e-07
1.3312751e-07
1.2928991e-07
1.2555483e-07
1.2191753e-07
1.1837334e-07
1.1491792e-07
1.1154723e-07
1.0825744e-07
1.0504496e-07
1.0190636e-07
9.8838407e-08
9.5838241e-08
9.2902944e-08
9.0029697e-08
8.7215943e-08
8.4459206e-08
8.1757156e-08
7.910753e-08
7.6508201e-08
7.3957259e-08
7.1452733e-08
6.8992708e-08
6.6575417e-08
6.4199142e-08
6.1862166e-08
5.9562896e-08
5.7299818e-08
5.5070537e-08
5.2876025e-08
5.0771345e-08
4.8816332e-08
4.700743e-08
4.5327663e-08
4.3765005e-08
4.2307389e-08
4.0944431e-08
3.966694e-08
3.8466772e-08
3.73367e-08
3.6270293e-08
3.5261752e-08
3.4305735e-08
3.3397331e-08
3.2531789e-08
3.1704734e-08
3.0910865e-08
3.0146573e-08
2.9401214e-08
2.8680099e-08
2.792905e-08
2.7284408e-08
2.6326382e-08
0.00012342955
0.00011001106
0.00010516516
0.00010270502
0.0001011465
0.00010004934
9.9234207e-05
9.8608236e-05
9.8116067e-05
9.7721959e-05
9.7401643e-05
9.7138035e-05
9.6918757e-05
9.6734634e-05
9.6578682e-05
9.6445648e-05
9.633105e-05
9.6232724e-05
9.6144469e-05
9.6078982e-05
9.5974035e-05
9.6128256e-05
9.497895e-05
0.00010044526
1.7370213e-05
2.5616131e-06
4.7830357e-06
8.7008427e-07
2.4926505e-06
5.3797361e-07
1.718243e-06
3.924917e-07
1.3149411e-06
1.0916655e-06
1.0628381e-06
9.4094127e-07
8.8551938e-07
8.1206472e-07
7.5945201e-07
7.0831598e-07
6.6490779e-07
6.2549078e-07
5.9032104e-07
5.5849081e-07
5.2961466e-07
5.0327374e-07
4.7914652e-07
4.5695738e-07
4.3647657e-07
4.1750967e-07
3.9989011e-07
3.8347472e-07
3.6814016e-07
3.5377913e-07
3.4029851e-07
3.2761698e-07
3.1566241e-07
3.04371e-07
2.9368637e-07
2.8355837e-07
2.7394208e-07
2.6479763e-07
2.5608928e-07
2.4778448e-07
2.3985379e-07
2.3227074e-07
2.2501137e-07
2.1805366e-07
2.1137748e-07
2.0496473e-07
1.9879886e-07
1.9286436e-07
1.8714703e-07
1.8163391e-07
1.7631299e-07
1.7117319e-07
1.6620425e-07
1.6139676e-07
1.5674224e-07
1.5223233e-07
1.4785913e-07
1.4361578e-07
1.3949565e-07
1.3549253e-07
1.3160058e-07
1.2781435e-07
1.2412884e-07
1.2053942e-07
1.1704151e-07
1.1363084e-07
1.1030346e-07
1.0705562e-07
1.038838e-07
1.0078462e-07
9.7754928e-08
9.4791908e-08
9.1892703e-08
8.9054545e-08
8.6274927e-08
8.3551419e-08
8.0881733e-08
7.826365e-08
7.5695082e-08
7.3174154e-08
7.069893e-08
6.826753e-08
6.5878219e-08
6.3529309e-08
6.1219111e-08
5.8946061e-08
5.670867e-08
5.4504581e-08
5.233476e-08
5.0253633e-08
4.8320389e-08
4.6531562e-08
4.4870384e-08
4.3324971e-08
4.1883403e-08
4.0535417e-08
3.9271928e-08
3.8084888e-08
3.6967155e-08
3.5912371e-08
3.4914801e-08
3.3969167e-08
3.3070614e-08
3.2214443e-08
3.1396329e-08
3.061103e-08
2.9854975e-08
2.9117634e-08
2.8404281e-08
2.7661207e-08
2.7023438e-08
2.6075735e-08
0.00012330775
0.0001097974
0.00010491764
0.00010244014
0.00010087058
9.9765636e-05
9.8944713e-05
9.8314284e-05
9.78186e-05
9.7421667e-05
9.7099045e-05
9.683353e-05
9.6612653e-05
9.6427176e-05
9.6270066e-05
9.6136032e-05
9.602056e-05
9.5921471e-05
9.5832519e-05
9.5766483e-05
9.5660747e-05
9.581569e-05
9.4660125e-05
0.00010015659
1.7321217e-05
2.5341727e-06
4.6579221e-06
8.5880373e-07
2.4325463e-06
5.3034396e-07
1.6791266e-06
3.8704391e-07
1.2865883e-06
1.0693098e-06
1.0409444e-06
9.2213875e-07
8.6802872e-07
7.9637248e-07
7.4500732e-07
6.9508369e-07
6.5268558e-07
6.141751e-07
5.7980212e-07
5.4868387e-07
5.2044542e-07
4.9467949e-07
4.7107273e-07
4.4935657e-07
4.2930714e-07
4.1073502e-07
3.934779e-07
3.7739626e-07
3.6236989e-07
3.4829418e-07
3.3507836e-07
3.2264312e-07
3.1091813e-07
2.9984114e-07
2.8935716e-07
2.7941724e-07
2.6997759e-07
2.6099927e-07
2.5244743e-07
2.4429027e-07
2.3649908e-07
2.2904801e-07
2.219137e-07
2.1507464e-07
2.0851113e-07
2.0220551e-07
1.961416e-07
1.9030424e-07
1.8467956e-07
1.7925488e-07
1.7401847e-07
1.689595e-07
1.6406795e-07
1.5933465e-07
1.547513e-07
1.5030969e-07
1.4600207e-07
1.4182179e-07
1.3776237e-07
1.3381771e-07
1.299821e-07
1.2625021e-07
1.2261716e-07
1.1907839e-07
1.1562943e-07
1.1226611e-07
1.0898456e-07
1.0578111e-07
1.026523e-07
9.9594829e-08
9.6605617e-08
9.3681903e-08
9.0820888e-08
8.8019862e-08
8.5276367e-08
8.2588025e-08
7.9952591e-08
7.7367892e-08
7.4831881e-08
7.2342721e-08
6.9898514e-08
6.7497416e-08
6.5137724e-08
6.2817783e-08
6.0535937e-08
5.8290648e-08
5.6080457e-08
5.3903044e-08
5.175937e-08
4.9703189e-08
4.7793003e-08
4.602544e-08
4.4383953e-08
4.2856809e-08
4.1432243e-08
4.0100119e-08
3.8851466e-08
3.7678336e-08
3.6573677e-08
3.5531207e-08
3.4545265e-08
3.3610633e-08
3.2722519e-08
3.187628e-08
3.1067642e-08
3.0291426e-08
2.9544102e-08
2.8815262e-08
2.8110136e-08
2.7375532e-08
2.6745053e-08
2.5808298e-08
0.00012315708
0.00010953261
0.00010461076
0.00010211169
0.00010052842
9.9413816e-05
9.8585701e-05
9.7949738e-05
9.7449693e-05
9.7049255e-05
9.6723771e-05
9.6455887e-05
9.6233027e-05
9.604587e-05
9.5887323e-05
9.5752047e-05
9.5635491e-05
9.5535455e-05
9.5445639e-05
9.5378923e-05
9.5272209e-05
9.5428037e-05
9.4264744e-05
9.9798807e-05
1.7274074e-05
2.5053129e-06
4.5262317e-06
8.4681185e-07
2.3690288e-06
5.2221827e-07
1.6377017e-06
3.8123611e-07
1.2565228e-06
1.0455731e-06
1.0177013e-06
9.0216358e-07
8.4944416e-07
7.7969155e-07
7.2964892e-07
6.8101018e-07
6.3968333e-07
6.0213436e-07
5.6860681e-07
5.3824424e-07
5.1068285e-07
4.8552758e-07
4.6247372e-07
4.4126013e-07
4.2166916e-07
4.0351668e-07
3.8664491e-07
3.7091818e-07
3.5621959e-07
3.4244738e-07
3.2951328e-07
3.1734011e-07
3.0585944e-07
2.9501067e-07
2.8474027e-07
2.7500059e-07
2.6574899e-07
2.5694758e-07
2.485624e-07
2.4056249e-07
2.3291988e-07
2.2560939e-07
2.1860831e-07
2.1189564e-07
2.0545219e-07
1.9926071e-07
1.9330544e-07
1.875716e-07
1.8204565e-07
1.7671523e-07
1.7156889e-07
1.6659606e-07
1.6178701e-07
1.5713278e-07
1.5262529e-07
1.4825648e-07
1.4401878e-07
1.3990574e-07
1.3591104e-07
1.320287e-07
1.2825317e-07
1.2457921e-07
1.2100207e-07
1.1751731e-07
1.1412056e-07
1.1080772e-07
1.0757504e-07
1.0441891e-07
1.0133596e-07
9.8322979e-08
9.5376934e-08
9.2495137e-08
8.9674851e-08
8.6913424e-08
8.4208456e-08
8.1557618e-08
7.8958717e-08
7.6409626e-08
7.3908343e-08
7.1453071e-08
6.9041951e-08
6.6673179e-08
6.4345087e-08
6.2056054e-08
5.9804458e-08
5.7588793e-08
5.5407627e-08
5.3258684e-08
5.1142917e-08
4.9113362e-08
4.722779e-08
4.5482929e-08
4.3862464e-08
4.2354826e-08
4.0948413e-08
3.9633225e-08
3.8400414e-08
3.7242137e-08
3.6151439e-08
3.5122122e-08
3.4148596e-08
3.3225715e-08
3.2348751e-08
3.1513121e-08
3.0714605e-08
2.9948093e-08
2.9210095e-08
2.8490338e-08
2.7794e-08
2.7068461e-08
2.6445774e-08
2.5520719e-08
0.00012297447
0.00010921092
0.00010423778
0.00010171243
0.00010011247
9.8986091e-05
9.8149221e-05
9.7506523e-05
9.7001167e-05
9.6596463e-05
9.6267497e-05
9.5996731e-05
9.5771457e-05
9.5582256e-05
9.542196e-05
9.5285175e-05
9.5167299e-05
9.5066111e-05
9.4975243e-05
9.49077e-05
9.4799799e-05
9.4956691e-05
9.378404e-05
9.9364125e-05
1.722932e-05
2.4748255e-06
4.3869228e-06
8.3398846e-07
2.3015424e-06
5.1351177e-07
1.5935871e-06
3.7500638e-07
1.2244592e-06
1.0202235e-06
9.9288185e-07
8.8081775e-07
8.2958062e-07
7.6185419e-07
7.1322148e-07
6.6595218e-07
6.2576792e-07
5.8924462e-07
5.5661935e-07
5.2706346e-07
5.0022513e-07
4.757222e-07
4.5325914e-07
4.3258271e-07
4.1348188e-07
3.9577814e-07
3.7931851e-07
3.6397145e-07
3.4962356e-07
3.3617616e-07
3.2354358e-07
3.1165096e-07
3.0043187e-07
2.8982748e-07
2.7978582e-07
2.7026061e-07
2.6121046e-07
2.5259857e-07
2.4439197e-07
2.3656057e-07
2.2907718e-07
2.2191736e-07
2.1505909e-07
2.0848192e-07
2.0216717e-07
1.9609807e-07
1.9025929e-07
1.8463644e-07
1.7921636e-07
1.7398702e-07
1.6893726e-07
1.6405683e-07
1.5933624e-07
1.5476683e-07
1.5034072e-07
1.4605001e-07
1.418873e-07
1.3784639e-07
1.3392111e-07
1.3010563e-07
1.2639455e-07
1.2278275e-07
1.1926561e-07
1.1583879e-07
1.1249804e-07
1.0923938e-07
1.0605913e-07
1.0295378e-07
9.9920051e-08
9.6954799e-08
9.4055078e-08
9.1218262e-08
8.8441684e-08
8.5722756e-08
8.3059135e-08
8.044855e-08
7.788886e-08
7.5377989e-08
7.2913982e-08
7.0495087e-08
6.8119486e-08
6.5785418e-08
6.3491253e-08
6.1235405e-08
5.9016291e-08
5.6832436e-08
5.468244e-08
5.2564073e-08
5.0478278e-08
4.8477325e-08
4.6618196e-08
4.4897724e-08
4.3299845e-08
4.1813165e-08
4.0426257e-08
3.912927e-08
3.7913481e-08
3.6771167e-08
3.5695474e-08
3.4680293e-08
3.3720112e-08
3.2809862e-08
3.1944883e-08
3.1120657e-08
3.0333023e-08
2.9576941e-08
2.8848972e-08
2.8138981e-08
2.7452091e-08
2.6736313e-08
2.6122009e-08
2.5209537e-08
0.00012275654
0.00010882588
0.00010379108
0.00010123416
9.9614155e-05
9.8473651e-05
9.7626275e-05
9.6975494e-05
9.6463769e-05
9.6053947e-05
9.5720804e-05
9.5446581e-05
9.5218411e-05
9.5026759e-05
9.4864366e-05
9.472577e-05
9.4606313e-05
9.4503744e-05
9.4411616e-05
9.4343082e-05
9.4233761e-05
9.4391917e-05
9.3208095e-05
9.8843782e-05
1.7187834e-05
2.44254e-06
4.2390741e-06
8.2021611e-07
2.2295731e-06
5.0414022e-07
1.5464231e-06
3.6829278e-07
1.1901245e-06
9.9303719e-07
9.6626682e-07
8.5790902e-07
8.0825798e-07
7.4269667e-07
6.9557302e-07
6.4976915e-07
6.1080853e-07
5.7538384e-07
5.4372549e-07
5.1503436e-07
4.8897145e-07
4.6516837e-07
4.4333933e-07
4.2323952e-07
4.0466496e-07
3.8744316e-07
3.7142628e-07
3.5648715e-07
3.4251618e-07
3.2941791e-07
3.1710952e-07
3.0551857e-07
2.9458082e-07
2.8423931e-07
2.7444372e-07
2.6514929e-07
2.5631593e-07
2.4790803e-07
2.3989364e-07
2.3224364e-07
2.2493169e-07
2.1793412e-07
2.1122963e-07
2.0479839e-07
1.9862227e-07
1.92685e-07
1.869717e-07
1.8146843e-07
1.761624e-07
1.7104196e-07
1.6609628e-07
1.6131539e-07
1.5669015e-07
1.5221215e-07
1.4787376e-07
1.4366721e-07
1.3958533e-07
1.3562217e-07
1.3177172e-07
1.2802832e-07
1.2438671e-07
1.2084192e-07
1.1738946e-07
1.1402512e-07
1.1074475e-07
1.0754449e-07
1.0442077e-07
1.0137018e-07
9.8389517e-08
9.5475734e-08
9.2625964e-08
8.9837655e-08
8.7108211e-08
8.4435114e-08
8.1816086e-08
7.9248914e-08
7.6731515e-08
7.4261867e-08
7.183807e-08
6.9458413e-08
6.712113e-08
6.4824501e-08
6.2566939e-08
6.0346898e-08
5.8162832e-08
5.6013304e-08
5.3896948e-08
5.1811579e-08
4.9758138e-08
4.7788059e-08
4.5957478e-08
4.4263339e-08
4.2689848e-08
4.1225798e-08
3.9859955e-08
3.8582621e-08
3.7385218e-08
3.6260143e-08
3.5200658e-08
3.4200744e-08
3.325498e-08
3.2358374e-08
3.1506344e-08
3.0694439e-08
2.991856e-08
2.9173749e-08
2.8456615e-08
2.7757179e-08
2.7080498e-08
2.6375285e-08
2.577004e-08
2.4871171e-08
0.00012249957
0.00010837031
0.0001032622
0.00010066778
9.9023969e-05
9.7866698e-05
9.7006854e-05
9.6346485e-05
9.5827203e-05
9.5411311e-05
9.5073213e-05
9.4794891e-05
9.4563289e-05
9.436873e-05
9.420385e-05
9.4063108e-05
9.3941775e-05
9.383757e-05
9.3743948e-05
9.367424e-05
9.3563242e-05
9.3722885e-05
9.2525887e-05
9.8228057e-05
1.7150884e-05
2.408334e-06
4.0819133e-06
8.0538146e-07
2.1526603e-06
4.9402063e-07
1.4958778e-06
3.6103369e-07
1.1532629e-06
9.6380174e-07
9.3764798e-07
8.3325353e-07
7.8530356e-07
7.2206129e-07
6.7655673e-07
6.323249e-07
5.9467805e-07
5.6043315e-07
5.2981372e-07
5.0205207e-07
4.76823e-07
4.537728e-07
4.3262607e-07
4.1314698e-07
3.9513911e-07
3.7843641e-07
3.6289654e-07
3.4839703e-07
3.3483233e-07
3.221105e-07
3.1015169e-07
2.9888614e-07
2.882519e-07
2.7819404e-07
2.6866401e-07
2.5961867e-07
2.5101935e-07
2.4283169e-07
2.3502487e-07
2.2757079e-07
2.2044401e-07
2.1362171e-07
2.0708338e-07
2.0080982e-07
1.947835e-07
1.8898869e-07
1.8341102e-07
1.78037e-07
1.7285427e-07
1.6785155e-07
1.6301839e-07
1.5834514e-07
1.5382299e-07
1.4944384e-07
1.4520032e-07
1.4108478e-07
1.3709032e-07
1.3321125e-07
1.2944175e-07
1.2577632e-07
1.2220985e-07
1.1873756e-07
1.1535507e-07
1.1205831e-07
1.0884327e-07
1.0570621e-07
1.0264365e-07
9.9652299e-08
9.6729063e-08
9.3870974e-08
9.1075257e-08
8.8339441e-08
8.5661007e-08
8.3037512e-08
8.0466746e-08
7.7946562e-08
7.547494e-08
7.3049916e-08
7.0669645e-08
6.8332469e-08
6.603667e-08
6.3780578e-08
6.156265e-08
5.9381383e-08
5.7235273e-08
5.5122923e-08
5.3043003e-08
5.099338e-08
4.8974986e-08
4.703836e-08
4.5238714e-08
4.357311e-08
4.2026049e-08
4.0586527e-08
3.9243515e-08
3.7987486e-08
3.6810012e-08
3.5703628e-08
3.4661713e-08
3.3678353e-08
3.274822e-08
3.186641e-08
3.102842e-08
3.0229876e-08
2.9466747e-08
2.873416e-08
2.8028778e-08
2.7340792e-08
2.6675183e-08
2.5981444e-08
2.5386031e-08
2.4501919e-08
0.0001221996
0.00010783638
0.00010264189
0.0001000033
9.8331485e-05
9.7154493e-05
9.627999e-05
9.5608349e-05
9.5080186e-05
9.4657161e-05
9.4313242e-05
9.4030103e-05
9.3794467e-05
9.3596494e-05
9.3428693e-05
9.3285429e-05
9.3161895e-05
9.3055767e-05
9.2960393e-05
9.2889308e-05
9.2776347e-05
9.2937722e-05
9.1725343e-05
9.7506327e-05
1.7120185e-05
2.3721487e-06
3.9148547e-06
7.8937735e-07
2.0704132e-06
4.8307234e-07
1.4416575e-06
3.5316851e-07
1.1136423e-06
9.3232078e-07
9.0683276e-07
8.066797e-07
7.6055553e-07
6.9979946e-07
6.560337e-07
6.1349009e-07
5.7725529e-07
5.4427883e-07
5.1477703e-07
4.8801568e-07
4.6368447e-07
4.414453e-07
4.2103386e-07
4.0222392e-07
3.8482717e-07
3.6868444e-07
3.5365929e-07
3.396343e-07
3.2650824e-07
3.1419292e-07
3.0261175e-07
2.9169777e-07
2.8139152e-07
2.7164025e-07
2.6239734e-07
2.5362134e-07
2.4527513e-07
2.3732571e-07
2.2974347e-07
2.2250138e-07
2.15575e-07
2.089424e-07
2.0258394e-07
1.964811e-07
1.9061698e-07
1.8497645e-07
1.7954566e-07
1.7431163e-07
1.6926246e-07
1.6438728e-07
1.5967601e-07
1.5511938e-07
1.5070894e-07
1.4643693e-07
1.4229622e-07
1.3827933e-07
1.3437961e-07
1.3059169e-07
1.2690993e-07
1.2332903e-07
1.1984404e-07
1.1645034e-07
1.1314371e-07
1.0992024e-07
1.0677604e-07
1.037075e-07
1.0071127e-07
9.7784173e-08
9.4923215e-08
9.2125531e-08
8.9388444e-08
8.6709566e-08
8.4086465e-08
8.1516778e-08
7.8998369e-08
7.6529165e-08
7.4107209e-08
7.1730604e-08
6.9397565e-08
6.7106488e-08
6.485571e-08
6.2643615e-08
6.0468707e-08
5.8329531e-08
5.6224627e-08
5.4152642e-08
5.2112285e-08
5.010148e-08
4.812115e-08
4.6220859e-08
4.4454817e-08
4.2820216e-08
4.1301872e-08
3.9889001e-08
3.8570798e-08
3.7337922e-08
3.6182109e-08
3.5096038e-08
3.4073222e-08
3.3107857e-08
3.2194717e-08
3.1328991e-08
3.0506268e-08
2.9722251e-08
2.8972986e-08
2.8253691e-08
2.7561091e-08
2.6885558e-08
2.623199e-08
2.5550745e-08
2.4966027e-08
2.4097971e-08
0.00012185248
0.00010721571
0.00010192015
9.9229951e-05
9.7525425e-05
9.6325418e-05
9.5433811e-05
9.4749023e-05
9.4210505e-05
9.3779163e-05
9.3428457e-05
9.3139705e-05
9.2899368e-05
9.2697415e-05
9.2526211e-05
9.238001e-05
9.2253909e-05
9.2145543e-05
9.2048129e-05
9.1975442e-05
9.1860203e-05
9.2023581e-05
9.0793421e-05
9.6667123e-05
1.7097948e-05
2.334008e-06
3.7375446e-06
7.7210568e-07
1.9825308e-06
4.7121857e-07
1.383519e-06
3.4463864e-07
1.0710629e-06
8.9842067e-07
8.736506e-07
7.7803347e-07
7.3386783e-07
6.7577592e-07
6.3387677e-07
5.9314555e-07
5.5842807e-07
5.268151e-07
4.9851547e-07
4.7283058e-07
4.4946614e-07
4.2810068e-07
4.0848172e-07
3.9039326e-07
3.7365566e-07
3.5811714e-07
3.4364755e-07
3.3013489e-07
3.1748258e-07
3.0560643e-07
2.9443335e-07
2.838994e-07
2.739478e-07
2.645281e-07
2.5559575e-07
2.4711118e-07
2.3903889e-07
2.3134734e-07
2.2400822e-07
2.1699567e-07
2.1028633e-07
2.0385921e-07
1.9769561e-07
1.9177775e-07
1.8608941e-07
1.8061608e-07
1.7534451e-07
1.7026224e-07
1.6535786e-07
1.6062096e-07
1.5604187e-07
1.5161171e-07
1.4732244e-07
1.4316664e-07
1.3913748e-07
1.3522761e-07
1.3143068e-07
1.2774167e-07
1.2415513e-07
1.2066595e-07
1.1726939e-07
1.1396099e-07
1.1073672e-07
1.0759279e-07
1.045255e-07
1.0153135e-07
9.8607139e-08
9.5749801e-08
9.2956465e-08
9.0224376e-08
8.7550958e-08
8.4933916e-08
8.2370911e-08
7.9859668e-08
7.7398133e-08
7.4984307e-08
7.2616308e-08
7.0292308e-08
6.8010589e-08
6.5769605e-08
6.3567754e-08
6.1403474e-08
5.9275326e-08
5.7181903e-08
5.5121796e-08
5.3093697e-08
5.109636e-08
4.9127768e-08
4.7188838e-08
4.5328071e-08
4.3598588e-08
4.1997718e-08
4.0510622e-08
3.9126754e-08
3.7835552e-08
3.6627876e-08
3.549564e-08
3.4431683e-08
3.342966e-08
3.2483887e-08
3.1589249e-08
3.0741038e-08
2.993494e-08
2.9166745e-08
2.843258e-08
2.7727763e-08
2.7049085e-08
2.6387119e-08
2.5746668e-08
2.5079049e-08
2.4505985e-08
2.3655423e-08
0.00012145396
0.00010649935
0.00010108633
9.8336197e-05
9.6593736e-05
9.5367049e-05
9.4455627e-05
9.3755612e-05
9.3205101e-05
9.2764131e-05
9.240557e-05
9.211032e-05
9.1864544e-05
9.1657987e-05
9.1482845e-05
9.1333245e-05
9.1204177e-05
9.1093223e-05
9.0993451e-05
9.0918913e-05
9.0801051e-05
9.0966728e-05
8.9716203e-05
9.5698211e-05
1.7086935e-05
2.2940435e-06
3.5499145e-06
7.5348116e-07
1.8888277e-06
4.5838854e-07
1.3212855e-06
3.3538889e-07
1.0253683e-06
8.6195869e-07
8.3796109e-07
7.4718512e-07
7.0511636e-07
6.498742e-07
6.0997544e-07
5.7118681e-07
5.3809726e-07
5.0794784e-07
4.809395e-07
4.5641151e-07
4.3408675e-07
4.1366143e-07
3.948956e-07
3.7758421e-07
3.6155685e-07
3.4666963e-07
3.3279914e-07
3.1983917e-07
3.076981e-07
2.9629605e-07
2.8556365e-07
2.754402e-07
2.6587178e-07
2.5681044e-07
2.4821384e-07
2.4004439e-07
2.3226839e-07
2.2485582e-07
2.1777979e-07
2.1101569e-07
2.0454129e-07
1.9833666e-07
1.9238409e-07
1.8666659e-07
1.8116867e-07
1.7587651e-07
1.7077747e-07
1.6585968e-07
1.6111225e-07
1.5652526e-07
1.5208948e-07
1.4779645e-07
1.436386e-07
1.3960886e-07
1.3570071e-07
1.3190693e-07
1.2822152e-07
1.2463982e-07
1.2115662e-07
1.1776699e-07
1.1446641e-07
1.112506e-07
1.0811572e-07
1.0505816e-07
1.0207435e-07
9.9160976e-08
9.6314966e-08
9.3533385e-08
9.0813489e-08
8.8152641e-08
8.5548379e-08
8.2998508e-08
8.0500788e-08
7.8053041e-08
7.5653299e-08
7.3299648e-08
7.0990284e-08
6.8723456e-08
6.6497516e-08
6.4310983e-08
6.216232e-08
6.0050028e-08
5.7972724e-08
5.5929055e-08
5.3917669e-08
5.1937307e-08
4.9986768e-08
4.8064105e-08
4.6170223e-08
4.4352471e-08
4.2662783e-08
4.1098633e-08
3.9645557e-08
3.8293271e-08
3.7031472e-08
3.585124e-08
3.4744684e-08
3.3704815e-08
3.2725442e-08
3.1801015e-08
3.0926535e-08
3.0097411e-08
2.9309429e-08
2.8558477e-08
2.7840769e-08
2.7151733e-08
2.6488231e-08
2.5841056e-08
2.5214904e-08
2.4562155e-08
2.40018e-08
2.3170314e-08
0.00012099974
0.000105678
0.00010012921
9.7309896e-05
9.5523701e-05
9.426628e-05
9.3332042e-05
9.2614501e-05
9.2050193e-05
9.1598148e-05
9.1230553e-05
9.0927832e-05
9.0675801e-05
9.0463951e-05
9.0284283e-05
9.0130777e-05
8.99983e-05
8.9884372e-05
8.9781893e-05
8.9705232e-05
8.9584373e-05
8.9752668e-05
8.8479029e-05
9.4586699e-05
1.709049e-05
2.2525261e-06
3.3522402e-06
7.3343612e-07
1.7892629e-06
4.4452027e-07
1.2548656e-06
3.2536931e-07
9.7645898e-07
8.228334e-07
7.9966401e-07
7.1403779e-07
6.7420681e-07
6.2200359e-07
5.842422e-07
5.4752977e-07
5.1618197e-07
4.8759928e-07
4.6197438e-07
4.386866e-07
4.174772e-07
3.9806109e-07
3.802116e-07
3.6373527e-07
3.4847153e-07
3.3428488e-07
3.2105911e-07
3.0869416e-07
2.9710371e-07
2.8621248e-07
2.7595506e-07
2.6627422e-07
2.5711911e-07
2.484444e-07
2.4021017e-07
2.3238092e-07
2.2492486e-07
2.1781365e-07
2.1102186e-07
2.0452627e-07
1.9830585e-07
1.9234177e-07
1.8661742e-07
1.8111665e-07
1.7582475e-07
1.7072864e-07
1.6581632e-07
1.6107657e-07
1.5649906e-07
1.5207438e-07
1.4779381e-07
1.436493e-07
1.3963381e-07
1.3574067e-07
1.3196365e-07
1.2829568e-07
1.2473113e-07
1.2126577e-07
1.1789459e-07
1.146129e-07
1.1141638e-07
1.0830099e-07
1.0526306e-07
1.0229917e-07
9.9405934e-08
9.658019e-08
9.3819024e-08
9.1119645e-08
8.8479444e-08
8.5895914e-08
8.3366712e-08
8.0889754e-08
7.8462907e-08
7.6084097e-08
7.375145e-08
7.1463144e-08
6.921746e-08
6.7012728e-08
6.4847379e-08
6.2720002e-08
6.0629128e-08
5.8573329e-08
5.655128e-08
5.4561692e-08
5.2603269e-08
5.0674808e-08
4.8775158e-08
4.6902445e-08
4.5057563e-08
4.3286609e-08
4.1640221e-08
4.0116032e-08
3.8699985e-08
3.7382075e-08
3.6152287e-08
3.5001936e-08
3.3923344e-08
3.2909708e-08
3.1955005e-08
3.1053827e-08
3.0201308e-08
2.9392977e-08
2.8624736e-08
2.7892572e-08
2.7192798e-08
2.652096e-08
2.5874e-08
2.5242949e-08
2.4632385e-08
2.3995859e-08
2.3449361e-08
2.2638676e-08
0.00012048568
0.00010474205
9.9037164e-05
9.6138421e-05
9.4302089e-05
9.3009467e-05
9.2049114e-05
9.1311523e-05
9.0731435e-05
9.0266727e-05
8.9888805e-05
8.9577546e-05
8.931837e-05
8.9100472e-05
8.8915633e-05
8.8757667e-05
8.8621296e-05
8.8503974e-05
8.8398408e-05
8.8319327e-05
8.8195066e-05
8.8366321e-05
8.7066632e-05
9.3319228e-05
1.7112555e-05
2.2099054e-06
3.1452029e-06
7.1192641e-07
1.6839729e-06
4.2956401e-07
1.1842749e-06
3.1453748e-07
9.2430772e-07
7.8099675e-07
7.5871136e-07
6.7853761e-07
6.4108404e-07
5.9210743e-07
5.5662011e-07
5.2211757e-07
4.9262584e-07
4.6571382e-07
4.4156544e-07
4.1960225e-07
3.9958508e-07
3.8124849e-07
3.6437982e-07
3.4879783e-07
3.3435239e-07
3.2091688e-07
3.083827e-07
2.9665636e-07
2.8565713e-07
2.7531462e-07