/*--------------------------------*- C++ -*----------------------------------*\
| =========                 |                                                 |
| \\      /  F ield         | OpenFOAM: The Open Source CFD Toolbox           |
|  \\    /   O peration     | Version:  2206                                  |
|   \\  /    A nd           | Website:  www.openfoam.com                      |
|    \\/     M anipulation  |                                                 |
\*---------------------------------------------------------------------------*/
FoamFile
{
    version     2.0;
    format      ascii;
    arch        "LSB;label=32;scalar=64";
    class       volScalarField;
    location    "1900";
    object      nut;
}
// * * * * * * * * * * * * * * * * * * * * * * * * * * * * * * * * * * * * * //

dimensions      [0 2 -1 0 0 0 0];

internalField   nonuniform List<scalar> 
13056
(
6.5517131e-09
5.3326251e-09
4.9449365e-09
4.7536902e-09
4.6335153e-09
4.5495884e-09
4.4876829e-09
4.4404037e-09
4.4033714e-09
4.3737829e-09
4.3497476e-09
4.329938e-09
4.3133893e-09
4.2993775e-09
4.2873334e-09
4.2768025e-09
4.2673335e-09
4.2586361e-09
4.2497543e-09
4.2415526e-09
4.2262282e-09
4.2250334e-09
4.1247315e-09
3.7153938e-09
3.1555553e-11
1.2313086e-11
1.7380564e-11
7.2059183e-12
1.2488256e-11
5.6797636e-12
1.0337384e-11
4.8479483e-12
9.0196625e-12
8.1989862e-12
8.0921495e-12
7.6038354e-12
7.372904e-12
7.0539934e-12
6.8172555e-12
6.5789828e-12
6.370146e-12
6.1746157e-12
5.995046e-12
5.8279648e-12
5.6723286e-12
5.5266976e-12
5.3900063e-12
5.261303e-12
5.1397812e-12
5.0247443e-12
4.9155815e-12
4.8117573e-12
4.7128022e-12
4.6182995e-12
4.5278829e-12
4.4412274e-12
4.3580385e-12
4.2780519e-12
4.2010304e-12
4.1267598e-12
4.0550448e-12
3.9857105e-12
3.9185983e-12
3.8535604e-12
3.7904612e-12
3.7291775e-12
3.6695957e-12
3.6116102e-12
3.5551234e-12
3.5000472e-12
3.4462998e-12
3.3938024e-12
3.3424819e-12
3.2922711e-12
3.2431065e-12
3.194929e-12
3.1476823e-12
3.1013141e-12
3.0557782e-12
3.0110273e-12
2.9670156e-12
2.9237019e-12
2.8810466e-12
2.8390118e-12
2.7975611e-12
2.7566598e-12
2.7162759e-12
2.6763792e-12
2.6369382e-12
2.597923e-12
2.5593056e-12
2.5210583e-12
2.4831544e-12
2.4455673e-12
2.4082716e-12
2.3712444e-12
2.3344608e-12
2.2978954e-12
2.2615248e-12
2.225325e-12
2.1892723e-12
2.1533424e-12
2.1175114e-12
2.0817567e-12
2.0460533e-12
2.0103754e-12
1.9746974e-12
1.9389927e-12
1.9032328e-12
1.8673889e-12
1.8314312e-12
1.7953132e-12
1.759041e-12
1.7235445e-12
1.6899114e-12
1.6581888e-12
1.6281809e-12
1.599763e-12
1.5727951e-12
1.5471558e-12
1.5227344e-12
1.4994308e-12
1.4771539e-12
1.455821e-12
1.4353556e-12
1.4156842e-12
1.396737e-12
1.3784427e-12
1.3607333e-12
1.3435159e-12
1.3267301e-12
1.3101545e-12
1.293915e-12
1.2767953e-12
1.2619108e-12
1.2394511e-12
6.5518334e-09
5.3320211e-09
4.9441124e-09
4.7527599e-09
4.6325193e-09
4.548547e-09
4.4866084e-09
4.4393042e-09
4.4022526e-09
4.372649e-09
4.3486017e-09
4.3287826e-09
4.3122267e-09
4.2982096e-09
4.2861621e-09
4.2756296e-09
4.2661616e-09
4.2574681e-09
4.2485958e-09
4.240409e-09
4.2251218e-09
4.2239775e-09
4.1238863e-09
3.7148033e-09
3.1968363e-11
1.2200591e-11
1.6976838e-11
7.1263161e-12
1.2213255e-11
5.6053833e-12
1.0119769e-11
4.7841335e-12
8.8388939e-12
8.0424364e-12
7.9364554e-12
7.4616911e-12
7.2365704e-12
6.9262664e-12
6.6956953e-12
6.4636984e-12
6.260271e-12
6.0697591e-12
5.8947345e-12
5.7318349e-12
5.5800492e-12
5.4379859e-12
5.3046078e-12
5.1789892e-12
5.0603459e-12
4.9480011e-12
4.8413618e-12
4.7399077e-12
4.6431831e-12
4.5507832e-12
4.4623522e-12
4.3775746e-12
4.2961646e-12
4.217865e-12
4.1424456e-12
4.069698e-12
3.9994327e-12
3.9314799e-12
3.8656857e-12
3.8019064e-12
3.7400105e-12
3.6798782e-12
3.6213998e-12
3.5644728e-12
3.5090019e-12
3.4549013e-12
3.4020915e-12
3.3504958e-12
3.3000431e-12
3.2506681e-12
3.202309e-12
3.1549082e-12
3.1084112e-12
3.0627677e-12
3.0179326e-12
2.9738596e-12
2.9305032e-12
2.8878246e-12
2.8457852e-12
2.8043478e-12
2.7634772e-12
2.7231392e-12
2.683303e-12
2.6439389e-12
2.6050164e-12
2.5665062e-12
2.528381e-12
2.4906136e-12
2.4531782e-12
2.4160489e-12
2.3792006e-12
2.3426111e-12
2.3062559e-12
2.2701103e-12
2.2341513e-12
2.1983552e-12
2.1626991e-12
2.127159e-12
2.0917113e-12
2.0563338e-12
2.0210021e-12
1.9856906e-12
1.950374e-12
1.9150262e-12
1.8796189e-12
1.8441235e-12
1.8085108e-12
1.7727344e-12
1.7368003e-12
1.701629e-12
1.6682987e-12
1.6368576e-12
1.6071123e-12
1.5789395e-12
1.5522011e-12
1.5267769e-12
1.5025577e-12
1.4794442e-12
1.4573465e-12
1.4361828e-12
1.4158772e-12
1.3963571e-12
1.3775534e-12
1.3593955e-12
1.3418159e-12
1.3247226e-12
1.3080556e-12
1.2915951e-12
1.2754665e-12
1.2584584e-12
1.2436692e-12
1.221355e-12
6.5521628e-09
5.3301259e-09
4.9415493e-09
4.7498748e-09
4.6294346e-09
4.5453246e-09
4.4832852e-09
4.4359047e-09
4.3987937e-09
4.3691431e-09
4.3450581e-09
4.3252086e-09
4.308628e-09
4.2945912e-09
4.2825281e-09
4.2719843e-09
4.2625092e-09
4.2538136e-09
4.2449472e-09
4.2367747e-09
4.2215302e-09
4.2204586e-09
4.1206071e-09
3.7128375e-09
3.2404744e-11
1.2088023e-11
1.6574752e-11
7.0462304e-12
1.1938438e-11
5.5304414e-12
9.9019193e-12
4.7197923e-12
8.657711e-12
7.8853597e-12
7.7802497e-12
7.3189957e-12
7.0996813e-12
6.7979687e-12
6.5735611e-12
6.347836e-12
6.1498181e-12
5.9643254e-12
5.7938486e-12
5.6351342e-12
5.4872036e-12
5.3487133e-12
5.2186545e-12
5.0961268e-12
4.9803686e-12
4.8707228e-12
4.7666137e-12
4.6675368e-12
4.5730496e-12
4.4827595e-12
4.3963212e-12
4.3134286e-12
4.2338043e-12
4.1571986e-12
4.0833878e-12
4.0121699e-12
3.9433609e-12
3.8767961e-12
3.8123262e-12
3.7498117e-12
3.689125e-12
3.63015e-12
3.5727811e-12
3.5169183e-12
3.4624688e-12
3.4093492e-12
3.3574824e-12
3.3067938e-12
3.2572141e-12
3.20868e-12
3.1611313e-12
3.1145121e-12
3.0687696e-12
3.0238552e-12
2.9797256e-12
2.9363349e-12
2.8936383e-12
2.8515991e-12
2.8101798e-12
2.7693441e-12
2.7290576e-12
2.6892872e-12
2.6500026e-12
2.6111751e-12
2.5727749e-12
2.5347735e-12
2.4971443e-12
2.4598608e-12
2.4228977e-12
2.3862297e-12
2.3498326e-12
2.3136843e-12
2.2777613e-12
2.2420391e-12
2.2064953e-12
2.1711068e-12
2.1358509e-12
2.1007042e-12
2.0656436e-12
2.0306472e-12
1.9956909e-12
1.9607496e-12
1.9257984e-12
1.8908114e-12
1.8557606e-12
1.820618e-12
1.7853544e-12
1.749924e-12
1.7143325e-12
1.6794909e-12
1.6464677e-12
1.6153123e-12
1.5858337e-12
1.55791e-12
1.5314051e-12
1.5061999e-12
1.4821864e-12
1.4592667e-12
1.4373519e-12
1.4163609e-12
1.3962186e-12
1.3768532e-12
1.3581966e-12
1.3401785e-12
1.3227321e-12
1.3057664e-12
1.2892216e-12
1.2728796e-12
1.2568655e-12
1.2399731e-12
1.2252828e-12
1.2031196e-12
6.5527184e-09
5.3268815e-09
4.9371669e-09
4.7449439e-09
4.6241638e-09
4.5398189e-09
4.4776079e-09
4.4300971e-09
4.3928848e-09
4.3631538e-09
4.339004e-09
4.3191018e-09
4.302478e-09
4.2884057e-09
4.276314e-09
4.2657476e-09
4.2562561e-09
4.2475505e-09
4.2386835e-09
4.2305215e-09
4.2153174e-09
4.2143322e-09
4.1147063e-09
3.7093624e-09
3.2873209e-11
1.1973903e-11
1.6168979e-11
6.9645897e-12
1.1660159e-11
5.4539413e-12
9.6809339e-12
4.6540774e-12
8.4736981e-12
7.7256516e-12
7.6214409e-12
7.1738348e-12
6.9604006e-12
6.667378e-12
6.4492135e-12
6.2298401e-12
6.0373044e-12
5.8568992e-12
5.6910342e-12
5.5365652e-12
5.3925468e-12
5.2576834e-12
5.1309949e-12
5.0116067e-12
4.8987796e-12
4.7918764e-12
4.6903393e-12
4.5936791e-12
4.5014671e-12
4.4133229e-12
4.3289118e-12
4.2479372e-12
4.1701303e-12
4.0952488e-12
4.0230757e-12
3.9534153e-12
3.8860895e-12
3.8209385e-12
3.7578176e-12
3.6965917e-12
3.6371372e-12
3.5793418e-12
3.5231037e-12
3.4683257e-12
3.4149176e-12
3.3627985e-12
3.3118933e-12
3.2621297e-12
3.2134405e-12
3.1657642e-12
3.1190423e-12
3.0732205e-12
3.0282478e-12
2.9840777e-12
2.9406682e-12
2.8979739e-12
2.8559509e-12
2.8145645e-12
2.7737784e-12
2.7335571e-12
2.6938673e-12
2.6546765e-12
2.6159554e-12
2.5776762e-12
2.5398097e-12
2.5023283e-12
2.4652059e-12
2.428417e-12
2.3919367e-12
2.3557406e-12
2.3198047e-12
2.2841079e-12
2.248627e-12
2.2133381e-12
2.1782192e-12
2.1432479e-12
2.1084018e-12
2.0736581e-12
2.0389939e-12
2.004388e-12
1.9698166e-12
1.9352548e-12
1.9006784e-12
1.8660616e-12
1.831377e-12
1.7965967e-12
1.7616918e-12
1.7266171e-12
1.6913781e-12
1.6568759e-12
1.6241692e-12
1.5933084e-12
1.5641049e-12
1.5364386e-12
1.5101749e-12
1.4851962e-12
1.4613959e-12
1.438677e-12
1.4169518e-12
1.3961401e-12
1.3761676e-12
1.3569634e-12
1.3384598e-12
1.3205876e-12
1.3032805e-12
1.2864482e-12
1.2700314e-12
1.253814e-12
1.2379201e-12
1.2211501e-12
1.2065643e-12
1.1845611e-12
6.5535273e-09
5.3221971e-09
4.9308399e-09
4.7378253e-09
4.6165548e-09
4.5318712e-09
4.4694125e-09
4.4217138e-09
4.3843552e-09
4.3545079e-09
4.3302643e-09
4.3102855e-09
4.2935987e-09
4.2794744e-09
4.26734e-09
4.2567391e-09
4.2472209e-09
4.238497e-09
4.2296228e-09
4.221467e-09
4.2063011e-09
4.205417e-09
4.106003e-09
3.7042696e-09
3.3382489e-11
1.1856859e-11
1.5754616e-11
6.8803623e-12
1.1375009e-11
5.3749161e-12
9.4540788e-12
4.5861653e-12
8.2845661e-12
7.5613079e-12
7.4580371e-12
7.0243806e-12
6.8169731e-12
6.5328453e-12
6.3210807e-12
6.1082174e-12
5.9213048e-12
5.746119e-12
5.5849875e-12
5.4348772e-12
5.2948772e-12
5.1637406e-12
5.0405165e-12
4.9243562e-12
4.8145436e-12
4.7104619e-12
4.6115714e-12
4.5173987e-12
4.4275292e-12
4.3415947e-12
4.2592716e-12
4.180273e-12
4.1043386e-12
4.0312341e-12
3.9607493e-12
3.8926947e-12
3.8268982e-12
3.7632053e-12
3.701476e-12
3.6415797e-12
3.5833967e-12
3.5268185e-12
3.4717476e-12
3.4180895e-12
3.3657567e-12
3.3146706e-12
3.2647585e-12
3.2159503e-12
3.168181e-12
3.1213908e-12
3.0755231e-12
3.0305253e-12
2.9863483e-12
2.9429475e-12
2.9002824e-12
2.8583082e-12
2.8169815e-12
2.7762702e-12
2.7361389e-12
2.6965532e-12
2.6574804e-12
2.6188893e-12
2.5807514e-12
2.5430395e-12
2.5057254e-12
2.4687822e-12
2.4321847e-12
2.3959078e-12
2.3599276e-12
2.3242201e-12
2.2887622e-12
2.2535332e-12
2.2185104e-12
2.1836706e-12
2.1489925e-12
2.1144538e-12
2.0800328e-12
2.0457072e-12
2.0114547e-12
1.9772542e-12
1.9430825e-12
1.9089153e-12
1.8747285e-12
1.8404968e-12
1.8061932e-12
1.77179e-12
1.7372589e-12
1.702555e-12
1.6676838e-12
1.6335359e-12
1.60116e-12
1.5706073e-12
1.5416918e-12
1.5142951e-12
1.4882844e-12
1.4635436e-12
1.4399673e-12
1.4174597e-12
1.3959342e-12
1.3753116e-12
1.3555184e-12
1.3364844e-12
1.318143e-12
1.3004254e-12
1.283266e-12
1.2665755e-12
1.2502952e-12
1.2342106e-12
1.2184453e-12
1.2018068e-12
1.1873333e-12
1.1655022e-12
6.554629e-09
5.3159515e-09
4.9223994e-09
4.728328e-09
4.606403e-09
4.5212675e-09
4.4584782e-09
4.4105288e-09
4.3729749e-09
4.3429724e-09
4.3186034e-09
4.298522e-09
4.2817506e-09
4.2675563e-09
4.2553639e-09
4.2447154e-09
4.2351597e-09
4.2264083e-09
4.2175195e-09
4.2093655e-09
4.1942353e-09
4.1934679e-09
4.0942522e-09
3.6974123e-09
3.3942822e-11
1.1735621e-11
1.5327155e-11
6.7925492e-12
1.1079798e-11
5.2924222e-12
9.218769e-12
4.5152493e-12
8.0881363e-12
7.3904102e-12
7.2881317e-12
6.8688782e-12
6.6677121e-12
6.3927823e-12
6.1876471e-12
5.9815261e-12
5.8004416e-12
5.6306665e-12
5.4744447e-12
5.3288569e-12
5.1930281e-12
5.0657619e-12
4.9461368e-12
4.833331e-12
4.7266521e-12
4.6255043e-12
4.5293666e-12
4.437782e-12
4.3503502e-12
4.266716e-12
4.186567e-12
4.1096262e-12
4.0356426e-12
3.9643895e-12
3.895664e-12
3.8292833e-12
3.7650812e-12
3.7029087e-12
3.6426308e-12
3.5841213e-12
3.5272649e-12
3.471957e-12
3.4181042e-12
3.3656152e-12
3.3144049e-12
3.2643974e-12
3.2155224e-12
3.1677121e-12
3.1209036e-12
3.0750391e-12
3.0300638e-12
2.985927e-12
2.9425816e-12
2.8999849e-12
2.8580981e-12
2.8168766e-12
2.776278e-12
2.7362726e-12
2.6968263e-12
2.6579054e-12
2.6194783e-12
2.5815147e-12
2.543987e-12
2.5068688e-12
2.470133e-12
2.4337533e-12
2.3977053e-12
2.3619648e-12
2.3265084e-12
2.291313e-12
2.2563559e-12
2.2216171e-12
2.1870747e-12
2.1527059e-12
2.1184899e-12
2.0844052e-12
2.0504304e-12
2.0165438e-12
1.9827235e-12
1.9489491e-12
1.9151976e-12
1.8814452e-12
1.8476682e-12
1.8138419e-12
1.7799395e-12
1.7459338e-12
1.7117968e-12
1.6774843e-12
1.6430014e-12
1.6092281e-12
1.5772021e-12
1.5469757e-12
1.5183657e-12
1.4912551e-12
1.4655132e-12
1.4410253e-12
1.4176874e-12
1.395405e-12
1.3740927e-12
1.3536722e-12
1.3340707e-12
1.3152191e-12
1.2970516e-12
1.2795001e-12
1.2624997e-12
1.2459621e-12
1.229829e-12
1.2138881e-12
1.198262e-12
1.1817668e-12
1.1674157e-12
1.1457723e-12
6.5560764e-09
5.3079939e-09
4.9116354e-09
4.7162136e-09
4.5934529e-09
4.5077403e-09
4.4445293e-09
4.3962599e-09
4.3584567e-09
4.328256e-09
4.3037268e-09
4.2835144e-09
4.2666347e-09
4.2523503e-09
4.2400831e-09
4.2293729e-09
4.2197674e-09
4.2109785e-09
4.2020671e-09
4.1939099e-09
4.1788127e-09
4.1781788e-09
4.079147e-09
3.688606e-09
3.4566284e-11
1.1609034e-11
1.4882479e-11
6.7001809e-12
1.0771544e-11
5.2055345e-12
8.9725629e-12
4.4405365e-12
7.8823355e-12
7.2111206e-12
7.1098984e-12
6.7056406e-12
6.5109937e-12
6.2456566e-12
6.0474476e-12
5.8483698e-12
5.6733787e-12
5.5092617e-12
5.3581769e-12
5.217323e-12
5.0858627e-12
4.9626517e-12
4.8467989e-12
4.7375106e-12
4.6341186e-12
4.5360493e-12
4.4428008e-12
4.3539334e-12
4.2690618e-12
4.187844e-12
4.1099794e-12
4.0352015e-12
3.9632687e-12
3.8939626e-12
3.8270876e-12
3.7624678e-12
3.6999434e-12
3.6393712e-12
3.5806211e-12
3.5235719e-12
3.4681125e-12
3.4141425e-12
3.3615732e-12
3.310316e-12
3.2602887e-12
3.2114181e-12
3.1636363e-12
3.1168781e-12
3.0710828e-12
3.0261946e-12
2.9821607e-12
2.9389322e-12
2.896464e-12
2.854716e-12
2.8136507e-12
2.7732237e-12
2.7333938e-12
2.6941338e-12
2.6554107e-12
2.617192e-12
2.579447e-12
2.5421463e-12
2.5052634e-12
2.4687728e-12
2.4326481e-12
2.3968642e-12
2.3613972e-12
2.3262239e-12
2.2913216e-12
2.2566678e-12
2.2222407e-12
2.1880209e-12
2.153987e-12
2.120117e-12
2.0863906e-12
2.0527869e-12
2.0192851e-12
1.985864e-12
1.9525023e-12
1.9191799e-12
1.8858745e-12
1.8525627e-12
1.8192213e-12
1.785826e-12
1.7523505e-12
1.718768e-12
1.6850509e-12
1.6511556e-12
1.6170872e-12
1.583714e-12
1.5520622e-12
1.5221851e-12
1.4939022e-12
1.4670985e-12
1.4416453e-12
1.4174293e-12
1.394348e-12
1.3723082e-12
1.351226e-12
1.3310236e-12
1.3116296e-12
1.2929756e-12
1.2749967e-12
1.2576256e-12
1.2407982e-12
1.2244272e-12
1.2084548e-12
1.192671e-12
1.1771974e-12
1.1608599e-12
1.1466435e-12
1.1252072e-12
6.5579393e-09
5.2981459e-09
4.8982974e-09
4.7011981e-09
4.5773999e-09
4.4909713e-09
4.4272369e-09
4.3785707e-09
4.3404583e-09
4.3100118e-09
4.2852838e-09
4.2649087e-09
4.2478943e-09
4.2334979e-09
4.2211371e-09
4.2103493e-09
4.2006808e-09
4.1918433e-09
4.1829003e-09
4.1747343e-09
4.1596672e-09
4.1591849e-09
4.0603211e-09
3.6776298e-09
3.5267223e-11
1.147608e-11
1.4416885e-11
6.6023176e-12
1.044749e-11
5.1133455e-12
8.7131704e-12
4.3612463e-12
7.6652007e-12
7.0216847e-12
6.9215938e-12
6.5330502e-12
6.3452584e-12
6.0899923e-12
5.8990689e-12
5.7073988e-12
5.5388221e-12
5.3806628e-12
5.2349904e-12
5.0991261e-12
4.9722731e-12
4.8533412e-12
4.7414708e-12
4.6358972e-12
4.5359778e-12
4.441162e-12
4.3509681e-12
4.2649743e-12
4.1828111e-12
4.1041505e-12
4.0287041e-12
3.9562165e-12
3.8864558e-12
3.8192123e-12
3.7542982e-12
3.6915449e-12
3.6307993e-12
3.5719241e-12
3.5147947e-12
3.4592948e-12
3.4053178e-12
3.352768e-12
3.3015611e-12
3.2516119e-12
3.202841e-12
3.155178e-12
3.1085577e-12
3.0629174e-12
3.0181987e-12
2.9743481e-12
2.9313149e-12
2.889052e-12
2.8475169e-12
2.8066715e-12
2.7664801e-12
2.7268985e-12
2.6878863e-12
2.6494196e-12
2.6114664e-12
2.5739952e-12
2.5369764e-12
2.5003817e-12
2.4641854e-12
2.4283633e-12
2.3928899e-12
2.3577407e-12
2.3228931e-12
2.2883244e-12
2.2540129e-12
2.2199368e-12
2.1860752e-12
2.1524091e-12
2.1189179e-12
2.0855805e-12
2.052377e-12
2.0192871e-12
1.9862909e-12
1.9533674e-12
1.9204961e-12
1.8876574e-12
1.8548295e-12
1.8219896e-12
1.789115e-12
1.7561818e-12
1.7231643e-12
1.6900362e-12
1.6567703e-12
1.6233236e-12
1.5897012e-12
1.5567591e-12
1.5255109e-12
1.4960108e-12
1.4680816e-12
1.4416099e-12
1.4164693e-12
1.3925482e-12
1.3697455e-12
1.3479695e-12
1.3271375e-12
1.307173e-12
1.2880054e-12
1.2695672e-12
1.2517946e-12
1.2346213e-12
1.2179837e-12
1.2017957e-12
1.1860002e-12
1.1703897e-12
1.1550845e-12
1.1389219e-12
1.1248551e-12
1.1036489e-12
6.5603074e-09
5.2862042e-09
4.8820976e-09
4.6829541e-09
4.5578926e-09
4.4705928e-09
4.4062219e-09
4.3570731e-09
4.3185848e-09
4.2878393e-09
4.2628697e-09
4.2422965e-09
4.2251183e-09
4.2105853e-09
4.1981102e-09
4.1872272e-09
4.1774806e-09
4.1685821e-09
4.1595976e-09
4.1514165e-09
4.136376e-09
4.1360652e-09
4.0373516e-09
3.6642271e-09
3.6062807e-11
1.1335915e-11
1.3927139e-11
6.498055e-12
1.0105134e-11
5.0149677e-12
8.4384745e-12
4.2766116e-12
7.4348951e-12
6.8204438e-12
6.7215696e-12
6.3495696e-12
6.1690207e-12
5.9243789e-12
5.7411568e-12
5.5573166e-12
5.395526e-12
5.2436717e-12
5.103731e-12
4.9731533e-12
4.851185e-12
4.7367922e-12
4.6291485e-12
4.527519e-12
4.4312883e-12
4.3399296e-12
4.2529829e-12
4.170045e-12
4.090763e-12
4.0148237e-12
3.9419517e-12
3.8719028e-12
3.8044558e-12
3.7394101e-12
3.6765859e-12
3.6158225e-12
3.5569738e-12
3.4999088e-12
3.4445085e-12
3.3906619e-12
3.3382674e-12
3.2872338e-12
3.2374821e-12
3.18893e-12
3.1415014e-12
3.0951288e-12
3.04975e-12
3.0053046e-12
2.9617371e-12
2.918996e-12
2.877033e-12
2.8358029e-12
2.795266e-12
2.7553866e-12
2.7161308e-12
2.677454e-12
2.6393173e-12
2.6017e-12
2.5645713e-12
2.5279009e-12
2.4916601e-12
2.4558219e-12
2.4203617e-12
2.3852562e-12
2.3504809e-12
2.3160126e-12
2.2818292e-12
2.2479092e-12
2.2142317e-12
2.1807757e-12
2.1475209e-12
2.1144495e-12
2.0815414e-12
2.0487761e-12
2.0161346e-12
1.9835973e-12
1.9511447e-12
1.9187567e-12
1.8864133e-12
1.8540955e-12
1.8217821e-12
1.7894509e-12
1.7570798e-12
1.7246454e-12
1.6921225e-12
1.6594855e-12
1.6267075e-12
1.5937465e-12
1.5606074e-12
1.5281329e-12
1.4973227e-12
1.4682326e-12
1.4406881e-12
1.4145781e-12
1.3897784e-12
1.3661792e-12
1.343681e-12
1.3221936e-12
1.3016358e-12
1.2819322e-12
1.2630131e-12
1.2448124e-12
1.227267e-12
1.2103116e-12
1.1938837e-12
1.1778981e-12
1.1622985e-12
1.1468803e-12
1.1317622e-12
1.1157947e-12
1.1018949e-12
1.0809458e-12
6.5632951e-09
5.2719424e-09
4.8627123e-09
4.6611129e-09
4.5345354e-09
4.4461907e-09
4.3810568e-09
4.3313296e-09
4.292391e-09
4.2612874e-09
4.2360283e-09
4.2152179e-09
4.1978432e-09
4.1831461e-09
4.1705336e-09
4.1595358e-09
4.1496947e-09
4.1407213e-09
4.1316841e-09
4.123481e-09
4.1084631e-09
4.1083456e-09
4.0097625e-09
3.6481063e-09
3.6973734e-11
1.1187919e-11
1.3410556e-11
6.3865345e-12
9.74228e-12
4.90954e-12
8.1465678e-12
4.1858838e-12
7.1897365e-12
6.6058575e-12
6.5082952e-12
6.1537609e-12
5.9808875e-12
5.7474872e-12
5.5724311e-12
5.3968934e-12
5.2423056e-12
5.0971459e-12
4.9632956e-12
4.8383381e-12
4.7215665e-12
4.6120061e-12
4.5088642e-12
4.4114377e-12
4.3191396e-12
4.2314684e-12
4.1479865e-12
4.0683108e-12
3.9921057e-12
3.9190736e-12
3.8489527e-12
3.7815112e-12
3.7165387e-12
3.6538441e-12
3.5932565e-12
3.5346232e-12
3.4778056e-12
3.4226795e-12
3.3691318e-12
3.3170571e-12
3.266359e-12
3.2169512e-12
3.1687601e-12
3.121707e-12
3.0757187e-12
3.0307311e-12
2.9866848e-12
2.9435225e-12
2.9011911e-12
2.8596417e-12
2.8188283e-12
2.778708e-12
2.7392439e-12
2.7004031e-12
2.6621532e-12
2.6244493e-12
2.5872541e-12
2.5505506e-12
2.5143091e-12
2.4785003e-12
2.443097e-12
2.4080732e-12
2.3734055e-12
2.3390717e-12
2.3050485e-12
2.2713136e-12
2.2378461e-12
2.2046253e-12
2.1716312e-12
2.1388438e-12
2.1062438e-12
2.073814e-12
2.0415351e-12
2.0093876e-12
1.9773531e-12
1.9454126e-12
1.9135476e-12
1.8817385e-12
1.8499661e-12
1.8182121e-12
1.7864558e-12
1.7546757e-12
1.7228502e-12
1.6909567e-12
1.6589707e-12
1.626867e-12
1.5946194e-12
1.5621867e-12
1.5295737e-12
1.4976088e-12
1.4672767e-12
1.4386342e-12
1.4115105e-12
1.3857963e-12
1.3613702e-12
1.338124e-12
1.3159602e-12
1.2947902e-12
1.2745342e-12
1.255118e-12
1.2364733e-12
1.2185347e-12
1.2012407e-12
1.1845268e-12
1.1683312e-12
1.1525704e-12
1.1371888e-12
1.1219846e-12
1.1070752e-12
1.0913261e-12
1.0776133e-12
1.0569523e-12
6.5670481e-09
5.2551145e-09
4.839785e-09
4.6352672e-09
4.5068904e-09
4.4173067e-09
4.3512686e-09
4.3008564e-09
4.2613846e-09
4.2298571e-09
4.2042552e-09
4.1831639e-09
4.1655564e-09
4.1506649e-09
4.1378894e-09
4.126755e-09
4.1168007e-09
4.1077372e-09
4.0986349e-09
4.0904019e-09
4.075402e-09
4.0755016e-09
3.977028e-09
3.6289413e-09
3.8025122e-11
1.1031777e-11
1.2865111e-11
6.2669598e-12
9.3571029e-12
4.7962385e-12
7.8358045e-12
4.08834e-12
6.9282382e-12
6.3765373e-12
6.280391e-12
5.9443151e-12
5.7795853e-12
5.5580948e-12
5.3917096e-12
5.2249883e-12
5.0780572e-12
4.9400172e-12
4.8126489e-12
4.6936769e-12
4.5824441e-12
4.4780376e-12
4.3797e-12
4.2867614e-12
4.1986644e-12
4.1149345e-12
4.0351577e-12
3.958972e-12
3.8860602e-12
3.816141e-12
3.7489672e-12
3.6843197e-12
3.6219999e-12
3.5618267e-12
3.5036384e-12
3.447291e-12
3.392654e-12
3.33961e-12
3.2880524e-12
3.2378817e-12
3.1890069e-12
3.141347e-12
3.0948345e-12
3.0493938e-12
3.0049554e-12
2.9614583e-12
2.9188465e-12
2.8770657e-12
2.8360655e-12
2.7957998e-12
2.756225e-12
2.7173005e-12
2.6789928e-12
2.6412719e-12
2.604107e-12
2.5674524e-12
2.5312727e-12
2.4955551e-12
2.4602711e-12
2.4253925e-12
2.3908934e-12
2.356749e-12
2.3229373e-12
2.2894372e-12
2.2562266e-12
2.2232844e-12
2.1905907e-12
2.1581259e-12
2.125871e-12
2.093807e-12
2.0619156e-12
2.0301802e-12
1.9985827e-12
1.9671042e-12
1.9357273e-12
1.9044338e-12
1.8732059e-12
1.8420248e-12
1.8108721e-12
1.7797301e-12
1.7485789e-12
1.7173977e-12
1.6861657e-12
1.6548609e-12
1.6234594e-12
1.5919368e-12
1.5602676e-12
1.5284115e-12
1.4963734e-12
1.4649657e-12
1.4351568e-12
1.4070048e-12
1.3803425e-12
1.3550631e-12
1.3310475e-12
1.3081899e-12
1.2863944e-12
1.2655743e-12
1.2456515e-12
1.2265531e-12
1.2082118e-12
1.1905637e-12
1.1735485e-12
1.1571026e-12
1.1411654e-12
1.1256547e-12
1.110516e-12
1.0955508e-12
1.0808745e-12
1.0653702e-12
1.051867e-12
1.0315296e-12
6.5717507e-09
5.2354583e-09
4.8129293e-09
4.6049742e-09
4.4744815e-09
4.3834422e-09
4.3163426e-09
4.2651268e-09
4.2250295e-09
4.193005e-09
4.1670013e-09
4.1455806e-09
4.1277002e-09
4.1125807e-09
4.0996136e-09
4.0883185e-09
4.0782307e-09
4.0690599e-09
4.0598789e-09
4.0516072e-09
4.0366201e-09
4.0369627e-09
3.938577e-09
3.6063721e-09
3.9247656e-11
1.0867578e-11
1.2289573e-11
6.1386205e-12
8.9482434e-12
4.6742928e-12
7.5048694e-12
3.9832964e-12
6.6491633e-12
6.1312921e-12
6.0366734e-12
5.7200924e-12
5.5639991e-12
5.3551213e-12
5.1979403e-12
5.0405794e-12
4.9017866e-12
4.7713181e-12
4.6508492e-12
4.5382525e-12
4.4329242e-12
4.3340162e-12
4.2408077e-12
4.1526629e-12
4.0690563e-12
3.9895411e-12
3.9137288e-12
3.8412791e-12
3.7718945e-12
3.705311e-12
3.6412966e-12
3.5796459e-12
3.5201725e-12
3.4627058e-12
3.4070939e-12
3.3532023e-12
3.3009086e-12
3.2501029e-12
3.2006856e-12
3.1525632e-12
3.1056506e-12
3.0598724e-12
3.0151673e-12
2.9714634e-12
2.9286949e-12
2.8868043e-12
2.8457389e-12
2.8054476e-12
2.7658831e-12
2.7270022e-12
2.6887637e-12
2.6511297e-12
2.6140705e-12
2.577559e-12
2.5415663e-12
2.5060449e-12
2.4709625e-12
2.4363104e-12
2.4020615e-12
2.3681886e-12
2.3346673e-12
2.3014742e-12
2.2685886e-12
2.2359907e-12
2.2036597e-12
2.1715758e-12
2.1397201e-12
2.1080742e-12
2.0766203e-12
2.0453402e-12
2.0142168e-12
1.9832345e-12
1.9523761e-12
1.9216236e-12
1.8909605e-12
1.8603696e-12
1.8298338e-12
1.7993352e-12
1.7688563e-12
1.73838e-12
1.7078874e-12
1.6773585e-12
1.646773e-12
1.61611e-12
1.5853462e-12
1.554458e-12
1.5234208e-12
1.4921951e-12
1.4607861e-12
1.4299888e-12
1.4007538e-12
1.3731402e-12
1.346985e-12
1.3221836e-12
1.2986201e-12
1.2761907e-12
1.2548016e-12
1.2343679e-12
1.2148134e-12
1.1960666e-12
1.1780614e-12
1.1607355e-12
1.1440297e-12
1.1278817e-12
1.1122321e-12
1.0970001e-12
1.0821321e-12
1.0674338e-12
1.0530181e-12
1.0377881e-12
1.0245201e-12
1.0045456e-12
6.5776358e-09
5.2127008e-09
4.7817332e-09
4.5697596e-09
4.4367978e-09
4.344062e-09
4.2757265e-09
4.2235754e-09
4.1827508e-09
4.1501483e-09
4.1236776e-09
4.1018742e-09
4.0836766e-09
4.0682919e-09
4.0551019e-09
4.0436195e-09
4.0333756e-09
4.0240789e-09
4.0148038e-09
4.0064837e-09
3.9915038e-09
3.992117e-09
3.8937987e-09
3.5800061e-09
4.067903e-11
1.0695945e-11
1.1683667e-11
6.0009234e-12
8.5149138e-12
4.5430074e-12
7.1528634e-12
3.8701241e-12
6.3515946e-12
5.8691864e-12
5.7762135e-12
5.4801748e-12
5.333221e-12
5.1376735e-12
4.9902445e-12
4.8428038e-12
4.7126466e-12
4.5902172e-12
4.4770811e-12
4.371265e-12
4.2722231e-12
4.1791742e-12
4.0914348e-12
4.0084055e-12
3.9295932e-12
3.8545812e-12
3.7830069e-12
3.7145536e-12
3.648944e-12
3.5859324e-12
3.525303e-12
3.4668644e-12
3.4104436e-12
3.3558807e-12
3.3030344e-12
3.2517798e-12
3.2020035e-12
3.1536036e-12
3.1064874e-12
3.0605681e-12
3.0157668e-12
2.9720138e-12
2.9292548e-12
2.8874218e-12
2.8464524e-12
2.8062931e-12
2.7668947e-12
2.7282096e-12
2.6901937e-12
2.6528067e-12
2.6160102e-12
2.5797692e-12
2.5440582e-12
2.5088531e-12
2.4741269e-12
2.4398301e-12
2.4059334e-12
2.3724332e-12
2.3393036e-12
2.3065186e-12
2.2740551e-12
2.2418915e-12
2.2100082e-12
2.1783871e-12
2.1470086e-12
2.1158543e-12
2.0849065e-12
2.0541482e-12
2.0235624e-12
1.9931324e-12
1.9628421e-12
1.9326769e-12
1.9026206e-12
1.8726564e-12
1.8427686e-12
1.812941e-12
1.7831574e-12
1.753401e-12
1.723655e-12
1.6939034e-12
1.664128e-12
1.6343097e-12
1.6044292e-12
1.5744662e-12
1.5443985e-12
1.5142035e-12
1.483857e-12
1.4533212e-12
1.422601e-12
1.3924728e-12
1.3638673e-12
1.336845e-12
1.3112471e-12
1.2869719e-12
1.2639062e-12
1.2419488e-12
1.2210081e-12
1.2010012e-12
1.181854e-12
1.1634962e-12
1.1458634e-12
1.1288946e-12
1.1125323e-12
1.0967153e-12
1.0813854e-12
1.0664636e-12
1.0518974e-12
1.0374968e-12
1.0233721e-12
1.0084493e-12
9.9544463e-13
9.7587687e-13
6.584998e-09
5.1865634e-09
4.7457643e-09
4.5291232e-09
4.3932996e-09
4.2986005e-09
4.228836e-09
4.1756046e-09
4.1339404e-09
4.1006712e-09
4.0736618e-09
4.0514169e-09
4.0328535e-09
4.0171628e-09
4.0037157e-09
3.9920168e-09
3.9815921e-09
3.9721489e-09
3.9627631e-09
3.9543839e-09
3.9394048e-09
3.9403183e-09
3.8420499e-09
3.5494183e-09
4.2365789e-11
1.0518218e-11
1.1048248e-11
5.8534335e-12
8.0570251e-12
4.401791e-12
6.7794042e-12
3.7482723e-12
6.0350174e-12
5.5896115e-12
5.4984078e-12
5.2239295e-12
5.0866121e-12
4.9051022e-12
4.7679697e-12
4.6310075e-12
4.5099838e-12
4.3960636e-12
4.2906972e-12
4.1920723e-12
4.0997045e-12
4.0128818e-12
3.9309593e-12
3.8533745e-12
3.7796689e-12
3.7094566e-12
3.6424026e-12
3.5782144e-12
3.5166364e-12
3.4574418e-12
3.4004316e-12
3.3454296e-12
3.2922761e-12
3.240823e-12
3.1909399e-12
3.1425123e-12
3.0954361e-12
3.0496175e-12
3.0049716e-12
2.9614183e-12
2.9188852e-12
2.877309e-12
2.8366427e-12
2.7968219e-12
2.7577884e-12
2.7194926e-12
2.681889e-12
2.6449338e-12
2.6085862e-12
2.572809e-12
2.537567e-12
2.5028278e-12
2.4685712e-12
2.434776e-12
2.4014169e-12
2.3684419e-12
2.3358254e-12
2.3035695e-12
2.2716491e-12
2.2400397e-12
2.2087198e-12
2.1776691e-12
2.14687e-12
2.1163055e-12
2.0859577e-12
2.0558095e-12
2.0258448e-12
1.9960475e-12
1.9664022e-12
1.9368934e-12
1.907506e-12
1.8782267e-12
1.8490405e-12
1.8199315e-12
1.7908853e-12
1.7618865e-12
1.7329201e-12
1.7039703e-12
1.6750213e-12
1.6460579e-12
1.6170631e-12
1.5880186e-12
1.5589062e-12
1.5297065e-12
1.5003983e-12
1.4709599e-12
1.4413682e-12
1.4115866e-12
1.3816202e-12
1.3522249e-12
1.3243096e-12
1.2979362e-12
1.2729505e-12
1.2492536e-12
1.2267357e-12
1.2052982e-12
1.1848518e-12
1.1653159e-12
1.1466183e-12
1.1286905e-12
1.1114697e-12
1.0948964e-12
1.0789148e-12
1.063465e-12
1.04849e-12
1.0339129e-12
1.0196824e-12
1.0056134e-12
9.9181302e-13
9.7723309e-13
9.645226e-13
9.4540944e-13
6.5942091e-09
5.156771e-09
4.7045773e-09
4.4825457e-09
4.3434256e-09
4.2464688e-09
4.1750633e-09
4.1205925e-09
4.0779656e-09
4.0439325e-09
4.0163062e-09
3.9935559e-09
3.9745736e-09
3.9585328e-09
3.944791e-09
3.932844e-09
3.9222117e-09
3.9125996e-09
3.9030851e-09
3.894635e-09
3.8796499e-09
3.8808949e-09
3.782664e-09
3.5141548e-09
4.4365646e-11
1.0336675e-11
1.0385484e-11
5.6959255e-12
7.5753249e-12
4.2501918e-12
6.3847416e-12
3.6172966e-12
5.6994162e-12
5.2923688e-12
5.2030622e-12
4.9510854e-12
4.8238743e-12
4.6570697e-12
4.530754e-12
4.4048057e-12
4.293396e-12
4.1884407e-12
4.0912699e-12
4.0002378e-12
3.9149254e-12
3.8346918e-12
3.7589306e-12
3.6871178e-12
3.6188305e-12
3.5537147e-12
3.4914642e-12
3.4318118e-12
3.3745241e-12
3.3193943e-12
3.2662409e-12
3.2149033e-12
3.165236e-12
3.1171029e-12
3.0703851e-12
3.0249789e-12
2.9807899e-12
2.9377333e-12
2.8957316e-12
2.8547122e-12
2.8146095e-12
2.7753666e-12
2.7369445e-12
2.6992825e-12
2.6623268e-12
2.6260318e-12
2.590356e-12
2.5552593e-12
2.5207048e-12
2.4866584e-12
2.4530879e-12
2.4199645e-12
2.3872733e-12
2.3549963e-12
2.3231098e-12
2.2915584e-12
2.2603212e-12
2.2294064e-12
2.19879e-12
2.1684485e-12
2.1383621e-12
2.1085126e-12
2.0788836e-12
2.04946e-12
2.0202253e-12
1.9911641e-12
1.9622615e-12
1.9335031e-12
1.9048748e-12
1.8763623e-12
1.847952e-12
1.8196316e-12
1.7913873e-12
1.7632047e-12
1.7350703e-12
1.7069701e-12
1.6788899e-12
1.6508152e-12
1.6227312e-12
1.5946239e-12
1.5664772e-12
1.538274e-12
1.5099971e-12
1.4816283e-12
1.4531473e-12
1.4245335e-12
1.3957651e-12
1.3668068e-12
1.337664e-12
1.3090699e-12
1.2819101e-12
1.2562474e-12
1.2319329e-12
1.2088707e-12
1.1869544e-12
1.1660883e-12
1.1461857e-12
1.1271684e-12
1.1089663e-12
1.0915128e-12
1.0747466e-12
1.0586102e-12
1.0430495e-12
1.0280059e-12
1.013424e-12
9.9922896e-13
9.8537079e-13
9.7166985e-13
9.5822991e-13
9.4403168e-13
9.3164871e-13
9.1304185e-13
6.6057381e-09
5.1230625e-09
4.6577228e-09
4.4294983e-09
4.2866023e-09
4.1870649e-09
4.1137866e-09
4.0579029e-09
4.0141798e-09
3.9792773e-09
3.9509492e-09
3.9276244e-09
3.908166e-09
3.8917271e-09
3.8776503e-09
3.865421e-09
3.8545522e-09
3.8447471e-09
3.8350844e-09
3.8265508e-09
3.8115523e-09
3.8131613e-09
3.7149579e-09
3.4737391e-09
4.6750408e-11
1.015483e-11
9.6990291e-12
5.5284463e-12
7.0715409e-12
4.0879417e-12
5.9698806e-12
3.4768932e-12
5.3453808e-12
4.9777638e-12
4.8904849e-12
4.6618193e-12
4.5451338e-12
4.3936277e-12
4.2785997e-12
4.1641523e-12
4.0627981e-12
3.967229e-12
3.8786505e-12
3.7955879e-12
3.7176911e-12
3.6443909e-12
3.5751199e-12
3.5093933e-12
3.4468242e-12
3.3870921e-12
3.3299201e-12
3.2750672e-12
3.222323e-12
3.1715012e-12
3.1224384e-12