/*--------------------------------*- C++ -*----------------------------------*\
| =========                 |                                                 |
| \\      /  F ield         | OpenFOAM: The Open Source CFD Toolbox           |
|  \\    /   O peration     | Version:  2206                                  |
|   \\  /    A nd           | Website:  www.openfoam.com                      |
|    \\/     M anipulation  |                                                 |
\*---------------------------------------------------------------------------*/
FoamFile
{
    version     2.0;
    format      ascii;
    arch        "LSB;label=32;scalar=64";
    class       volScalarField;
    location    "1900";
    object      p;
}
// * * * * * * * * * * * * * * * * * * * * * * * * * * * * * * * * * * * * * //

dimensions      [0 2 -2 0 0 0 0];

internalField   nonuniform List<scalar> 
13056
(
0.011688544
0.011795105
0.01201658
0.012296026
0.012637066
0.013038958
0.013498446
0.01401471
0.014589355
0.015225698
0.015928754
0.016705731
0.017566534
0.01852532
0.019600768
0.020822959
0.022226392
0.023891594
0.025865397
0.028464004
0.031538768
0.036949127
0.041871409
0.082613289
0.05194548
0.001499673
0.00076222661
0.0018501855
0.0023628048
0.0027857434
0.0030522064
0.0032438762
0.0033839115
0.003481919
0.0035505725
0.0035995309
0.0036344544
0.0036588815
0.0036753024
0.0036857475
0.0036915926
0.0036937162
0.003692887
0.0036897266
0.0036846304
0.0036778976
0.0036698076
0.0036605634
0.0036503447
0.003639272
0.0036274282
0.0036149061
0.0036017733
0.0035880909
0.0035739183
0.0035592787
0.0035441891
0.0035286781
0.0035127664
0.0034964668
0.0034797946
0.0034627665
0.0034453751
0.0034276121
0.0034094828
0.0033909849
0.0033721166
0.0033528717
0.003333249
0.0033132471
0.0032928405
0.0032720112
0.0032507519
0.0032290488
0.0032068855
0.0031842494
0.0031611189
0.0031374872
0.0031133291
0.003088599
0.0030632822
0.0030373538
0.0030107834
0.0029835431
0.0029556005
0.0029269243
0.0028974843
0.0028672271
0.0028361021
0.0028040697
0.0027710799
0.0027370786
0.0027020125
0.0026658152
0.0026284334
0.0025897923
0.0025497927
0.0025083618
0.0024654082
0.0024208323
0.0023745308
0.0023263827
0.0022762756
0.00222407
0.0021695957
0.0021127024
0.0020532117
0.001990935
0.0019256603
0.001857192
0.0017852779
0.0017096516
0.0016304387
0.0015481585
0.001464616
0.001382077
0.0013011817
0.0012218124
0.0011439888
0.0010677429
0.00099312152
0.00092020379
0.00084910043
0.00077996004
0.00071295949
0.00064833344
0.00058641139
0.00052760225
0.00047252883
0.00042181166
0.00037700832
0.00033846134
0.00031205055
0.00029137678
0.00043693454
-0.00039468916
0.011688544
0.011795105
0.01201658
0.012296026
0.012637066
0.013038958
0.013498446
0.01401471
0.014589355
0.015225698
0.015928755
0.016705731
0.017566534
0.018525321
0.019600769
0.02082296
0.022226393
0.023891596
0.0258654
0.028464009
0.031538774
0.036949138
0.041871449
0.082608074
0.051957201
0.0015072677
0.00076421596
0.001851048
0.0023633315
0.0027861155
0.0030524882
0.0032440999
0.0033840945
0.0034820723
0.0035507033
0.0035996442
0.0036345537
0.0036589694
0.0036753808
0.0036858178
0.0036916562
0.003693774
0.0036929397
0.0036897749
0.0036846749
0.0036779387
0.0036698457
0.0036605987
0.0036503776
0.0036393027
0.0036274569
0.003614933
0.0036017986
0.0035881146
0.0035739407
0.0035592997
0.003544209
0.0035286969
0.0035127841
0.0034964837
0.0034798105
0.0034627817
0.0034453894
0.0034276257
0.0034094958
0.0033909973
0.0033721283
0.0033528829
0.0033332597
0.0033132573
0.0032928502
0.0032720204
0.0032507607
0.0032290573
0.0032068936
0.0031842571
0.0031611263
0.0031374942
0.0031133358
0.0030886055
0.0030632883
0.0030373597
0.003010789
0.0029835485
0.0029556056
0.0029269292
0.002897489
0.0028672316
0.0028361063
0.0028040738
0.0027710838
0.0027370823
0.0027020161
0.0026658186
0.0026284367
0.0025897954
0.0025497957
0.0025083647
0.0024654109
0.0024208348
0.0023745333
0.002326385
0.0022762778
0.0022240721
0.0021695977
0.0021127043
0.0020532135
0.0019909367
0.0019256619
0.0018571935
0.0017852793
0.0017096529
0.0016304399
0.0015481597
0.0014646171
0.0013820781
0.0013011827
0.0012218133
0.0011439897
0.0010677437
0.00099312233
0.00092020456
0.00084910116
0.00077996075
0.00071296016
0.00064833409
0.00058641202
0.00052760286
0.00047252941
0.00042181223
0.00037700888
0.00033846189
0.0003120511
0.00029137738
0.00043693515
-0.00039468876
0.011688544
0.011795105
0.01201658
0.012296026
0.012637066
0.013038958
0.013498447
0.014014711
0.014589356
0.015225699
0.015928755
0.016705732
0.017566535
0.018525322
0.01960077
0.020822961
0.022226395
0.023891599
0.025865403
0.028464013
0.03153878
0.03694915
0.041871482
0.082603219
0.051973177
0.0015143339
0.00076640669
0.0018520562
0.0023639472
0.0027865506
0.0030528175
0.0032443614
0.0033843085
0.0034822516
0.0035508564
0.0035997767
0.0036346698
0.0036590721
0.0036754724
0.0036859001
0.0036917305
0.0036938416
0.0036930014
0.0036898315
0.0036847269
0.0036779867
0.0036698901
0.00366064
0.0036504161
0.0036393386
0.0036274904
0.0036149645
0.0036018281
0.0035881424
0.0035739668
0.0035593243
0.0035442323
0.0035287189
0.0035128049
0.0034965033
0.0034798292
0.0034627994
0.0034454063
0.0034276417
0.003409511
0.0033910117
0.0033721421
0.003352896
0.0033332722
0.0033132692
0.0032928616
0.0032720313
0.0032507711
0.0032290671
0.003206903
0.0031842661
0.0031611349
0.0031375024
0.0031133437
0.003088613
0.0030632955
0.0030373666
0.0030107956
0.0029835548
0.0029556116
0.002926935
0.0028974945
0.0028672369
0.0028361114
0.0028040786
0.0027710884
0.0027370867
0.0027020203
0.0026658226
0.0026284405
0.002589799
0.0025497992
0.002508368
0.002465414
0.0024208378
0.0023745361
0.0023263877
0.0022762804
0.0022240745
0.0021696
0.0021127064
0.0020532155
0.0019909386
0.0019256638
0.0018571952
0.0017852809
0.0017096545
0.0016304414
0.001548161
0.0014646184
0.0013820793
0.0013011838
0.0012218144
0.0011439907
0.0010677447
0.00099312327
0.00092020546
0.00084910202
0.00077996157
0.00071296095
0.00064833485
0.00058641275
0.00052760356
0.0004725301
0.0004218129
0.00037700953
0.00033846253
0.00031205175
0.00029137803
0.00043693587
-0.00039468832
0.011688544
0.011795105
0.01201658
0.012296026
0.012637066
0.013038958
0.013498447
0.014014711
0.014589356
0.015225699
0.015928755
0.016705732
0.017566536
0.018525322
0.019600771
0.020822963
0.022226397
0.023891601
0.025865406
0.028464018
0.031538786
0.036949161
0.041871516
0.082598506
0.051990876
0.001519343
0.00076844254
0.0018530333
0.002364544
0.0027869723
0.0030531368
0.0032446149
0.0033845159
0.0034824253
0.0035510046
0.0035999051
0.0036347823
0.0036591716
0.0036755611
0.0036859798
0.0036918026
0.003693907
0.0036930611
0.0036898863
0.0036847774
0.0036780333
0.0036699333
0.0036606801
0.0036504533
0.0036393734
0.003627523
0.003614995
0.0036018567
0.0035881693
0.0035739921
0.0035593482
0.0035442548
0.0035287401
0.003512825
0.0034965224
0.0034798473
0.0034628165
0.0034454225
0.0034276572
0.0034095257
0.0033910258
0.0033721554
0.0033529087
0.0033332843
0.0033132807
0.0032928726
0.0032720418
0.0032507811
0.0032290767
0.0032069122
0.0031842748
0.0031611432
0.0031375104
0.0031133513
0.0030886203
0.0030633025
0.0030373732
0.003010802
0.0029835609
0.0029556175
0.0029269406
0.0028974999
0.002867242
0.0028361162
0.0028040832
0.0027710929
0.0027370909
0.0027020243
0.0026658265
0.0026284442
0.0025898026
0.0025498025
0.0025083711
0.0024654171
0.0024208407
0.0023745389
0.0023263903
0.0022762828
0.0022240769
0.0021696022
0.0021127086
0.0020532175
0.0019909405
0.0019256656
0.0018571969
0.0017852825
0.001709656
0.0016304428
0.0015481623
0.0014646196
0.0013820805
0.0013011849
0.0012218155
0.0011439917
0.0010677457
0.00099312418
0.00092020633
0.00084910285
0.00077996236
0.00071296172
0.00064833558
0.00058641345
0.00052760425
0.00047253076
0.00042181354
0.00037701017
0.00033846316
0.00031205238
0.00029137864
0.00043693656
-0.00039468791
0.011688544
0.011795105
0.01201658
0.012296026
0.012637066
0.013038958
0.013498447
0.014014711
0.014589356
0.015225699
0.015928756
0.016705733
0.017566536
0.018525323
0.019600772
0.020822964
0.022226398
0.023891604
0.025865409
0.028464023
0.031538793
0.036949172
0.041871553
0.082593398
0.052009679
0.0015250994
0.00077052782
0.0018540398
0.0023651588
0.0027874068
0.0030534657
0.003244876
0.0033847296
0.0034826043
0.0035511574
0.0036000374
0.0036348982
0.0036592741
0.0036756526
0.003686062
0.0036918768
0.0036939745
0.0036931227
0.0036899427
0.0036848293
0.0036780812
0.0036699777
0.0036607213
0.0036504917
0.0036394092
0.0036275565
0.0036150263
0.0036018861
0.003588197
0.0035740182
0.0035593728
0.003544278
0.0035287621
0.0035128458
0.0034965421
0.0034798659
0.0034628342
0.0034454393
0.0034276731
0.0034095409
0.0033910402
0.0033721692
0.0033529218
0.0033332968
0.0033132926
0.0032928839
0.0032720526
0.0032507915
0.0032290866
0.0032069216
0.0031842838
0.0031611519
0.0031375187
0.0031133592
0.0030886278
0.0030633097
0.0030373801
0.0030108086
0.0029835672
0.0029556235
0.0029269463
0.0028975054
0.0028672472
0.0028361213
0.002804088
0.0027710975
0.0027370953
0.0027020285
0.0026658304
0.002628448
0.0025898062
0.002549806
0.0025083744
0.0024654202
0.0024208437
0.0023745417
0.002326393
0.0022762854
0.0022240793
0.0021696045
0.0021127108
0.0020532196
0.0019909425
0.0019256674
0.0018571987
0.0017852842
0.0017096575
0.0016304443
0.0015481637
0.0014646209
0.0013820817
0.0013011861
0.0012218166
0.0011439928
0.0010677466
0.00099312511
0.00092020722
0.00084910371
0.00077996318
0.0007129625
0.00064833634
0.00058641418
0.00052760495
0.00047253145
0.00042181421
0.00037701082
0.0003384638
0.00031205303
0.00029137927
0.00043693728
-0.00039468749
0.011688544
0.011795105
0.012016581
0.012296026
0.012637066
0.013038958
0.013498447
0.014014711
0.014589356
0.0152257
0.015928756
0.016705733
0.017566537
0.018525324
0.019600773
0.020822966
0.022226401
0.023891606
0.025865413
0.028464029
0.031538801
0.036949185
0.041871595
0.082587713
0.052029272
0.0015323779
0.00077275454
0.0018551116
0.0023658137
0.0027878696
0.003053816
0.0032451541
0.0033849572
0.003482795
0.0035513201
0.0036001784
0.0036350216
0.0036593833
0.00367575
0.0036861495
0.0036919559
0.0036940463
0.0036931883
0.0036900028
0.0036848846
0.0036781323
0.003670025
0.0036607652
0.0036505326
0.0036394474
0.0036275921
0.0036150598
0.0036019175
0.0035882265
0.0035740459
0.0035593989
0.0035443027
0.0035287854
0.0035128679
0.003496563
0.0034798857
0.003462853
0.0034454572
0.0034276901
0.003409557
0.0033910556
0.0033721838
0.0033529357
0.0033333101
0.0033133053
0.003292896
0.0032720641
0.0032508025
0.0032290971
0.0032069316
0.0031842934
0.003161161
0.0031375274
0.0031133676
0.0030886358
0.0030633174
0.0030373874
0.0030108156
0.0029835739
0.0029556299
0.0029269524
0.0028975112
0.0028672528
0.0028361266
0.0028040931
0.0027711023
0.0027371
0.0027020329
0.0026658347
0.002628452
0.00258981
0.0025498097
0.0025083779
0.0024654235
0.0024208469
0.0023745447
0.0023263959
0.0022762881
0.0022240819
0.002169607
0.0021127131
0.0020532218
0.0019909446
0.0019256694
0.0018572005
0.0017852859
0.0017096592
0.0016304458
0.0015481652
0.0014646223
0.001382083
0.0013011873
0.0012218177
0.0011439939
0.0010677477
0.00099312611
0.00092020817
0.00084910462
0.00077996406
0.00071296334
0.00064833714
0.00058641496
0.0005276057
0.00047253217
0.00042181492
0.00037701152
0.00033846448
0.00031205373
0.00029137993
0.00043693804
-0.00039468705
0.011688544
0.011795105
0.012016581
0.012296026
0.012637066
0.013038958
0.013498447
0.014014711
0.014589357
0.0152257
0.015928757
0.016705734
0.017566538
0.018525325
0.019600775
0.020822968
0.022226403
0.02389161
0.025865418
0.028464037
0.031538811
0.036949201
0.041871644
0.082581355
0.052049908
0.0015403627
0.00077515194
0.0018562647
0.0023665184
0.0027883675
0.0030541929
0.0032454534
0.0033852021
0.0034830001
0.0035514952
0.00360033
0.0036351544
0.0036595008
0.0036758548
0.0036862436
0.003692041
0.0036941236
0.0036932589
0.0036900675
0.0036849441
0.0036781872
0.0036700759
0.0036608125
0.0036505766
0.0036394884
0.0036276305
0.0036150957
0.0036019513
0.0035882582
0.0035740758
0.0035594271
0.0035443293
0.0035288106
0.0035128917
0.0034965855
0.0034799071
0.0034628733
0.0034454764
0.0034277084
0.0034095744
0.0033910721
0.0033721996
0.0033529507
0.0033333244
0.0033133189
0.003292909
0.0032720766
0.0032508143
0.0032291084
0.0032069424
0.0031843038
0.0031611709
0.0031375368
0.0031133766
0.0030886444
0.0030633256
0.0030373953
0.0030108231
0.0029835811
0.0029556367
0.002926959
0.0028975175
0.0028672588
0.0028361323
0.0028040986
0.0027711076
0.002737105
0.0027020377
0.0026658392
0.0026284564
0.0025898142
0.0025498136
0.0025083817
0.0024654271
0.0024208503
0.002374548
0.002326399
0.0022762911
0.0022240847
0.0021696096
0.0021127156
0.0020532242
0.0019909468
0.0019256715
0.0018572025
0.0017852878
0.001709661
0.0016304475
0.0015481667
0.0014646237
0.0013820844
0.0013011886
0.001221819
0.001143995
0.0010677488
0.00099312718
0.0009202092
0.0008491056
0.00077996499
0.00071296424
0.00064833801
0.0005864158
0.00052760651
0.00047253296
0.00042181568
0.00037701226
0.00033846522
0.00031205447
0.00029138065
0.00043693886
-0.00039468656
0.011688544
0.011795105
0.012016581
0.012296026
0.012637067
0.013038958
0.013498448
0.014014712
0.014589357
0.015225701
0.015928757
0.016705735
0.017566539
0.018525327
0.019600777
0.02082297
0.022226406
0.023891615
0.025865424
0.028464046
0.031538823
0.03694922
0.041871703
0.082574184
0.052071856
0.0015489184
0.00077774978
0.0018575145
0.0023672824
0.0027889073
0.0030546015
0.0032457778
0.0033854675
0.0034832224
0.003551685
0.0036004943
0.0036352984
0.0036596281
0.0036759683
0.0036863456
0.0036921332
0.0036942074
0.0036933353
0.0036901376
0.0036850087
0.0036782468
0.003670131
0.0036608637
0.0036506243
0.003639533
0.0036276722
0.0036151347
0.0036019878
0.0035882926
0.0035741082
0.0035594576
0.0035443581
0.0035288378
0.0035129174
0.0034966099
0.0034799302
0.0034628953
0.0034454973
0.0034277282
0.0034095932
0.00339109
0.0033722166
0.003352967
0.0033333399
0.0033133337
0.0032929231
0.00327209
0.0032508272
0.0032291207
0.0032069541
0.0031843149
0.0031611816
0.0031375471
0.0031133863
0.0030886538
0.0030633345
0.0030374038
0.0030108313
0.0029835889
0.0029556442
0.0029269661
0.0028975243
0.0028672653
0.0028361386
0.0028041046
0.0027711133
0.0027371104
0.0027020429
0.0026658442
0.0026284611
0.0025898187
0.0025498179
0.0025083858
0.002465431
0.002420854
0.0023745515
0.0023264023
0.0022762943
0.0022240877
0.0021696125
0.0021127183
0.0020532268
0.0019909493
0.0019256738
0.0018572047
0.0017852898
0.0017096629
0.0016304493
0.0015481684
0.0014646253
0.0013820859
0.0013011901
0.0012218203
0.0011439963
0.00106775
0.00099312835
0.00092021031
0.00084910666
0.00077996601
0.00071296522
0.00064833895
0.0005864167
0.00052760739
0.00047253381
0.0004218165
0.00037701307
0.00033846601
0.00031205528
0.00029138143
0.00043693975
-0.00039468604
0.011688544
0.011795105
0.012016581
0.012296026
0.012637067
0.013038959
0.013498448
0.014014712
0.014589357
0.015225701
0.015928758
0.016705736
0.01756654
0.018525328
0.019600779
0.020822973
0.02222641
0.02389162
0.025865431
0.028464057
0.031538838
0.036949245
0.041871772
0.082566019
0.052095343
0.0015582051
0.00078058592
0.0018588793
0.0023681168
0.0027894968
0.0030550478
0.0032461321
0.0033857574
0.0034834653
0.0035518923
0.0036006738
0.0036354556
0.0036597672
0.0036760924
0.003686457
0.0036922339
0.0036942989
0.0036934189
0.0036902142
0.0036850791
0.0036783119
0.0036701913
0.0036609197
0.0036506764
0.0036395816
0.0036277176
0.0036151773
0.0036020278
0.0035883302
0.0035741436
0.003559491
0.0035443896
0.0035288675
0.0035129456
0.0034966366
0.0034799555
0.0034629192
0.00344552
0.0034277498
0.0034096138
0.0033911096
0.0033722353
0.0033529847
0.0033333568
0.0033133498
0.0032929385
0.0032721047
0.0032508412
0.0032291341
0.0032069669
0.0031843272
0.0031611933
0.0031375582
0.003113397
0.003088664
0.0030633443
0.0030374131
0.0030108402
0.0029835974
0.0029556524
0.0029269739
0.0028975318
0.0028672725
0.0028361454
0.0028041111
0.0027711195
0.0027371163
0.0027020486
0.0026658496
0.0026284663
0.0025898236
0.0025498226
0.0025083903
0.0024654353
0.0024208581
0.0023745553
0.002326406
0.0022762977
0.002224091
0.0021696156
0.0021127213
0.0020532296
0.0019909519
0.0019256763
0.0018572071
0.0017852921
0.001709665
0.0016304513
0.0015481703
0.0014646271
0.0013820875
0.0013011916
0.0012218218
0.0011439977
0.0010677514
0.00099312962
0.00092021152
0.00084910782
0.00077996713
0.00071296629
0.00064833998
0.00058641769
0.00052760834
0.00047253473
0.00042181741
0.00037701396
0.00033846688
0.00031205616
0.00029138228
0.00043694072
-0.00039468547
0.011688544
0.011795105
0.012016581
0.012296026
0.012637067
0.013038959
0.013498448
0.014014713
0.014589358
0.015225702
0.015928759
0.016705737
0.017566542
0.018525331
0.019600782
0.020822977
0.022226415
0.023891627
0.02586544
0.02846407
0.031538856
0.036949275
0.041871854
0.082556645
0.052120581
0.0015683836
0.00078370278
0.0018603794
0.0023690343
0.002790145
0.0030555385
0.0032465216
0.0033860762
0.0034837323
0.0035521201
0.0036008711
0.0036356285
0.0036599201
0.0036762288
0.0036865795
0.0036923446
0.0036943995
0.0036935107
0.0036902984
0.0036851566
0.0036783834
0.0036702575
0.0036609812
0.0036507337
0.003639635
0.0036277676
0.0036152241
0.0036020717
0.0035883714
0.0035741824
0.0035595276
0.0035444242
0.0035289002
0.0035129765
0.0034966659
0.0034799833
0.0034629456
0.0034455451
0.0034277736
0.0034096364
0.0033911311
0.0033722557
0.0033530042
0.0033333754
0.0033133676
0.0032929554
0.0032721208
0.0032508566
0.0032291488
0.003206981
0.0031843406
0.0031612061
0.0031375705
0.0031134087
0.0030886752
0.003063355
0.0030374234
0.00301085
0.0029836067
0.0029556613
0.0029269825
0.00289754
0.0028672803
0.0028361529
0.0028041182
0.0027711263
0.0027371229
0.0027020548
0.0026658555
0.0026284719
0.002589829
0.0025498277
0.0025083952
0.0024654399
0.0024208625
0.0023745596
0.00232641
0.0022763016
0.0022240946
0.0021696191
0.0021127245
0.0020532326
0.0019909548
0.0019256791
0.0018572097
0.0017852945
0.0017096673
0.0016304534
0.0015481723
0.001464629
0.0013820893
0.0013011933
0.0012218234
0.0011439993
0.0010677528
0.00099313102
0.00092021286
0.0008491091
0.00077996835
0.00071296746
0.00064834111
0.00058641878
0.0005276094
0.00047253575
0.0004218184
0.00037701493
0.00033846784
0.00031205713
0.00029138322
0.00043694179
-0.00039468484
0.011688544
0.011795105
0.012016581
0.012296027
0.012637067
0.013038959
0.013498449
0.014014713
0.014589359
0.015225703
0.015928761
0.016705739
0.017566544
0.018525334
0.019600786
0.020822982
0.022226422
0.023891635
0.025865451
0.028464087
0.031538878
0.036949314
0.041871953
0.082545806
0.052147771
0.0015796019
0.00078714667
0.0018620373
0.0023700485
0.0027908614
0.0030560808
0.0032469522
0.0033864285
0.0034840274
0.003552372
0.0036010892
0.0036358196
0.0036600891
0.0036763795
0.0036867149
0.0036924669
0.0036945107
0.0036936122
0.0036903914
0.0036852422
0.0036784624
0.0036703307
0.0036610492
0.003650797
0.003639694
0.0036278228
0.0036152758
0.0036021203
0.0035884171
0.0035742254
0.0035595682
0.0035444624
0.0035289364
0.0035130107
0.0034966982
0.003480014
0.0034629747
0.0034455727
0.0034277999
0.0034096614
0.0033911549
0.0033722784
0.0033530258
0.0033333959
0.0033133872
0.0032929741
0.0032721387
0.0032508736
0.0032291651
0.0032069965
0.0031843554
0.0031612203
0.0031375841
0.0031134217
0.0030886876
0.0030633668
0.0030374347
0.0030108608
0.0029836171
0.0029556712
0.002926992
0.002897549
0.0028672889
0.0028361611
0.0028041261
0.0027711338
0.0027371301
0.0027020617
0.0026658621
0.0026284782
0.002589835
0.0025498334
0.0025084006
0.0024654451
0.0024208674
0.0023745643
0.0023264144
0.0022763058
0.0022240986
0.0021696229
0.0021127281
0.0020532361
0.0019909581
0.0019256821
0.0018572126
0.0017852972
0.0017096698
0.0016304558
0.0015481746
0.0014646311
0.0013820913
0.0013011952
0.0012218252
0.001144001
0.0010677545
0.00099313256
0.00092021433
0.00084911051
0.0007799697
0.00071296876
0.00064834236
0.00058641999
0.00052761056
0.00047253688
0.0004218195
0.00037701601
0.0003384689
0.0003120582
0.00029138425
0.00043694296
-0.00039468415
0.011688544
0.011795106
0.012016581
0.012296027
0.012637068
0.01303896
0.013498449
0.014014714
0.01458936
0.015225704
0.015928762
0.016705741
0.017566547
0.018525337
0.01960079
0.020822988
0.022226429
0.023891646
0.025865464
0.028464107
0.031538905
0.03694936
0.041872069
0.082533198
0.052177101
0.0015920201
0.00079096858
0.0018638775
0.0023711745
0.0027916569
0.003056683
0.0032474302
0.0033868196
0.003484355
0.0035526516
0.0036013314
0.0036360317
0.0036602767
0.0036765468
0.0036868652
0.0036926027
0.0036946341
0.0036937248
0.0036904947
0.0036853372
0.0036785502
0.003670412
0.0036611246
0.0036508672
0.0036397596
0.0036278841
0.0036153333
0.0036021742
0.0035884678
0.0035742731
0.0035596131
0.0035445049
0.0035289765
0.0035130487
0.0034967342
0.0034800481
0.003463007
0.0034456034
0.0034278291
0.0034096892
0.0033911813
0.0033723035
0.0033530498
0.0033334188
0.003313409
0.0032929949
0.0032721585
0.0032508925
0.0032291831
0.0032070138
0.0031843719
0.003161236
0.0031375991
0.0031134361
0.0030887013
0.00306338
0.0030374473
0.0030108728
0.0029836286
0.0029556822
0.0029270025
0.002897559
0.0028672985
0.0028361703
0.0028041349
0.0027711422
0.0027371381
0.0027020693
0.0026658694
0.0026284851
0.0025898416
0.0025498398
0.0025084066
0.0024654509
0.0024208729
0.0023745695
0.0023264194
0.0022763105
0.0022241031
0.0021696271
0.0021127321
0.0020532398
0.0019909617
0.0019256855
0.0018572157
0.0017853003
0.0017096727
0.0016304585
0.0015481771
0.0014646335
0.0013820936
0.0013011973
0.0012218272
0.0011440029
0.0010677563
0.00099313428
0.00092021597
0.00084911207
0.0007799712
0.0007129702
0.00064834374
0.00058642132
0.00052761185
0.00047253813
0.00042182071
0.0003770172
0.00033847007
0.00031205939
0.0002913854
0.00043694427
-0.00039468337
0.011688544
0.011795106
0.012016582
0.012296027
0.012637068
0.01303896
0.01349845
0.014014715
0.014589361
0.015225706
0.015928764
0.016705744
0.01756655
0.018525341
0.019600795
0.020822995
0.022226438
0.023891658
0.02586548
0.028464132
0.031538938
0.036949416
0.041872207
0.082518451
0.052208731
0.0016058189
0.00079522507
0.0018659274
0.0023724293
0.0027925433
0.003057354
0.0032479628
0.0033872554
0.00348472
0.0035529632
0.0036016011
0.003636268
0.0036604858
0.0036767333
0.0036870327
0.0036927541
0.0036947716
0.0036938504
0.0036906097
0.0036854431
0.0036786479
0.0036705025
0.0036612087
0.0036509455
0.0036398326
0.0036279524
0.0036153973
0.0036022343
0.0035885242
0.0035743263
0.0035596632
0.0035445522
0.0035290212
0.003513091
0.0034967743
0.003480086
0.0034630431
0.0034456376
0.0034278616
0.0034097201
0.0033912107
0.0033723315
0.0033530764
0.0033334442
0.0033134332
0.003293018
0.0032721806
0.0032509136
0.0032292032
0.003207033
0.0031843903
0.0031612536
0.0031376159
0.0031134521
0.0030887166
0.0030633946
0.0030374613
0.0030108862
0.0029836414
0.0029556945
0.0029270142
0.0028975702
0.0028673092
0.0028361805
0.0028041446
0.0027711515
0.002737147
0.0027020778
0.0026658775
0.0026284929
0.002589849
0.0025498468
0.0025084134
0.0024654572
0.002420879
0.0023745752
0.0023264249
0.0022763157
0.0022241081
0.0021696318
0.0021127366
0.0020532441
0.0019909656
0.0019256893
0.0018572193
0.0017853036
0.0017096758
0.0016304614
0.0015481798
0.0014646361
0.001382096
0.0013011997
0.0012218295
0.001144005
0.0010677583
0.00099313619
0.00092021779
0.00084911382
0.00077997287
0.0007129718
0.00064834528
0.00058642281
0.00052761329
0.00047253953
0.00042182207
0.00037701853
0.00033847138
0.00031206071
0.00029138668
0.00043694573
-0.00039468251
0.011688544
0.011795106
0.012016582
0.012296028
0.012637069
0.013038961
0.013498451
0.014014716
0.014589363
0.015225708
0.015928766
0.016705746
0.017566554
0.018525346
0.019600802
0.020823003
0.022226449
0.023891673
0.025865498
0.02846416
0.031538976
0.036949481
0.041872371
0.082501124
0.052242787
0.0016212023
0.00079997913
0.0018682174
0.0023738317
0.0027935338
0.0030581038
0.003248558
0.0033877424
0.0034851279
0.0035533113
0.0036019026
0.003636532
0.0036607193
0.0036769416
0.0036872198
0.0036929232
0.0036949252
0.0036939906
0.0036907383
0.0036855614
0.0036787572
0.0036706037
0.0036613027
0.003651033
0.0036399143
0.0036280287
0.0036154688
0.0036023014
0.0035885873
0.0035743857
0.0035597192
0.003544605
0.0035290712
0.0035131382
0.003496819
0.0034801285
0.0034630833
0.0034456759
0.0034278979
0.0034097546
0.0033912436
0.0033723628
0.0033531063
0.0033334726
0.0033134603
0.0032930438
0.0032722052
0.0032509372
0.0032292257
0.0032070545
0.0031844108
0.0031612732
0.0031376346
0.00311347
0.0030887338
0.003063411
0.003037477
0.0030109012
0.0029836557
0.0029557081
0.0029270273
0.0028975827
0.0028673212
0.0028361919
0.0028041555
0.002771162
0.0027371569
0.0027020873
0.0026658866
0.0026285016
0.0025898573
0.0025498547
0.0025084209
0.0024654644
0.0024208858
0.0023745817
0.002326431
0.0022763215
0.0022241136
0.002169637
0.0021127416
0.0020532488
0.0019909701
0.0019256935
0.0018572233
0.0017853074
0.0017096794
0.0016304647
0.001548183
0.001464639
0.0013820988
0.0013012023
0.0012218319
0.0011440073
0.0010677605
0.00099313832
0.00092021983
0.00084911577
0.00077997474
0.0007129736
0.00064834701
0.00058642447
0.00052761489
0.00047254108
0.00042182359
0.00037702001
0.00033847284
0.00031206219
0.0002913881
0.00043694736
-0.00039468155
0.011688544
0.011795106
0.012016582
0.012296028
0.012637069
0.013038962
0.013498452
0.014014717
0.014589364
0.01522571
0.015928769
0.01670575
0.017566558
0.018525352
0.019600809
0.020823013
0.022226461
0.02389169
0.025865521
0.028464193
0.031539021
0.036949557
0.041872564
0.082480686
0.052279341
0.001638402
0.00080530112
0.0018707817
0.0023754025
0.0027946433
0.0030589436
0.0032492246
0.0033882878
0.0034855848
0.0035537011
0.0036022401
0.0036368278
0.0036609809
0.0036771749
0.0036874293
0.0036931125
0.0036950973
0.0036941477
0.0036908823
0.0036856939
0.0036788795
0.003670717
0.0036614079
0.0036511309
0.0036400056
0.0036281142
0.0036155488
0.0036023765
0.0035886579
0.0035744522
0.0035597819
0.0035446642
0.0035291271
0.0035131911
0.0034968691
0.003480176
0.0034631284
0.0034457187
0.0034279386
0.0034097933
0.0033912804
0.0033723979
0.0033531396
0.0033335044
0.0033134906
0.0032930728
0.0032722329
0.0032509635
0.0032292509
0.0032070785
0.0031844338
0.0031612951
0.0031376556
0.0031134901
0.0030887529
0.0030634294
0.0030374945
0.003010918
0.0029836717
0.0029557235
0.0029270419
0.0028975967
0.0028673346
0.0028362047
0.0028041678
0.0027711736
0.0027371681
0.002702098
0.0026658968
0.0026285113
0.0025898665
0.0025498635
0.0025084292
0.0024654724
0.0024208934
0.0023745889
0.0023264379
0.0022763281
0.0022241198
0.0021696429
0.0021127472
0.0020532541
0.0019909751
0.0019256982
0.0018572277
0.0017853115
0.0017096833
0.0016304685
0.0015481864
0.0014646423
0.0013821019
0.0013012052
0.0012218347
0.00114401
0.001067763
0.00099314071
0.00092022211
0.00084911795
0.00077997683
0.0007129756
0.00064834894
0.00058642633
0.00052761669
0.00047254283
0.00042182528
0.00037702168
0.00033847448
0.00031206384
0.0002913897
0.00043694918
-0.00039468048
0.011688544
0.011795106
0.012016583
0.012296029
0.01263707
0.013038963
0.013498453
0.014014719
0.014589366
0.015225712
0.015928772
0.016705754
0.017566564
0.018525358
0.019600818
0.020823024
0.022226476
0.02389171
0.025865546
0.028464232
0.031539073
0.036949643
0.041872791
0.082456497
0.052318393
0.0016576841
0.0008112698
0.0018736582
0.0023771655
0.0027958883
0.0030598861
0.0032499727
0.0033888999
0.0034860974
0.0035541386
0.0036026189
0.0036371596
0.0036612744
0.0036774366
0.0036876644
0.003693325
0.0036952903
0.0036943239
0.0036910439
0.0036858426
0.0036790167
0.0036708441
0.0036615259
0.0036512408
0.0036401082
0.00362821
0.0036156387
0.0036024608
0.0035887372
0.0035745268
0.0035598523
0.0035447306
0.0035291898
0.0035132505
0.0034969254
0.0034802293
0.003463179
0.0034457667
0.0034279842
0.0034098367
0.0033913217
0.0033724372
0.0033531771
0.0033335401
0.0033135247
0.0032931053
0.0032722638
0.0032509931
0.0032292791
0.0032071055
0.0031844596
0.0031613198
0.0031376792
0.0031135126
0.0030887745
0.0030634499
0.0030375142
0.0030109368
0.0029836897
0.0029557407
0.0029270583
0.0028976125
0.0028673496
0.0028362191
0.0028041815
0.0027711867
0.0027371806
0.0027021099
0.0026659082
0.0026285221
0.0025898769
0.0025498734
0.0025084387
0.0024654814
0.0024209019
0.0023745971
0.0023264456
0.0022763354
0.0022241268
0.0021696495
0.0021127534
0.00205326
0.0019909807
0.0019257035
0.0018572327
0.0017853163
0.0017096877
0.0016304726
0.0015481904
0.001464646
0.0013821054
0.0013012085
0.0012218378
0.0011440129
0.0010677658
0.00099314339
0.00092022467
0.0008491204
0.00077997918
0.00071297786
0.00064835111
0.00058642842
0.00052761871
0.00047254479
0.00042182719
0.00037702354
0.00033847631
0.0003120657
0.0002913915
0.00043695123
-0.00039467927
0.011688544
0.011795107
0.012016583
0.012296029
0.012637071
0.013038964
0.013498455
0.014014721
0.014589369
0.015225715
0.015928776
0.016705759
0.01756657
0.018525366
0.019600828
0.020823037
0.022226493
0.023891733
0.025865575
0.028464275
0.031539132
0.03694974
0.041873058
0.082427787
0.052359844
0.0016793566
0.00081797361
0.0018768898
0.002379147
0.0027972876
0.0030609453
0.0032508133
0.0033895877
0.0034866734
0.0035546302
0.0036030446
0.0036375324
0.0036616042
0.0036777307
0.0036879286
0.0036935637
0.0036955072
0.0036945219
0.0036912254
0.0036860096
0.003679171
0.0036709869
0.0036616585
0.0036513643
0.0036402234
0.0036283178
0.0036157396
0.0036025555
0.0035888263
0.0035746106
0.0035599313
0.0035448052
0.0035292604
0.0035133172
0.0034969886
0.0034802892
0.0034632358
0.0034458207
0.0034280355
0.0034098855
0.0033913681
0.0033724814
0.0033532192
0.0033335803
0.0033135629
0.0032931418
0.0032722987
0.0032510264
0.0032293109
0.0032071358
0.0031844885
0.0031613475
0.0031377056
0.0031135379
0.0030887986
0.003063473
0.0030375363
0.0030109579
0.0029837099
0.00295576
0.0029270768
0.0028976301
0.0028673665
0.0028362352
0.0028041969
0.0027712015
0.0027371947