/*--------------------------------*- C++ -*----------------------------------*\
| =========                 |                                                 |
| \\      /  F ield         | OpenFOAM: The Open Source CFD Toolbox           |
|  \\    /   O peration     | Version:  2206                                  |
|   \\  /    A nd           | Website:  www.openfoam.com                      |
|    \\/     M anipulation  |                                                 |
\*---------------------------------------------------------------------------*/
FoamFile
{
    version     2.0;
    format      ascii;
    arch        "LSB;label=32;scalar=64";
    class       surfaceScalarField;
    location    "1900";
    object      phi;
}
// * * * * * * * * * * * * * * * * * * * * * * * * * * * * * * * * * * * * * //

dimensions      [0 3 -1 0 0 0 0];

oriented        oriented;

internalField   nonuniform List<scalar> 
25880
(
2.0046165e-06
3.7641287e-11
2.0045269e-06
8.9584016e-11
2.0044143e-06
1.1260048e-10
2.0042864e-06
1.2796107e-10
2.0041388e-06
1.4759588e-10
2.0039694e-06
1.694064e-10
2.0037757e-06
1.9366229e-10
2.003554e-06
2.2166075e-10
2.0032995e-06
2.5450121e-10
2.0030062e-06
2.9333748e-10
2.0026665e-06
3.3967794e-10
2.0022707e-06
3.9581923e-10
2.0018061e-06
4.645974e-10
2.0012545e-06
5.5164564e-10
2.000593e-06
6.6144872e-10
1.9997793e-06
8.1371003e-10
1.9987746e-06
1.0047059e-09
1.9974378e-06
1.3368269e-09
1.9957547e-06
1.6830927e-09
1.9930568e-06
2.6978613e-09
1.9897029e-06
3.3539178e-09
1.9818246e-06
7.8782532e-09
1.97841e-06
3.4146232e-09
9.9390048e-07
9.8450954e-07
4.3876368e-09
9.8951284e-07
2.1082612e-09
2.2793756e-09
1.5973394e-09
5.1092183e-10
1.3496748e-09
2.4766457e-10
1.1971227e-09
1.5255211e-10
1.0883373e-09
1.0878546e-10
1.0052143e-09
8.3122934e-11
9.3857787e-10
6.663645e-11
8.8351009e-10
5.5067779e-11
8.369114e-10
4.6598696e-11
7.9672175e-10
4.0189644e-11
7.6154471e-10
3.5177045e-11
7.3038925e-10
3.1155458e-11
7.0251981e-10
2.7869442e-11
6.773754e-10
2.5144411e-11
6.5452294e-10
2.2852454e-11
6.3362015e-10
2.0902793e-11
6.1439127e-10
1.9228878e-11
5.9661437e-10
1.7776897e-11
5.8010622e-10
1.6508157e-11
5.6471361e-10
1.5392603e-11
5.5030836e-10
1.4405253e-11
5.3678169e-10
1.3526672e-11
5.2404092e-10
1.2740765e-11
5.1200664e-10
1.2034278e-11
5.0061018e-10
1.1396468e-11
4.8979151e-10
1.0818663e-11
4.7949813e-10
1.0293387e-11
4.6968382e-10
9.8143044e-12
4.6030785e-10
9.3759701e-12
4.5133427e-10
8.9735779e-12
4.4273101e-10
8.6032599e-12
4.3446919e-10
8.2618237e-12
4.2652289e-10
7.9463009e-12
4.1886882e-10
7.6540711e-12
4.1148588e-10
7.3829422e-12
4.04355e-10
7.1308806e-12
3.97459e-10
6.8959949e-12
3.9078217e-10
6.676832e-12
3.8430998e-10
6.4721878e-12
3.7802915e-10
6.2808294e-12
3.7192752e-10
6.1016333e-12
3.6599387e-10
5.9336505e-12
3.6021782e-10
5.7760487e-12
3.5458986e-10
5.6279607e-12
3.4910129e-10
5.4885668e-12
3.4374394e-10
5.3573527e-12
3.3851007e-10
5.2338726e-12
3.3339251e-10
5.1175554e-12
3.2838461e-10
5.0079035e-12
3.2348011e-10
4.9044978e-12
3.1867314e-10
4.8069676e-12
3.1395817e-10
4.7149676e-12
3.0933016e-10
4.6280179e-12
3.0478434e-10
4.5458136e-12
3.0031605e-10
4.4682946e-12
2.9592084e-10
4.3952052e-12
2.915946e-10
4.3262385e-12
2.873334e-10
4.2612095e-12
2.8313346e-10
4.1999387e-12
2.7899119e-10
4.1422698e-12
2.749032e-10
4.0879909e-12
2.7086633e-10
4.0368689e-12
2.6687747e-10
3.988856e-12
2.6293354e-10
3.9439344e-12
2.5903159e-10
3.9019517e-12
2.551688e-10
3.8627881e-12
2.5134243e-10
3.8263645e-12
2.4754982e-10
3.7926172e-12
2.4378832e-10
3.7614934e-12
2.400555e-10
3.732824e-12
2.3634895e-10
3.7065524e-12
2.3266616e-10
3.6827819e-12
2.290047e-10
3.6614668e-12
2.2536216e-10
3.6425371e-12
2.2173617e-10
3.6259876e-12
2.1812435e-10
3.6118269e-12
2.1452427e-10
3.6000738e-12
2.1093362e-10
3.5906538e-12
2.0735003e-10
3.5835878e-12
2.03771e-10
3.579026e-12
2.0019399e-10
3.5770123e-12
1.9661642e-10
3.5775736e-12
1.9303558e-10
3.5808405e-12
1.8944865e-10
3.586925e-12
1.8585277e-10
3.5958791e-12
1.8224434e-10
3.6084331e-12
1.7862103e-10
3.6233099e-12
1.7498078e-10
3.6402465e-12
1.7147199e-10
3.5087984e-12
1.6816648e-10
3.305508e-12
1.6504456e-10
3.1219207e-12
1.620914e-10
2.9531566e-12
1.5929314e-10
2.7982578e-12
1.5663652e-10
2.6566246e-12
1.5410957e-10
2.5269506e-12
1.5170148e-10
2.40809e-12
1.4940244e-10
2.2990394e-12
1.4720355e-10
2.1988879e-12
1.4509667e-10
2.1068755e-12
1.4307418e-10
2.0224927e-12
1.411288e-10
1.9453818e-12
1.3925339e-10
1.8754127e-12
1.374409e-10
1.8124839e-12
1.3568336e-10
1.7575483e-12
1.3397298e-10
1.7103736e-12
1.3229627e-10
1.6767091e-12
1.3064743e-10
1.6488445e-12
1.2897714e-10
1.6702926e-12
1.2736484e-10
1.6122992e-12
1.2552868e-10
1.836152e-12
1.0859081e-12
2.0344898e-06
7.5908362e-11
2.0343987e-06
1.806713e-10
2.0342842e-06
2.2710405e-10
2.0341541e-06
2.5808726e-10
2.034004e-06
2.9768777e-10
2.0338317e-06
3.416756e-10
2.0336348e-06
3.9059415e-10
2.0334094e-06
4.4705926e-10
2.0331506e-06
5.1328801e-10
2.0328523e-06
5.9160701e-10
2.032507e-06
6.8505765e-10
2.0321045e-06
7.9827078e-10
2.0316321e-06
9.3696462e-10
2.0310713e-06
1.1124976e-09
2.0303988e-06
1.3339114e-09
2.0295716e-06
1.6409351e-09
2.0285502e-06
2.0260545e-09
2.0271913e-06
2.6957226e-09
2.0254806e-06
3.393888e-09
2.0227385e-06
5.4398819e-09
2.0193298e-06
6.7626701e-09
2.0113231e-06
1.5884884e-08
2.0078481e-06
6.8897196e-09
1.0150921e-06
1.9772655e-06
1.3387371e-08
1.9912175e-06
6.4507652e-09
9.2159815e-09
4.8876634e-09
2.0740236e-09
4.1298485e-09
1.0054795e-09
3.6630415e-09
6.1935912e-10
3.3301596e-09
4.4166731e-10
3.0758068e-09
3.3747572e-10
2.871904e-09
2.7053929e-10
2.7034006e-09
2.2357115e-10
2.560813e-09
1.8918633e-10
2.4378371e-09
1.6316548e-10
2.3301998e-09
1.4281443e-10
2.2348682e-09
1.2648702e-10
2.1495916e-09
1.1314604e-10
2.0726534e-09
1.0208264e-10
2.0027283e-09
9.2777526e-11
1.9387689e-09
8.4862147e-11
1.8799316e-09
7.8066218e-11
1.8255371e-09
7.2171346e-11
1.7750248e-09
6.7020468e-11
1.727926e-09
6.2491463e-11
1.6838483e-09
5.8482963e-11
1.6424589e-09
5.4916051e-11
1.6034743e-09
5.1725388e-11
1.5666514e-09
4.8857159e-11
1.5317801e-09
4.626775e-11
1.4986768e-09
4.3921951e-11
1.4671808e-09
4.1789414e-11
1.4371507e-09
3.9844416e-11
1.4084618e-09
3.8064849e-11
1.3810042e-09
3.6431203e-11
1.3546797e-09
3.4927774e-11
1.3293999e-09
3.3541599e-11
1.3050855e-09
3.2260628e-11
1.2816654e-09
3.1074224e-11
1.2590749e-09
2.9973486e-11
1.2372556e-09
2.8950157e-11
1.216155e-09
2.7996562e-11
1.195725e-09
2.7106798e-11
1.1759213e-09
2.6275977e-11
1.156703e-09
2.5499094e-11
1.138033e-09
2.4771589e-11
1.1198771e-09
2.4089607e-11
1.1022034e-09
2.344977e-11
1.0849828e-09
2.2848558e-11
1.0681887e-09
2.2282643e-11
1.0517961e-09
2.1749937e-11
1.0357813e-09
2.1248629e-11
1.0201225e-09
2.0776401e-11
1.0047992e-09
2.0331233e-11
9.8979224e-10
1.9911423e-11
9.7508374e-10
1.9515468e-11
9.6065675e-10
1.9141963e-11
9.464958e-10
1.8788962e-11
9.3258639e-10
1.8455228e-11
9.1891417e-10
1.8140514e-11
9.0546559e-10
1.7843784e-11
8.9222804e-10
1.7563791e-11
8.7918946e-10
1.7299784e-11
8.6633837e-10
1.7051035e-11
8.5366373e-10
1.6816909e-11
8.4115517e-10
1.6596546e-11
8.2880304e-10
1.6389e-11
8.1659782e-10
1.6194077e-11
8.0453005e-10
1.6011703e-11
7.9259074e-10
1.584126e-11
7.8077127e-10
1.5682263e-11
7.6906324e-10
1.5534389e-11
7.5745848e-10
1.5397381e-11
7.4594895e-10
1.5271023e-11
7.3452714e-10
1.5154631e-11
7.2318572e-10
1.5047973e-11
7.1191704e-10
1.4951469e-11
7.0071357e-10
1.4864933e-11
6.8956802e-10
1.4788082e-11
6.7847312e-10
1.4720894e-11
6.6742154e-10
1.4663404e-11
6.5640593e-10
1.4615688e-11
6.4541913e-10
1.4577445e-11
6.3445396e-10
1.4548758e-11
6.2350275e-10
1.4530238e-11
6.125577e-10
1.4522063e-11
6.0161093e-10
1.4524341e-11
5.9065417e-10
1.4537604e-11
5.7967879e-10
1.4562306e-11
5.6867601e-10
1.4598658e-11
5.5763482e-10
1.4649624e-11
5.4654811e-10
1.4710019e-11
5.3540957e-10
1.4778789e-11
5.2467323e-10
1.4245139e-11
5.1455893e-10
1.3419805e-11
5.0500639e-10
1.2674463e-11
4.9597024e-10
1.1989309e-11
4.8740805e-10
1.1360446e-11
4.7927923e-10
1.0785439e-11
4.715472e-10
1.0258984e-11
4.6417886e-10
9.7764291e-12
4.571442e-10
9.3337006e-12
4.5041599e-10
8.9271004e-12
4.4396932e-10
8.5535431e-12
4.3778085e-10
8.2109601e-12
4.3182834e-10
7.8978988e-12
4.2608992e-10
7.61383e-12
4.2054406e-10
7.3583423e-12
4.1516631e-10
7.1353029e-12
4.0993291e-10
6.9437654e-12
4.0480255e-10
6.8070736e-12
3.9975748e-10
6.6939109e-12
3.9464683e-10
6.7809436e-12
3.897143e-10
6.5448328e-12
3.8409172e-10
7.4587276e-12
4.4015427e-12
2.0946816e-06
1.1539257e-10
2.0945876e-06
2.746746e-10
2.0944694e-06
3.4529165e-10
2.0943351e-06
3.924034e-10
2.0941802e-06
4.5261071e-10
2.0940024e-06
5.1948695e-10
2.0937991e-06
5.9385736e-10
2.0935665e-06
6.7969827e-10
2.0932994e-06
7.8037991e-10
2.0929915e-06
8.9943867e-10
2.0926351e-06
1.0414971e-09
2.0922198e-06
1.2135938e-09
2.0917323e-06
1.4244194e-09
2.0911536e-06
1.6912377e-09
2.0904597e-06
2.0277887e-09
2.0896062e-06
2.4944575e-09
2.0885524e-06
3.0798111e-09
2.0871505e-06
4.0976383e-09
2.0853857e-06
5.1587297e-09
2.0825573e-06
8.2682137e-09
2.0790414e-06
1.0278593e-08
2.0707835e-06
2.4142787e-08
2.0671941e-06
1.047916e-08
1.0517952e-06
2.9926644e-06
2.3147838e-08
3.0198649e-06
1.1179045e-08
2.1184775e-08
8.470475e-09
4.7825933e-09
7.1571936e-09
2.3187609e-09
6.3481728e-09
1.4283799e-09
5.7712613e-09
1.0185789e-09
5.3304488e-09
7.7828823e-10
4.9770728e-09
6.2391526e-10
4.6850469e-09
5.1559707e-10
4.4379355e-09
4.3629777e-10
4.2248132e-09
3.7628772e-10
4.0382738e-09
3.2935384e-10
3.8730612e-09
2.9169962e-10
3.7252745e-09
2.609328e-10
3.5919385e-09
2.3541856e-10
3.4707568e-09
2.1395931e-10
3.3599138e-09
1.9570514e-10
3.2579475e-09
1.8003252e-10
3.1636809e-09
1.6643794e-10
3.0761421e-09
1.5455926e-10
2.9945189e-09
1.4411463e-10
2.9181315e-09
1.348704e-10
2.846403e-09
1.2664454e-10
2.778842e-09
1.1928638e-10
2.7150273e-09
1.1267181e-10
2.6545949e-09
1.0670023e-10
2.5972263e-09
1.0129047e-10
2.5426432e-09
9.6372518e-11
2.4906006e-09
9.1887059e-11
2.4408823e-09
8.7783111e-11
2.3932979e-09
8.4015682e-11
2.3476771e-09
8.0548552e-11
2.3038668e-09
7.7351828e-11
2.2617298e-09
7.4397721e-11
2.2211423e-09
7.1661697e-11
2.1819925e-09
6.9123232e-11
2.1441794e-09
6.6763287e-11
2.1076118e-09
6.4564157e-11
2.0722064e-09
6.2512233e-11
2.0378861e-09
6.0596238e-11
2.0045806e-09
5.8804634e-11
1.9722253e-09
5.7126899e-11
1.9407607e-09
5.555415e-11
1.9101319e-09
5.4078593e-11
1.8802883e-09
5.2692109e-11
1.851184e-09
5.138703e-11
1.8227754e-09
5.0158532e-11
1.7950216e-09
4.9002442e-11
1.7678845e-09
4.7913416e-11
1.741329e-09
4.6886795e-11
1.7153217e-09
4.5918653e-11
1.6898317e-09
4.5005522e-11
1.6648295e-09
4.4144166e-11
1.6402884e-09
4.3330096e-11
1.6161831e-09
4.2560458e-11
1.592489e-09
4.1834681e-11
1.5691824e-09
4.1150378e-11
1.5462415e-09
4.0504674e-11
1.5236454e-09
3.9895836e-11
1.5013743e-09
3.9322186e-11
1.4794089e-09
3.8782258e-11
1.4577314e-09
3.8274068e-11
1.436325e-09
3.7795438e-11
1.4151731e-09
3.7345916e-11
1.3942595e-09
3.6925336e-11
1.3735685e-09
3.6532271e-11
1.3530851e-09
3.61656e-11
1.332795e-09
3.5824583e-11
1.3126837e-09
3.5508622e-11
1.2927375e-09
3.5217223e-11
1.2729433e-09
3.4948806e-11
1.2532885e-09
3.4702839e-11
1.2337597e-09
3.4480286e-11
1.2143439e-09
3.4280722e-11
1.1950285e-09
3.4103492e-11
1.1758008e-09
3.3948547e-11
1.1566482e-09
3.3815967e-11
1.137558e-09
3.3705928e-11
1.1185177e-09
3.3617733e-11
1.0995149e-09
3.3551579e-11
1.0805363e-09
3.3508869e-11
1.0615683e-09
3.3490015e-11
1.0425974e-09
3.349527e-11
1.0236091e-09
3.3525856e-11
1.0045886e-09
3.3582821e-11
9.8552062e-10
3.3666654e-11
9.6638605e-10
3.3784187e-11
9.4717261e-10
3.3923466e-11
9.2786932e-10
3.4082076e-11
9.0926304e-10
3.2851414e-11
8.9173479e-10
3.0948056e-11
8.7518008e-10
2.9229175e-11
8.5952028e-10
2.7649108e-11
8.4468187e-10
2.6198858e-11
8.305945e-10
2.4872805e-11
8.1719477e-10
2.3658721e-11
8.0442532e-10
2.2545877e-11
7.9223414e-10
2.1524877e-11
7.8057405e-10
2.0587194e-11
7.6940188e-10
1.9725711e-11
7.5867718e-10
1.8935659e-11
7.483614e-10
1.8213685e-11
7.3841666e-10
1.755857e-11
7.2880563e-10
1.6969364e-11
7.1948596e-10
1.6454982e-11
7.1041648e-10
1.601324e-11
7.0152559e-10
1.5697965e-11
6.9278256e-10
1.5436943e-11
6.8392598e-10
1.5637519e-11
6.7537851e-10
1.5092309e-11
6.6563161e-10
1.7205626e-11
1.0142819e-11
2.1860889e-06
1.5670926e-10
2.1859905e-06
3.7306537e-10
2.1858668e-06
4.6901966e-10
2.1857262e-06
5.3302036e-10
2.185564e-06
6.1479882e-10
2.1853778e-06
7.0563325e-10
2.1851651e-06
8.0664308e-10
2.1849215e-06
9.2322809e-10
2.1846419e-06
1.0599651e-09
2.1843197e-06
1.2216561e-09
2.1839466e-06
1.4145774e-09
2.1835119e-06
1.6482859e-09
2.1830018e-06
1.934581e-09
2.1823961e-06
2.2969032e-09
2.18167e-06
2.7539046e-09
2.1807769e-06
3.3875762e-09
2.1796743e-06
4.1823748e-09
2.1782076e-06
5.5643576e-09
2.1763613e-06
7.0050034e-09
2.1734029e-06
1.1226639e-08
2.1697254e-06
1.3956073e-08
2.1610887e-06
3.2779511e-08
2.1573278e-06
1.4240071e-08
1.1048623e-06
4.0451299e-06
3.4246665e-08
4.0904805e-06
1.6575949e-08
3.8855492e-08
1.2560124e-08
8.798418e-09
1.0612848e-08
4.266037e-09
9.4131731e-09
2.6280545e-09
8.5576967e-09
1.8740553e-09
7.9040369e-09
1.431948e-09
7.3800371e-09
1.147915e-09
6.9470108e-09
9.4862341e-10
6.5805867e-09
8.0272191e-10
6.2645642e-09
6.9231022e-10
5.9879602e-09
6.0595777e-10
5.7429806e-09
5.3667922e-10
5.5238407e-09
4.8007273e-10
5.3261289e-09
4.3313031e-10
5.1464397e-09
3.9364858e-10
4.9820809e-09
3.6006389e-10
4.8308848e-09
3.3122865e-10
4.6911059e-09
3.062168e-10
4.5613031e-09
2.8436214e-10
4.440272e-09
2.6514572e-10
4.3270045e-09
2.481379e-10
4.2206453e-09
2.3300372e-10
4.1204657e-09
2.1946595e-10
4.0258412e-09
2.0729628e-10
3.9362319e-09
1.9630962e-10
3.8511657e-09
1.8635659e-10
3.7702298e-09
1.7730842e-10
3.6930609e-09
1.6905596e-10
3.6193386e-09
1.6150541e-10
3.5487803e-09
1.54574e-10
3.4811338e-09
1.481951e-10
3.4161719e-09
1.4231369e-10
3.353691e-09
1.3687865e-10
3.2935078e-09
1.3184485e-10
3.2354565e-09
1.2717452e-10
3.1793872e-09
1.2283264e-10
3.1251647e-09
1.1878663e-10
3.0726655e-09
1.1501146e-10
3.0217753e-09
1.1148637e-10
2.9723898e-09
1.0819013e-10
2.9244133e-09
1.051034e-10
2.8777577e-09
1.0220982e-10
2.8323412e-09
9.9495057e-11
2.7880891e-09
9.6944174e-11
2.7449331e-09
9.4543062e-11
2.7028088e-09
9.2282847e-11
2.6616554e-09
9.0155847e-11
2.6214166e-09
8.8152233e-11
2.5820399e-09
8.6263433e-11
2.5434764e-09
8.4482225e-11
2.5056797e-09
8.2802225e-11
2.4686063e-09
8.1217483e-11
2.4322167e-09
7.971974e-11
2.3964734e-09
7.8303746e-11
2.3613396e-09
7.6968447e-11
2.3267806e-09
7.570945e-11
2.2927638e-09
7.4521471e-11
2.2592583e-09
7.3401319e-11
2.2262346e-09
7.2345904e-11
2.1936643e-09
7.1352533e-11
2.1615208e-09
7.0417555e-11
2.1297793e-09
6.9536962e-11
2.0984153e-09
6.8709924e-11
2.0674045e-09
6.7936131e-11
2.0367238e-09
6.7212962e-11
2.006351e-09
6.6538354e-11
1.9762647e-09
6.5910943e-11
1.9464437e-09
6.5329633e-11
1.9168674e-09
6.479351e-11
1.8875165e-09
6.4299671e-11
1.8583722e-09
6.3847138e-11
1.8294148e-09
6.343768e-11
1.800625e-09
6.307052e-11
1.7719841e-09
6.2744449e-11
1.7434732e-09
6.2459379e-11
1.7150738e-09
6.2215456e-11
1.6867667e-09
6.2013004e-11
1.6585337e-09
6.1850742e-11
1.6303562e-09
6.1729032e-11
1.6022146e-09
6.1650454e-11
1.5740889e-09
6.1615768e-11
1.5459587e-09
6.1625436e-11
1.5178029e-09
6.168171e-11
1.4895992e-09
6.1786515e-11
1.4613251e-09
6.1940754e-11
1.4329523e-09
6.2156991e-11
1.4044625e-09
6.2413241e-11
1.3758395e-09
6.2705087e-11
1.34825e-09
6.0440906e-11
1.322259e-09
5.6939034e-11
1.2977116e-09
5.377657e-11
1.2744912e-09
5.0869522e-11
1.2524887e-09
4.8201316e-11
1.2315999e-09
4.5761611e-11
1.2117307e-09
4.3527908e-11
1.1927961e-09
4.1480467e-11
1.174719e-09
3.9602002e-11
1.1574294e-09
3.7876823e-11
1.1408633e-09
3.6291838e-11
1.1249607e-09
3.4838268e-11
1.1096644e-09
3.3509949e-11
1.0949183e-09
3.2304633e-11
1.0806671e-09
3.1220571e-11
1.0668479e-09
3.0274161e-11
1.0533998e-09
2.9461386e-11
1.0402165e-09
2.8881249e-11
1.0272525e-09
2.8400938e-11
1.0141204e-09
2.876965e-11
1.0014468e-09
2.7765914e-11
9.8699235e-10
3.1660063e-11
1.8653197e-11
2.3100739e-06
2.0050924e-10
2.3099695e-06
4.7740193e-10
2.3098383e-06
6.0025603e-10
2.3096892e-06
6.8217628e-10
2.3095171e-06
7.8683278e-10
2.3093197e-06
9.030752e-10
2.309094e-06
1.0323338e-09
2.3088357e-06
1.1815173e-09
2.3085392e-06
1.3564814e-09
2.3081975e-06
1.5633692e-09
2.3078018e-06
1.8102095e-09
2.3073409e-06
2.1092273e-09
2.3068e-06
2.4755153e-09
2.3061578e-06
2.9390588e-09
2.305388e-06
3.5237111e-09
2.3044412e-06
4.3343568e-09
2.3032725e-06
5.3510834e-09
2.301718e-06
7.1189009e-09
2.2997613e-06
8.9616381e-09
2.2966266e-06
1.4361372e-08
2.2927302e-06
1.7852505e-08
2.2835801e-06
4.1929606e-08
2.2795869e-06
1.823324e-08
1.1754263e-06
5.1492905e-06
4.7336583e-08
5.2185702e-06
2.2964307e-08
6.3227768e-08
1.7401297e-08
1.4361428e-08
1.470358e-08
6.9637539e-09
1.3041431e-08
4.2902038e-09
1.1856184e-08
3.0593021e-09
1.0950552e-08
2.3375801e-09
1.0224568e-08
1.873899e-09
9.624626e-09
1.5485652e-09
9.116961e-09
1.3103869e-09
8.6791274e-09
1.1301438e-09
8.2959076e-09
9.8917754e-10
7.9565025e-09
8.7608439e-10
7.6528972e-09
7.8367797e-10
7.3789798e-09
7.0704768e-10
7.1300318e-09
6.4259661e-10
6.9023233e-09
5.8777236e-10
6.6928511e-09
5.4070088e-10
6.4991969e-09
4.99871e-10
6.3193637e-09
4.6419534e-10
6.1516833e-09
4.328261e-10
5.9947589e-09
4.050623e-10
5.8474056e-09
3.8035707e-10
5.7086137e-09
3.5825787e-10
5.577518e-09
3.3839197e-10
5.4533703e-09
3.2045725e-10
5.3355171e-09
3.0420983e-10
5.223386e-09
2.8943952e-10
5.1164738e-09
2.7596813e-10
5.0143367e-09
2.6364255e-10
4.916583e-09
2.5232767e-10
4.8228634e-09
2.4191471e-10
4.7328632e-09
2.3231385e-10
4.6463002e-09
2.2344166e-10
4.5629206e-09
2.1522445e-10
4.4824946e-09
2.0760058e-10
4.4048144e-09
2.0051286e-10
4.3296929e-09
1.9390814e-10
4.2569588e-09
1.8774552e-10
4.186454e-09
1.8199114e-10
4.1180338e-09
1.7661035e-10
4.0515657e-09
1.7157155e-10
3.9869274e-09
1.6684805e-10
3.924006e-09
1.6241646e-10
3.8626978e-09
1.5825238e-10
3.8029081e-09
1.543328e-10
3.7445477e-09
1.5064321e-10
3.6875325e-09
1.4717109e-10
3.6317844e-09
1.4390037e-10
3.5772307e-09
1.4081709e-10
3.5238035e-09
1.3790943e-10
3.4714387e-09
1.3516699e-10
3.4200762e-09
1.3258005e-10
3.3696608e-09
1.3013513e-10
3.3201408e-09
1.2782366e-10
3.2714654e-09
1.2564391e-10
3.2235861e-09
1.2358872e-10
3.1764581e-09
1.2164945e-10
3.1300385e-09
1.1982091e-10
3.0842864e-09
1.1809805e-10
3.0391625e-09
1.1647646e-10
2.9946298e-09
1.149502e-10
2.9506541e-09
1.1351272e-10
2.9072013e-09
1.1216266e-10
2.8642379e-09
1.1089952e-10
2.8217319e-09
1.0971902e-10
2.7796525e-09
1.0861778e-10
2.7379698e-09
1.0759359e-10
2.6966548e-09
1.0664466e-10
2.6556788e-09
1.0576949e-10
2.6150151e-09
1.0496335e-10
2.5746376e-09
1.0422464e-10
2.5345191e-09
1.0355624e-10
2.4946327e-09
1.0295688e-10
2.4549525e-09
1.0242461e-10
2.4154527e-09
1.0195926e-10
2.376107e-09
1.0156108e-10
2.3368894e-09
1.012306e-10
2.2977745e-09
1.0096572e-10
2.2587364e-09
1.0076705e-10
2.2197481e-09
1.0063878e-10
2.1807817e-09
1.0058216e-10
2.1418092e-09
1.0059794e-10
2.1028011e-09
1.0068981e-10
2.0637267e-09
1.008609e-10
2.0245548e-09
1.0111268e-10
1.9852461e-09
1.0146566e-10
1.9457754e-09
1.0188397e-10
1.9061201e-09
1.0236044e-10
1.8678966e-09
9.8664401e-11
1.8318877e-09
9.2947874e-11
1.7978789e-09
8.77854e-11
1.7657085e-09
8.3039903e-11
1.7352255e-09
7.8684303e-11
1.7062854e-09
7.4701707e-11
1.678758e-09
7.1055387e-11
1.6525253e-09
6.7713122e-11
1.6274806e-09
6.4646691e-11
1.603527e-09
6.1830483e-11
1.5805757e-09
5.9243126e-11
1.5585436e-09
5.6870289e-11
1.5373517e-09
5.4701905e-11
1.516922e-09
5.2734304e-11
1.497178e-09
5.0964627e-11
1.4780325e-09
4.9419636e-11
1.4594011e-09
4.8092772e-11
1.4411368e-09
4.7145598e-11
1.4231763e-09
4.6361426e-11
1.4049832e-09
4.6962715e-11
1.3874255e-09
4.5323647e-11
1.3673986e-09
5.1686885e-11
3.0441875e-11
2.4684842e-06
2.4749146e-10
2.4683722e-06
5.8936047e-10
2.4682314e-06
7.4112011e-10
2.4680713e-06
8.4228195e-10
2.4678866e-06
9.7149215e-10
2.4676747e-06
1.1150013e-09
2.4674324e-06
1.2745719e-09
2.4671552e-06
1.4587307e-09
2.466837e-06
1.6747053e-09
2.4664703e-06
1.9300767e-09
2.4660457e-06
2.2347522e-09
2.4655512e-06
2.6038171e-09
2.4649708e-06
3.0558938e-09
2.4642819e-06
3.6279834e-09
2.4634561e-06
4.3495113e-09
2.4624405e-06
5.3499044e-09
2.461187e-06
6.6045476e-09
2.45952e-06
8.7859654e-09
2.457422e-06
1.1059654e-08
2.4540614e-06
1.772193e-08
2.4498845e-06
2.2029369e-08
2.440077e-06
5.1737109e-08
2.4357859e-06
2.2524379e-08
1.2649375e-06
6.3201389e-06
6.3183499e-08
6.4203242e-06
3.0726235e-08
9.5685032e-08
2.3283648e-08
2.1804014e-08
1.9674167e-08
1.0573236e-08
1.745004e-08
6.5143306e-09
1.5864081e-08
4.6452609e-09
1.4652272e-08
3.5493894e-09
1.3680856e-08
2.8453151e-09
1.2878095e-08
2.3513257e-09
1.2198809e-08
1.9896725e-09
1.1612965e-08
1.7159881e-09
1.1100199e-08
1.5019437e-09
1.064606e-08
1.3302234e-09
1.0239823e-08
1.1899144e-09
9.8733113e-09
1.0735599e-09
9.5402094e-09
9.7569846e-10
9.235527e-09
8.9245474e-10
8.9552458e-09
8.2098211e-10
8.6961299e-09
7.5898694e-10
8.4555068e-09
7.0481843e-10
8.2311448e-09
6.5718812e-10
8.0211747e-09
6.150324e-10
7.824011e-09
5.7752075e-10
7.6383028e-09
5.4396603e-10
7.4628925e-09
5.138023e-10
7.2967789e-09
4.8657085e-10
7.1390874e-09
4.6190133e-10
6.9890523e-09
4.3947459e-10
6.8460003e-09
4.190201e-10
6.7093375e-09
4.0030538e-10
6.5785399e-09
3.8312528e-10
6.45314e-09
3.6731461e-10
6.3327168e-09
3.5273702e-10
6.2168927e-09
3.3926581e-10
6.105328e-09
3.267891e-10
5.9977153e-09
3.1521329e-10
5.8937766e-09
3.0445156e-10
5.7932616e-09
2.9442319e-10
5.695941e-09
2.8506611e-10
5.6016032e-09
2.7632888e-10
5.5100547e-09
2.6815889e-10
5.4211181e-09
2.6050816e-10
5.33463e-09
2.5333618e-10
5.250439e-09
2.4660741e-10
5.1684066e-09
2.4028483e-10
5.0884059e-09
2.3433349e-10
5.0103177e-09
2.2873137e-10
4.9340294e-09
2.2345942e-10
4.8594364e-09
2.184933e-10
4.7864418e-09
2.1381175e-10
4.7149543e-09
2.0939688e-10
4.6448884e-09
2.0523287e-10
4.5761635e-09
2.0130495e-10
4.508706e-09
1.9759268e-10
4.4424466e-09
1.9408303e-10
4.3773172e-09
1.9077339e-10
4.313253e-09
1.8765286e-10
4.2501941e-09
1.8470836e-10
4.188083e-09
1.8193197e-10
4.1268651e-09
1.7931604e-10
4.0664876e-09
1.7685389e-10
4.0069014e-09
1.7453647e-10
3.9480602e-09
1.7235386e-10
3.8899189e-09
1.7030399e-10
3.8324323e-09
1.6838608e-10
3.7755577e-09
1.6659365e-10
3.7192539e-09
1.6492158e-10
3.663481e-09
1.633665e-10
3.6082e-09
1.6192568e-10
3.5533726e-09
1.6059685e-10
3.4989631e-09
1.5937284e-10
3.4449366e-09
1.5825121e-10
3.3912565e-09
1.5723634e-10
3.337887e-09
1.5632631e-10
3.2847935e-09
1.5551813e-10
3.2319412e-09
1.5481156e-10
3.1792953e-09
1.5420699e-10
3.1268207e-09
1.537052e-10
3.0744834e-09
1.5330303e-10
3.0222491e-09
1.5300138e-10
2.9700812e-09
1.5280662e-10
2.9179427e-09
1.5272066e-10
2.865796e-09
1.5274463e-10
2.8136017e-09
1.5288412e-10
2.7613187e-09
1.531439e-10
2.7089052e-09
1.535262e-10
2.6563087e-09
1.5406216e-10
2.6034953e-09
1.5469732e-10
2.5504349e-09
1.5542085e-10
2.4992904e-09
1.4980897e-10
2.4511091e-09
1.4112912e-10
2.405604e-09
1.3329053e-10
2.3625588e-09
1.2608512e-10
2.3217713e-09
1.1947173e-10
2.2830483e-09
1.1342469e-10
2.2462155e-09
1.0788824e-10
2.2111152e-09
1.0281345e-10
2.1776044e-09
9.8157468e-11
2.1455535e-09
9.3881415e-11
2.1148438e-09
8.9952839e-11
2.0853641e-09
8.6349972e-11
2.0570084e-09
8.3057531e-11
2.0296728e-09
8.0069939e-11
2.0032546e-09
7.7382851e-11
1.9776373e-09
7.5036886e-11
1.952708e-09
7.3022089e-11
1.9282699e-09
7.1583676e-11
1.9042385e-09
7.039286e-11
1.8798964e-09
7.1304789e-11
1.8564044e-09
6.881565e-11
1.829607e-09
7.8484297e-11
4.6214287e-11
2.6636805e-06
2.9841704e-10
2.663559e-06
7.1076967e-10
2.6634062e-06
8.9392744e-10
2.6632325e-06
1.015972e-09
2.6630322e-06
1.1718142e-09
2.6628023e-06
1.3448951e-09
2.6625396e-06
1.5373358e-09
2.6622389e-06
1.7594165e-09
2.6618937e-06
2.0198518e-09
2.661496e-06
2.3277803e-09
2.6610356e-06
2.695144e-09
2.6604993e-06
3.1401263e-09
2.6598701e-06
3.6851719e-09
2.6591232e-06
4.3748808e-09
2.658228e-06
5.244709e-09
2.6571272e-06
6.4506671e-09
2.6557687e-06
7.9630229e-09
2.6539623e-06
1.0592413e-08
2.6516892e-06
1.3332774e-08
2.648049e-06
2.136208e-08
2.643525e-06
2.6553402e-08
2.6329038e-06
6.2358279e-08
2.6282426e-06
2.7185579e-08
1.3752071e-06
7.5731743e-06
8.2710177e-08
7.7128212e-06
4.0325983e-08
1.3806923e-07
3.0559129e-08
3.1570869e-08
2.5822038e-08
1.5310327e-08
2.2902789e-08
9.4335789e-09
2.0821194e-08
6.7268567e-09
1.9230677e-08
5.1399059e-09
1.7955693e-08
4.1202988e-09
1.6902074e-08
3.4049456e-09
1.6010518e-08
2.8812283e-09
1.5241607e-08
2.484899e-09
1.4568612e-08
2.1749382e-09
1.3972566e-08
1.9262696e-09
1.3439392e-08
1.7230885e-09
1.2958356e-08
1.5545963e-09
1.252117e-08
1.4128841e-09
1.2121284e-08
1.2923406e-09
1.1753425e-08
1.1888417e-09
1.1413344e-08
1.0990675e-09
1.1097535e-08
1.0206278e-09
1.0803067e-08
9.5165534e-10
1.0527489e-08
8.9061066e-10
1.0268719e-08
8.3629099e-10
1.0024984e-08
7.8770128e-10
9.7947639e-09
7.4402201e-10
9.5767458e-09
7.0458892e-10
9.3697814e-09
6.6886569e-10
9.1728659e-09
6.3639017e-10
8.9851154e-09
6.0677062e-10
8.8057504e-09
5.7967037e-10
8.6340832e-09
5.5479239e-10
8.4695004e-09
5.3189745e-10
8.3114493e-09
5.1078809e-10
8.1594343e-09
4.9128084e-10
8.0130097e-09
4.732137e-10
7.8717719e-09
4.5645112e-10
7.7353561e-09
4.4086739e-10
7.6034336e-09
4.2634563e-10
7.4757038e-09
4.1279595e-10
7.3518888e-09
4.0014384e-10
7.2317346e-09
3.8831312e-10
7.1150084e-09
3.7723435e-10
7.0014958e-09
3.6684883e-10
6.8909981e-09
3.571051e-10
6.7833333e-09
3.4794958e-10
6.6783352e-09
3.3933164e-10
6.5758472e-09
3.3121939e-10
6.4757213e-09
3.2358525e-10
6.3778207e-09
3.1639397e-10
6.2820176e-09
3.0961477e-10
6.1881928e-09
3.0322174e-10
6.0962337e-09
2.9719196e-10
6.0060346e-09
2.9150406e-10
5.9174988e-09
2.8612844e-10
5.8305356e-09
2.8104625e-10
5.7450553e-09
2.7625366e-10
5.6609733e-09
2.7173493e-10
5.5782105e-09
2.6747109e-10
5.4966918e-09
2.634507e-10
5.4163452e-09
2.5966265e-10
5.3371018e-09
2.5609729e-10
5.2588967e-09
2.5274151e-10
5.1816697e-09
2.4958095e-10
5.105361e-09
2.466126e-10
5.0299118e-09
2.4383535e-10
4.9552656e-09
2.4123979e-10
4.8813687e-09
2.3881852e-10
4.8081685e-09
2.3656666e-10
4.7356139e-09
2.3448026e-10
4.6636548e-09
2.3255603e-10
4.592244e-09
2.3078359e-10
4.5213358e-09
2.291594e-10
4.4508824e-09
2.2768981e-10
4.3808366e-09
2.2637203e-10
4.311153e-09
2.2520173e-10
4.241786e-09
2.2417859e-10
4.1726899e-09
2.2330313e-10
4.1038186e-09
2.2257651e-10
4.0351274e-09
2.2199416e-10
3.9665715e-09
2.2155735e-10
3.8981027e-09
2.2127535e-10
3.8296725e-09
2.2115087e-10
3.7612316e-09
2.211856e-10
3.6927281e-09
2.213876e-10
3.6241082e-09
2.2176379e-10
3.555317e-09
2.2231741e-10
3.4862856e-09
2.2309351e-10
3.4169697e-09
2.2401328e-10
3.3473294e-09
2.2506115e-10
3.2802035e-09
2.1693482e-10
3.216967e-09
2.0436567e-10
3.1572428e-09
1.9301472e-10
3.1007472e-09
1.8258075e-10
3.0472148e-09
1.7300408e-10
2.996392e-09
1.6424752e-10
2.9480499e-09
1.5623032e-10
2.9019817e-09
1.4888164e-10
2.8579997e-09
1.4213943e-10
2.8159338e-09
1.3594736e-10
2.7756282e-09
1.3025847e-10
2.7369369e-09
1.250412e-10
2.699721e-09
1.2027345e-10
2.6638438e-09
1.1594711e-10
2.6291708e-09
1.120559e-10
2.5955491e-09
1.0865861e-10
2.5628303e-09
1.0574083e-10
2.5307565e-09
1.036575e-10
2.4992165e-09
1.0193288e-10
2.4672696e-09
1.032517e-10
2.4364382e-09
9.9646995e-11
2.401267e-09
1.1365553e-10
6.6914361e-11
2.8985716e-06
3.5412521e-10
2.8984387e-06
8.4365024e-10
2.8982714e-06
1.061241e-09
2.8980812e-06
1.2061632e-09
2.8978618e-06
1.3911612e-09
2.8976101e-06
1.5966126e-09
2.8973224e-06
1.8250284e-09
2.8969932e-06
2.0886068e-09
2.8966154e-06
2.3976887e-09
2.8961801e-06
2.7631158e-09
2.8956761e-06
3.1990535e-09
2.8950892e-06
3.7270716e-09
2.8944006e-06
4.3737912e-09
2.8935833e-06
5.1921178e-09
2.892604e-06
6.2240924e-09
2.8913998e-06
7.6547817e-09
2.889914e-06
9.4488311e-09
2.8879386e-06
1.2567826e-08
2.8854533e-06
1.5818107e-08
2.8814744e-06
2.5340925e-08
2.8765299e-06
3.1497941e-08
2.8649235e-06
7.3964673e-08
2.8598121e-06
3.2297019e-08
1.5084597e-06
8.9245267e-06
1.0704831e-07
9.1142326e-06
5.2337696e-08
1.9277984e-07
3.9663047e-08
4.4245518e-08
3.351508e-08
2.1458294e-08
2.9725951e-08
1.3222708e-08
2.7024126e-08
9.4286811e-09
2.4959705e-08
7.2043272e-09
2.330485e-08
5.7751533e-09
2.1937318e-08
4.7724782e-09
2.0780139e-08
4.0384067e-09
1.9782151e-08
3.4828871e-09
1.8908659e-08
3.0484304e-09
1.8135042e-08
2.6998869e-09
1.7443029e-08
2.4151018e-09
1.6818687e-08
2.1789383e-09
1.625126e-08
1.9803111e-09
1.5732245e-08
1.8113555e-09
1.5254798e-08
1.6662889e-09
1.4813405e-08
1.5404597e-09
1.4403515e-08
1.4305186e-09
1.4021324e-08
1.3338456e-09
1.366365e-08
1.2482848e-09
1.3327791e-08
1.1721499e-09
1.3011446e-08
1.1040461e-09
1.2712643e-08
1.042825e-09
1.2429677e-08
9.8755533e-10
1.2161057e-08
9.3748545e-10
1.190548e-08
8.9196759e-10
1.1661798e-08
8.5045267e-10
1.1428999e-08
8.1246883e-10
1.1206192e-08
7.7759976e-10
1.0992579e-08
7.4551014e-10
1.0787444e-08
7.1592318e-10
1.0590143e-08
6.8858174e-10
1.0400098e-08
6.6325878e-10
1.0216785e-08
6.3976429e-10
1.003973e-08
6.1792208e-10
9.8685077e-09
5.9756836e-10
9.7027265e-09
5.7857709e-10
9.5420265e-09
5.6084386e-10
9.3860777e-09
5.442619e-10
9.2345782e-09
5.2873386e-10
9.0872495e-09
5.1417749e-10
8.943834e-09
5.0052066e-10
8.8040953e-09
4.8768825e-10
8.6678176e-09
4.7560933e-10
8.5347978e-09
4.642392e-10
8.4048439e-09
4.5353918e-10
8.277778e-09
4.4345985e-10
8.1534347e-09
4.3395812e-10
8.0316588e-09
4.2499763e-10
7.9123045e-09
4.1654627e-10
7.7952344e-09
4.0857411e-10
7.6803232e-09
4.0103963e-10
7.567453e-09
3.9391644e-10
7.4565076e-09
3.8719914e-10
7.3473768e-09
3.8086567e-10
7.2399585e-09
3.7488947e-10
7.1341547e-09
3.6925448e-10
7.0298722e-09
3.6394515e-10
6.9270215e-09
3.5894793e-10
6.8255186e-09
3.5424447e-10
6.7252849e-09
3.4981464e-10
6.6262433e-09
3.456542e-10
6.528317e-09
3.417616e-10
6.4314332e-09
3.3812367e-10
6.3355217e-09
3.3473002e-10
6.2405145e-09
3.3157381e-10
6.1463452e-09
3.2864951e-10
6.0529488e-09
3.2595252e-10
5.9602641e-09
3.2346828e-10
5.8682316e-09
3.2119183e-10
5.7767894e-09
3.1913206e-10
5.6858764e-09