/*--------------------------------*- C++ -*----------------------------------*\
| =========                 |                                                 |
| \\      /  F ield         | OpenFOAM: The Open Source CFD Toolbox           |
|  \\    /   O peration     | Version:  2206                                  |
|   \\  /    A nd           | Website:  www.openfoam.com                      |
|    \\/     M anipulation  |                                                 |
\*---------------------------------------------------------------------------*/
FoamFile
{
    version     2.0;
    format      ascii;
    arch        "LSB;label=32;scalar=64";
    class       volVectorField;
    location    "1900";
    object      U;
}
// * * * * * * * * * * * * * * * * * * * * * * * * * * * * * * * * * * * * * //

dimensions      [0 1 -1 0 0 0 0];

internalField   nonuniform List<vector> 
13056
(
(1 4.6943806e-10 4.2460487e-25)
(0.99996468 1.2680527e-09 0)
(0.99991173 1.8086731e-09 0)
(0.99985272 2.3318978e-09 0)
(0.99978463 3.0505e-09 0)
(0.9997061 3.9691541e-09 0)
(0.9996163 5.1408582e-09 0)
(0.99951365 6.6616529e-09 0)
(0.99939602 8.6511836e-09 0)
(0.99926075 1.1264732e-08 0)
(0.99910452 1.471358e-08 0)
(0.99892319 1.9301606e-08 0)
(0.99871117 2.5441288e-08 0)
(0.99846146 3.3816376e-08 0)
(0.99816297 4.5212905e-08 0)
(0.99780397 6.1718633e-08 0)
(0.99735451 8.4053942e-08 0)
(0.99680451 1.2246086e-07 0)
(0.99602767 1.673529e-07 0)
(0.99512582 2.8819159e-07 0)
(0.99335663 3.8035002e-07 0)
(0.9917638 9.3588346e-07 0)
(0.98555812 4.1913217e-07 -4.7505644e-21)
(0.98823803 0.00012299884 7.7541922e-18)
(0.0031418711 0.0001235097 0)
(0.0012269584 6.475563e-08 -1.0300797e-20)
(0.00087494765 4.6301081e-08 3.4187907e-18)
(0.0007180336 5.3128266e-09 0)
(0.0006281082 3.2451912e-09 0)
(0.0005659542 2.2929579e-09 0)
(0.00051963997 1.7359317e-09 0)
(0.00048306531 1.3783599e-09 0)
(0.00045318647 1.1279243e-09 0)
(0.00042814584 9.4486764e-10 0)
(0.00040671133 8.0651637e-10 0)
(0.00038806145 6.9845877e-10 0)
(0.00037162551 6.1189763e-10 0)
(0.00035698612 5.4126548e-10 0)
(0.00034382722 4.8277106e-10 0)
(0.0003319055 4.3364504e-10 0)
(0.00032103243 3.9190638e-10 0)
(0.00031105519 3.5610957e-10 1.6563601e-25)
(0.00030185161 3.2509445e-10 0)
(0.00029332255 2.9802041e-10 0)
(0.00028538441 2.7423538e-10 0)
(0.000277968 2.5320014e-10 0)
(0.00027101466 2.3449386e-10 0)
(0.00026447457 2.1776979e-10 0)
(0.00025830511 2.0274296e-10 0)
(0.00025246971 1.8918197e-10 0)
(0.00024693643 1.7689886e-10 0)
(0.00024167736 1.657325e-10 0)
(0.00023666803 1.5554662e-10 0)
(0.00023188682 1.4622458e-10 0)
(0.00022731472 1.3766444e-10 0)
(0.00022293489 1.2978296e-10 0)
(0.00021873216 1.2251042e-10 0)
(0.00021469291 1.1578327e-10 0)
(0.00021080492 1.0954571e-10 0)
(0.00020705716 1.0375044e-10 0)
(0.00020343961 9.8354377e-11 0)
(0.00019994328 9.3318268e-11 0)
(0.00019656002 8.8610548e-11 0)
(0.0001932823 8.4204252e-11 0)
(0.00019010318 8.0073137e-11 0)
(0.00018701634 7.6193551e-11 0)
(0.00018401596 7.2545048e-11 0)
(0.00018109667 6.9109514e-11 0)
(0.0001782535 6.5869207e-11 0)
(0.00017548192 6.2807775e-11 0)
(0.00017277779 5.991314e-11 0)
(0.0001701371 5.7174442e-11 0)
(0.00016755613 5.4579898e-11 0)
(0.00016503146 5.211908e-11 0)
(0.00016255986 4.9782849e-11 0)
(0.00016013833 4.7562954e-11 0)
(0.000157764 4.545178e-11 0)
(0.00015543423 4.3440758e-11 0)
(0.00015314663 4.1523432e-11 0)
(0.00015089885 3.9695849e-11 0)
(0.00014868856 3.7952383e-11 0)
(0.00014651367 3.6287267e-11 0)
(0.00014437216 3.4696039e-11 0)
(0.00014226211 3.3174469e-11 0)
(0.00014018171 3.1718699e-11 0)
(0.00013812917 3.0324618e-11 0)
(0.00013610288 2.8988182e-11 0)
(0.00013410132 2.7706886e-11 0)
(0.0001321229 2.6478487e-11 0)
(0.00013016612 2.5299895e-11 0)
(0.00012822955 2.4168398e-11 0)
(0.0001263118 2.3081665e-11 0)
(0.00012441153 2.2037545e-11 0)
(0.00012252741 2.1034041e-11 0)
(0.00012065815 2.0068594e-11 0)
(0.00011880259 1.9139407e-11 0)
(0.00011695949 1.8245564e-11 0)
(0.00011512759 1.738537e-11 0)
(0.0001133057 1.6557104e-11 0)
(0.00011149262 1.5759417e-11 0)
(0.00010968717 1.4991057e-11 0)
(0.00010788815 1.4250852e-11 0)
(0.00010609435 1.3537298e-11 0)
(0.00010430465 1.2849337e-11 0)
(0.00010251781 1.2186385e-11 0)
(0.00010073255 1.1547447e-11 0)
(9.8947608e-05 1.0931503e-11 0)
(9.716167e-05 1.033787e-11 0)
(9.5373334e-05 9.7657868e-12 0)
(9.3581177e-05 9.2143223e-12 0)
(9.1783742e-05 8.6842223e-12 0)
(8.9978855e-05 8.1713379e-12 0)
(8.8166422e-05 7.67443e-12 0)
(8.6385285e-05 7.210063e-12 0)
(8.4688598e-05 6.7923814e-12 0)
(8.3087452e-05 6.4151724e-12 0)
(8.1573926e-05 6.0683979e-12 0)
(8.0141151e-05 5.7501117e-12 0)
(7.8782165e-05 5.4590861e-12 0)
(7.7490694e-05 5.1926348e-12 0)
(7.6261081e-05 4.9484041e-12 0)
(7.5088195e-05 4.7243315e-12 0)
(7.3967379e-05 4.5185457e-12 0)
(7.2894412e-05 4.329485e-12 0)
(7.1865395e-05 4.1561032e-12 0)
(7.0876615e-05 3.9976669e-12 0)
(6.992453e-05 3.8539086e-12 0)
(6.9005556e-05 3.7246225e-12 0)
(6.8116254e-05 3.6117629e-12 0)
(6.7252088e-05 3.5148736e-12 0)
(6.6409852e-05 3.4457131e-12 0)
(6.5579268e-05 3.3886445e-12 0)
(6.4764845e-05 3.4324543e-12 0)
(6.3912822e-05 1.3873067e-11 0)
(6.315674e-05 3.7473996e-12 2.5864937e-24)
(6.2078082e-05 9.3658095e-12 0)
(1 1.4165642e-09 0)
(0.99996462 3.8268548e-09 0)
(0.99991157 5.4587349e-09 0)
(0.99985244 7.0379413e-09 0)
(0.99978421 9.2067235e-09 0)
(0.99970553 1.1979241e-08 0)
(0.99961555 1.551541e-08 0)
(0.99951271 2.0105044e-08 0)
(0.99939485 2.6109183e-08 0)
(0.99925932 3.3996389e-08 0)
(0.9991028 4.4404195e-08 0)
(0.99892113 5.8249515e-08 0)
(0.99870873 7.6776914e-08 0)
(0.99845858 1.0204946e-07 0)
(0.99815957 1.3643868e-07 0)
(0.99779995 1.862438e-07 0)
(0.99734974 2.5363748e-07 0)
(0.99679886 3.6952169e-07 0)
(0.9960208 5.0496875e-07 0)
(0.99511758 8.6954528e-07 0)
(0.99334589 1.1475958e-06 0)
(0.9917508 2.8236984e-06 0)
(0.98553661 1.2635547e-06 1.6983929e-20)
(0.98821628 0.00036968184 -6.5176531e-21)
(0.009436655 0.00037170654 0)
(0.0036990106 1.2058338e-06 0)
(0.0026378753 2.6441032e-07 2.1229796e-22)
(0.0021648498 1.2654557e-07 0)
(0.0018937117 7.7263373e-08 0)
(0.0017063162 5.4600295e-08 0)
(0.0015666758 4.1333163e-08 0)
(0.0014564033 3.2819467e-08 0)
(0.0013663184 2.6856281e-08 0)
(0.0012908213 2.2497538e-08 0)
(0.0012261969 1.9203151e-08 0)
(0.0011699684 1.6630204e-08 0)
(0.001120415 1.4569136e-08 0)
(0.0010762782 1.2887527e-08 0)
(0.0010366051 1.1494848e-08 0)
(0.001000662 1.0325055e-08 0)
(0.00096788062 9.3312028e-09 0)
(0.00093780005 8.4788206e-09 -2.4449405e-25)
(0.00091005212 7.7403136e-09 -2.989956e-25)
(0.00088433774 7.0956736e-09 0)
(0.00086040497 6.5293375e-09 0)
(0.00083804519 6.0284803e-09 0)
(0.00081708151 5.5830803e-09 0)
(0.00079736376 5.184879e-09 0)
(0.00077876344 4.8270925e-09 0)
(0.00076117025 4.5042095e-09 0)
(0.00074448797 4.2117521e-09 0)
(0.00072863237 3.9458856e-09 0)
(0.00071352973 3.7033646e-09 0)
(0.00069911486 3.4814116e-09 0)
(0.00068533042 3.2776009e-09 0)
(0.00067212566 3.089949e-09 0)
(0.00065945487 2.9167953e-09 0)
(0.00064727692 2.7566272e-09 0)
(0.000635555 2.6081164e-09 0)
(0.00062425587 2.4701362e-09 0)
(0.00061334933 2.341661e-09 0)
(0.00060280823 2.2217569e-09 0)
(0.00059260807 2.1096715e-09 0)
(0.00058272606 2.0047623e-09 0)
(0.00057314133 1.9064052e-09 0)
(0.0005638348 1.8140367e-09 0)
(0.00055478896 1.7271703e-09 0)
(0.0005459876 1.6453744e-09 0)
(0.00053741571 1.5682267e-09 0)
(0.0005290597 1.4953385e-09 0)
(0.00052090701 1.4264213e-09 0)
(0.00051294559 1.3612165e-09 0)
(0.00050516422 1.2994441e-09 0)
(0.00049755259 1.2408556e-09 0)
(0.00049010096 1.1852332e-09 0)
(0.00048280028 1.1323809e-09 0)
(0.00047564194 1.0821168e-09 0)
(0.0004686179 1.0342376e-09 0)
(0.00046172102 9.8858945e-10 0)
(0.00045494417 9.4507747e-10 0)
(0.00044828037 9.0356835e-10 0)
(0.00044172329 8.6392469e-10 0)
(0.00043526685 8.2604017e-10 0)
(0.00042890528 7.8981416e-10 0)
(0.00042263306 7.5515472e-10 0)
(0.00041644486 7.2196403e-10 0)
(0.00041033581 6.9014596e-10 0)
(0.00040430129 6.5964066e-10 0)
(0.00039833656 6.3039462e-10 0)
(0.00039243705 6.0233449e-10 0)
(0.00038659849 5.7539564e-10 0)
(0.00038081667 5.4952253e-10 0)
(0.00037508755 5.2466402e-10 0)
(0.00036940711 5.0077242e-10 0)
(0.00036377148 4.7778698e-10 0)
(0.00035817714 4.5566494e-10 0)
(0.00035262037 4.3438423e-10 0)
(0.00034709737 4.1390471e-10 0)
(0.00034160455 3.9418534e-10 0)
(0.0003361383 3.7519398e-10 0)
(0.00033069506 3.569009e-10 0)
(0.00032527118 3.3927807e-10 0)
(0.00031986306 3.222898e-10 0)
(0.00031446727 3.0591089e-10 0)
(0.00030908012 2.9012734e-10 0)
(0.00030369775 2.7491554e-10 0)
(0.00029831633 2.602512e-10 0)
(0.0002929319 2.4611803e-10 0)
(0.00028754024 2.3249785e-10 0)
(0.00028213707 2.1936862e-10 0)
(0.00027671798 2.06748e-10 0)
(0.00027127643 1.9453698e-10 0)
(0.00026581212 1.8270761e-10 0)
(0.00026044216 1.7165271e-10 0)
(0.00025532681 1.6170758e-10 0)
(0.00025049952 1.5272636e-10 0)
(0.00024593639 1.444703e-10 0)
(0.00024161672 1.3689257e-10 0)
(0.00023751951 1.2996379e-10 0)
(0.00023362586 1.2362005e-10 0)
(0.0002299187 1.1780532e-10 0)
(0.00022638257 1.1247049e-10 0)
(0.00022300342 1.0757101e-10 0)
(0.00021976854 1.030697e-10 0)
(0.00021666616 9.8941638e-11 0)
(0.00021368509 9.5169314e-11 0)
(0.00021081466 9.1746364e-11 0)
(0.00020804406 8.8667832e-11 0)
(0.00020536292 8.5980323e-11 0)
(0.00020275757 8.3672454e-11 0)
(0.00020021835 8.2025536e-11 0)
(0.00019771427 8.0662228e-11 0)
(0.00019525892 8.1711507e-11 0)
(0.00019269031 7.9205942e-11 0)
(0.00019041079 8.9851297e-11 -4.0006261e-24)
(0.00018715874 5.3306462e-11 2.4623364e-25)
(1 2.3866568e-09 0)
(0.99996455 6.4480369e-09 0)
(0.99991136 9.1982776e-09 0)
(0.99985208 1.1859454e-08 0)
(0.99978368 1.5513935e-08 0)
(0.9997048 2.0185675e-08 0)
(0.99961459 2.614408e-08 0)
(0.9995115 3.3877415e-08 0)
(0.99939335 4.3993949e-08 0)
(0.99925749 5.7283076e-08 0)
(0.9991006 7.481883e-08 0)
(0.99891851 9.8145877e-08 0)
(0.99870562 1.293608e-07 0)
(0.99845489 1.7193901e-07 0)
(0.99815522 2.2987526e-07 0)
(0.99779482 3.1378089e-07 0)
(0.99734365 4.2731429e-07 0)
(0.99679164 6.2253041e-07 0)
(0.99601204 8.5069372e-07 0)
(0.99510709 1.4648042e-06 0)
(0.99333221 1.9331724e-06 0)
(0.99173424 4.75652e-06 0)
(0.98550928 2.1301113e-06 -8.9983186e-21)
(0.98818866 0.00062010166 5.368239e-55)
(0.015834916 0.00062470837 -5.3673308e-55)
(0.0062260248 3.4221338e-06 0)
(0.0044401045 7.6942522e-07 -1.101412e-22)
(0.0036439756 3.7055812e-07 0)
(0.0031875624 2.2625944e-07 0)
(0.0028721251 1.5989172e-07 0)
(0.0026370701 1.2103959e-07 0)
(0.0024514525 9.6107367e-08 0)
(0.0022998164 7.8644864e-08 0)
(0.0021727356 6.5880569e-08 0)
(0.002063957 5.62332e-08 0)
(0.0019693111 4.8698584e-08 0)
(0.0018859011 4.2663013e-08 0)
(0.0018116088 3.7738656e-08 0)
(0.0017448299 3.3660401e-08 0)
(0.0016843296 3.0234857e-08 0)
(0.0016291512 2.7324543e-08 0)
(0.0015785189 2.4828483e-08 0)
(0.001531813 2.2665898e-08 0)
(0.0014885301 2.0778206e-08 0)
(0.001448246 1.9119797e-08 0)
(0.0014106096 1.7653135e-08 0)
(0.0013753231 1.634887e-08 0)
(0.0013421339 1.5182817e-08 0)
(0.0013108255 1.4135113e-08 0)
(0.0012812124 1.3189617e-08 0)
(0.0012531325 1.2333216e-08 0)
(0.0012264441 1.1554681e-08 0)
(0.0012010231 1.0844509e-08 0)
(0.0011767597 1.0194566e-08 0)
(0.0011535575 9.59775e-09 0)
(0.0011313311 9.0482512e-09 0)
(0.0011100034 8.5412074e-09 0)
(0.0010895053 8.0721893e-09 0)
(0.0010697748 7.637307e-09 0)
(0.0010507559 7.2332613e-09 0)
(0.0010323978 6.8570492e-09 0)
(0.0010146549 6.5059359e-09 0)
(0.00099748581 6.177718e-09 0)
(0.00098085227 5.8705139e-09 0)
(0.00096471908 5.5824962e-09 0)
(0.00094905419 5.3120152e-09 0)
(0.00093382809 5.0576456e-09 0)
(0.00091901351 4.8181237e-09 0)
(0.00090458517 4.5922134e-09 0)
(0.0008905202 4.378776e-09 0)
(0.00087679746 4.1769671e-09 0)
(0.00086339666 3.986029e-09 0)
(0.00085029895 3.8051417e-09 0)
(0.00083748692 3.6335778e-09 0)
(0.00082494423 3.4706999e-09 0)
(0.00081265561 3.3159332e-09 0)
(0.00080060657 3.1687457e-09 0)
(0.0007887836 3.0285418e-09 0)
(0.00077717466 2.8948711e-09 0)
(0.00076576775 2.7674557e-09 0)
(0.00075455114 2.6459052e-09 0)
(0.00074351414 2.5298173e-09 0)
(0.00073264657 2.4188807e-09 0)
(0.00072193867 2.3128006e-09 0)
(0.00071138116 2.2113079e-09 0)
(0.00070096508 2.1141161e-09 0)
(0.00069068223 2.0209438e-09 0)
(0.00068052482 1.9316157e-09 0)
(0.00067048489 1.845975e-09 0)
(0.00066055474 1.7638069e-09 0)
(0.00065072718 1.6849223e-09 0)
(0.00064099512 1.6091585e-09 0)
(0.00063135177 1.5363657e-09 0)
(0.00062179037 1.4664043e-09 0)
(0.00061230437 1.3990964e-09 0)
(0.00060288788 1.3343168e-09 0)
(0.00059353464 1.2720008e-09 0)
(0.00058423823 1.212031e-09 0)
(0.00057499262 1.154287e-09 0)
(0.00056579173 1.0986749e-09 0)
(0.00055662957 1.0451075e-09 0)
(0.00054750002 9.9350288e-10 0)
(0.00053839697 9.4375639e-10 0)
(0.00052931469 8.957943e-10 0)
(0.00052024695 8.4957555e-10 0)
(0.00051118725 8.0503106e-10 0)
(0.00050212914 7.6208968e-10 0)
(0.00049306599 7.2070372e-10 0)
(0.00048399066 6.8081993e-10 0)
(0.00047489594 6.423738e-10 0)
(0.00046577444 6.0541696e-10 0)
(0.00045661512 5.6965959e-10 0)
(0.0004474175 5.3502018e-10 0)
(0.00043837869 5.0264851e-10 0)
(0.00042976844 4.7352602e-10 0)
(0.00042164305 4.4722615e-10 0)
(0.00041396231 4.2305001e-10 0)
(0.00040669137 4.0086028e-10 0)
(0.00039979488 3.8057081e-10 0)
(0.00039324102 3.6199451e-10 0)
(0.00038700106 3.4496727e-10 0)
(0.00038104899 3.2934533e-10 0)
(0.00037536116 3.1499818e-10 0)
(0.00036991615 3.0181697e-10 0)
(0.00036469418 2.897287e-10 0)
(0.00035967641 2.786821e-10 0)
(0.00035484487 2.6865851e-10 0)
(0.00035018136 2.5964341e-10 0)
(0.00034566845 2.5177323e-10 0)
(0.00034128311 2.4501457e-10 0)
(0.00033700909 2.401911e-10 0)
(0.00033279425 2.3619781e-10 0)
(0.00032866142 2.3926814e-10 0)
(0.00032433811 2.3048959e-10 0)
(0.00032050119 2.6322096e-10 0)
(0.00031502728 1.549559e-10 0)
(1 3.3948223e-09 8.7612819e-25)
(0.99996445 9.1727582e-09 0)
(0.9999111 1.3086229e-08 0)
(0.99985164 1.6872456e-08 0)
(0.99978302 2.2071556e-08 0)
(0.9997039 2.8717772e-08 0)
(0.99961341 3.7194273e-08 0)
(0.99951 4.8195559e-08 0)
(0.9993915 6.2586821e-08 0)
(0.99925523 8.1490838e-08 0)
(0.99909788 1.0643519e-07 0)
(0.99891525 1.3961679e-07 0)
(0.99870176 1.840174e-07 0)
(0.99845033 2.4457972e-07 0)
(0.99814983 3.2698457e-07 0)
(0.99778847 4.46323e-07 0)
(0.99733613 6.07795e-07 0)
(0.99678271 8.8542969e-07 0)
(0.99600121 1.2099073e-06 0)
(0.99509412 2.083209e-06 0)
(0.99331531 2.7492645e-06 0)
(0.99171381 6.7642764e-06 0)
(0.98547561 3.0317525e-06 0)
(0.98815462 0.00087795925 -2.8006774e-55)
(0.022428912 0.00088635974 2.8002062e-55)
(0.0088456346 7.0630805e-06 0)
(0.0063084862 1.5891442e-06 0)
(0.0051774534 7.6417237e-07 0)
(0.0045289406 4.6662007e-07 0)
(0.0040807528 3.297464e-07 0)
(0.0037467729 2.4962055e-07 0)
(0.0034830403 1.9820139e-07 0)
(0.0032675904 1.6218836e-07 0)
(0.0030870301 1.3586426e-07 0)
(0.0029324748 1.1596826e-07 0)
(0.0027980002 1.0042955e-07 0)
(0.0026794901 8.798242e-08 0)
(0.0025739346 7.7826981e-08 0)
(0.0024790545 6.9416466e-08 0)
(0.0023930953 6.2352047e-08 0)
(0.0023146975 5.6350207e-08 0)
(0.0022427588 5.1202641e-08 0)
(0.0021763991 4.6742811e-08 0)
(0.0021149025 4.2849916e-08 0)
(0.0020576667 3.9429838e-08 0)
(0.0020041928 3.6405201e-08 0)
(0.0019540578 3.3715471e-08 0)
(0.0019069025 3.1310773e-08 0)
(0.0018624195 2.9150139e-08 0)
(0.0018203451 2.7200287e-08 0)
(0.0017804492 2.5434172e-08 0)
(0.0017425303 2.3828636e-08 0)
(0.0017064121 2.2364082e-08 0)
(0.0016719387 2.1023737e-08 0)
(0.001638973 1.9792952e-08 0)
(0.0016073936 1.8659748e-08 0)
(0.0015770913 1.7614096e-08 0)
(0.0015479675 1.6646864e-08 0)
(0.0015199344 1.5750028e-08 0)
(0.0014929124 1.4916785e-08 0)
(0.0014668292 1.4140941e-08 0)
(0.0014416201 1.3416858e-08 0)
(0.0014172262 1.2739991e-08 0)
(0.0013935933 1.210646e-08 0)
(0.0013706712 1.1512496e-08 0)
(0.0013484146 1.0954697e-08 0)
(0.0013267813 1.0430123e-08 0)
(0.0013057327 9.9361695e-09 0)
(0.0012852329 9.4702862e-09 0)
(0.0012652494 9.0301255e-09 0)
(0.0012457521 8.6139454e-09 0)
(0.0012267123 8.2201836e-09 0)
(0.001208103 7.8471491e-09 0)
(0.0011898997 7.4933417e-09 0)
(0.001172079 7.1574469e-09 0)
(0.0011546193 6.8382795e-09 0)
(0.0011375 6.5347422e-09 0)
(0.0011207019 6.245607e-09 0)
(0.0011042079 5.9699451e-09 0)
(0.001088001 5.7071828e-09 0)
(0.0010720644 5.4565154e-09 0)
(0.001056383 5.2171133e-09 0)
(0.0010409424 4.9883344e-09 0)
(0.0010257285 4.769571e-09 0)
(0.0010107284 4.5602677e-09 0)
(0.00099592923 4.3598341e-09 0)
(0.00098131934 4.1676898e-09 0)
(0.00096688768 3.983473e-09 0)
(0.00095262291 3.8068605e-09 0)
(0.00093851414 3.6374095e-09 0)
(0.00092455112 3.4747298e-09 0)
(0.0009107238 3.318486e-09 0)
(0.0008970225 3.1683692e-09 0)
(0.00088343763 3.0240912e-09 0)
(0.00086995991 2.8852857e-09 0)
(0.00085658094 2.7516941e-09 0)
(0.00084329183 2.623183e-09 0)
(0.00083008346 2.4995102e-09 0)
(0.00081694727 2.3804278e-09 0)
(0.00080387463 2.2657418e-09 0)
(0.00079085701 2.1552725e-09 0)
(0.00077788571 2.0488508e-09 0)
(0.00076495208 1.9462612e-09 0)
(0.00075204794 1.8473514e-09 0)
(0.00073916447 1.7520368e-09 0)
(0.00072629242 1.660175e-09 0)
(0.00071342264 1.5716191e-09 0)
(0.00070054568 1.4862709e-09 0)
(0.00068765142 1.4040206e-09 0)
(0.00067472961 1.324735e-09 0)
(0.00066176976 1.2485207e-09 0)
(0.00064875617 1.1747801e-09 0)
(0.00063568817 1.1033455e-09 0)
(0.00062284577 1.0365875e-09 0)
(0.00061061229 9.7652911e-10 0)
(0.00059906771 9.2229176e-10 0)
(0.0005881549 8.7243469e-10 0)
(0.00057782431 8.2667371e-10 0)
(0.00056802576 7.8483174e-10 0)
(0.00055871401 7.4652274e-10 0)
(0.00054984826 7.1140827e-10 0)
(0.00054139153 6.7919184e-10 0)
(0.00053331025 6.4960431e-10 0)
(0.00052557397 6.2242121e-10 0)
(0.00051815459 5.9749199e-10 0)
(0.00051102533 5.7471088e-10 0)
(0.00050416067 5.540394e-10 0)
(0.00049753477 5.3544754e-10 0)
(0.00049112283 5.192166e-10 0)
(0.00048489217 5.0527767e-10 0)
(0.00047881968 4.9532902e-10 0)
(0.00047283132 4.8709229e-10 0)
(0.00046695947 4.9341931e-10 0)
(0.00046081723 4.7605869e-10 0)
(0.00045536572 5.4294278e-10 0)
(0.00044758837 3.198769e-10 0)
(1 4.456801e-09 0)
(0.99996434 1.2043728e-08 0)
(0.99991079 1.7183752e-08 0)
(0.9998511 2.2155852e-08 0)
(0.99978223 2.8982777e-08 0)
(0.99970281 3.7709746e-08 0)
(0.99961198 4.8839735e-08 0)
(0.99950818 6.3284476e-08 0)
(0.99938924 8.2179777e-08 0)
(0.99925249 1.0699955e-07 0)
(0.99909457 1.3974902e-07 0)
(0.99891131 1.8331195e-07 0)
(0.99869707 2.4160219e-07 0)
(0.9984448 3.211074e-07 0)
(0.99814331 4.2928341e-07 0)
(0.99778077 5.8593785e-07 0)
(0.99732701 7.9789164e-07 0)
(0.9967719 1.1623092e-06 0)
(0.99598809 1.5881893e-06 0)
(0.99507841 2.7343417e-06 0)
(0.99329486 3.6085039e-06 0)
(0.99168907 8.878013e-06 0)
(0.98543492 3.9828339e-06 0)
(0.98811347 0.0011469028 0)
(0.029311989 0.0011603923 0)
(0.011596846 1.227877e-05 0)
(0.008270856 2.7564646e-06 0)
(0.0067881379 1.3251358e-06 0)
(0.0059378362 8.0920085e-07 0)
(0.0053502105 5.7183359e-07 0)
(0.0049123204 4.3288155e-07 0)
(0.0045665383 3.4371039e-07 0)
(0.004284061 2.8125798e-07 0)
(0.0040473283 2.356075e-07 0)
(0.0038446918 2.0110439e-07 0)
(0.0036683836 1.7415775e-07 0)
(0.0035130068 1.5257258e-07 0)
(0.0033746149 1.3496159e-07 0)
(0.0032502195 1.2037658e-07 0)
(0.0031375202 1.0812592e-07 0)
(0.0030347346 9.7717977e-08 0)
(0.0029404174 8.8791399e-08 0)
(0.0028534149 8.1057478e-08 0)
(0.0027727882 7.4306757e-08 0)
(0.0026977479 6.8375911e-08 0)
(0.0026276397 6.3130827e-08 0)
(0.002561909 5.8466513e-08 0)
(0.0025000849 5.4296479e-08 0)
(0.0024417645 5.0549687e-08 0)
(0.0023866019 4.7168416e-08 0)
(0.0023342954 4.4105766e-08 0)
(0.002284581 4.1321581e-08 0)
(0.0022372274 3.8781874e-08 0)
(0.0021920303 3.645756e-08 0)
(0.0021488099 3.4323237e-08 0)
(0.002107407 3.2358132e-08 0)
(0.0020676784 3.0544853e-08 0)
(0.0020294951 2.8867561e-08 0)
(0.0019927416 2.7312345e-08 0)
(0.0019573138 2.5867406e-08 0)
(0.0019231169 2.4522005e-08 0)
(0.0018900658 2.3266363e-08 0)
(0.0018580837 2.2092599e-08 0)
(0.0018270992 2.0993984e-08 0)
(0.0017970467 1.9963982e-08 0)
(0.0017678666 1.8996695e-08 0)
(0.0017395038 1.8087025e-08 0)
(0.0017119076 1.7230453e-08 0)
(0.0016850309 1.6422559e-08 0)
(0.001658831 1.565927e-08 0)
(0.0016332686 1.4937567e-08 0)
(0.001608306 1.4254739e-08 0)
(0.0015839079 1.3607855e-08 0)
(0.0015600419 1.2994313e-08 0)
(0.0015366777 1.2411833e-08 0)
(0.0015137868 1.185836e-08 0)
(0.0014913421 1.1331992e-08 0)
(0.0014693186 1.0830599e-08 0)
(0.0014476937 1.035257e-08 0)
(0.0014264452 9.8969104e-09 0)
(0.0014055512 9.4622245e-09 0)
(0.0013849917 9.0470742e-09 0)
(0.0013647478 8.6503454e-09 0)
(0.0013448014 8.2709847e-09 0)
(0.0013251351 7.9080289e-09 0)
(0.0013057323 7.5604542e-09 0)
(0.0012865776 7.2272541e-09 0)
(0.0012676566 6.9078012e-09 0)
(0.0012489545 6.6015349e-09 0)
(0.0012304568 6.3076875e-09 0)
(0.0012121502 6.0255824e-09 0)
(0.0011940216 5.7546377e-09 0)
(0.0011760581 5.4943179e-09 0)
(0.0011582473 5.2441234e-09 0)
(0.001140577 5.0034187e-09 0)
(0.0011230362 4.7717556e-09 0)
(0.0011056132 4.5489026e-09 0)
(0.001088296 4.3344398e-09 0)
(0.0010710735 4.1279372e-09 0)
(0.0010539342 3.9290586e-09 0)
(0.0010368671 3.7374921e-09 0)
(0.0010198608 3.5529446e-09 0)
(0.0010029038 3.3750424e-09 0)
(0.00098598551 3.2035215e-09 0)
(0.00096909429 3.038235e-09 0)
(0.00095221805 2.8789359e-09 0)
(0.00093534479 2.7253699e-09 0)
(0.00091846211 2.5773662e-09 0)
(0.00090155675 2.4347346e-09 0)
(0.00088461528 2.2972443e-09 0)
(0.00086762391 2.1650797e-09 0)
(0.00085056211 2.0372049e-09 0)
(0.00083342895 1.9133301e-09 0)
(0.00081659157 1.7975645e-09 0)
(0.00080055251 1.6934156e-09 0)
(0.00078541667 1.599361e-09 0)
(0.00077110914 1.512903e-09 0)
(0.00075756495 1.4335482e-09 0)
(0.00074471829 1.3609894e-09 0)
(0.00073250986 1.2945571e-09 0)
(0.00072088619 1.2336644e-09 0)
(0.00070979876 1.1777973e-09 0)
(0.00069920358 1.1264889e-09 0)
(0.00068906072 1.07935e-09 0)
(0.00067933334 1.0361195e-09 0)
(0.00066998635 9.9661401e-10 0)
(0.00066098627 9.6076667e-10 0)
(0.00065229922 9.2852545e-10 0)
(0.00064389272 9.0037798e-10 0)
(0.0006357239 8.7620477e-10 0)
(0.00062776247 8.5894996e-10 0)
(0.00061991141 8.4466434e-10 0)
(0.00061221307 8.5562604e-10 0)
(0.00060416058 8.2578583e-10 0)
(0.00059701324 9.4164034e-10 -5.1536993e-24)
(0.00058681654 5.5470209e-10 3.1722862e-25)
(1 5.5894224e-09 0)
(0.9999642 1.5106706e-08 0)
(0.99991042 2.155646e-08 0)
(0.99985046 2.7794313e-08 0)
(0.99978127 3.6358318e-08 0)
(0.99970149 4.7305585e-08 0)
(0.99961026 6.1266832e-08 0)
(0.99950601 7.9385452e-08 0)
(0.99938655 1.0308585e-07 0)
(0.9992492 1.3421637e-07 0)
(0.99909061 1.752915e-07 0)
(0.99890659 2.299273e-07 0)
(0.99869147 3.030312e-07 0)
(0.99843818 4.0273785e-07 0)
(0.9981355 5.3839469e-07 0)
(0.99777156 7.3483687e-07 0)
(0.99731609 1.0006102e-06 0)
(0.99675896 1.457538e-06 0)
(0.9959724 1.9914981e-06 0)
(0.99505963 3.4284241e-06 0)
(0.99327043 4.5243645e-06 0)
(0.99165953 1.1130813e-05 0)
(0.98538637 4.9988839e-06 0)
(0.9880644 0.0014306283 0)
(0.036579677 0.0014507884 0)
(0.014520617 1.9246483e-05 0)
(0.01035645 4.339463e-06 0)
(0.0085000368 2.0862833e-06 0)
(0.0074352466 1.2740766e-06 0)
(0.0066994165 9.0033676e-07 0)
(0.0061510814 6.8155943e-07 0)
(0.0057180925 5.411584e-07 0)
(0.005364375 4.4282869e-07 0)
(0.0050679396 3.7095288e-07 0)
(0.0048142007 3.1662827e-07 0)
(0.0045934307 2.742015e-07 0)
(0.0043988712 2.4021645e-07 0)
(0.0042255801 2.1248872e-07 0)
(0.0040698154 1.895253e-07 0)
(0.0039286966 1.7023726e-07 0)
(0.0037999914 1.5385057e-07 0)
(0.0036818902 1.3979612e-07 6.5629073e-25)
(0.0035729485 1.276195e-07 0)
(0.0034719902 1.1699097e-07 -6.7138404e-35)
(0.0033780271 1.0765321e-07 0)
(0.0032902399 9.9395161e-08 0)
(0.003207934 9.2051501e-08 0)
(0.0031305199 8.5486058e-08 0)
(0.003057493 7.9586984e-08 0)
(0.0029884202 7.4263402e-08 0)
(0.0029229238 6.9441469e-08 0)
(0.002860673 6.5057959e-08 0)
(0.0028013784 6.1059364e-08 0)
(0.0027447842 5.7399891e-08 0)
(0.002690665 5.4039549e-08 0)
(0.0026388217 5.0945629e-08 0)
(0.0025890749 4.8090747e-08 0)
(0.0025412629 4.5449967e-08 0)
(0.0024952415 4.3001388e-08 0)
(0.0024508799 4.0726433e-08 0)
(0.0024080596 3.8608193e-08 0)
(0.0023666742 3.6631274e-08 0)
(0.0023266272 3.4783266e-08 0)
(0.0022878294 3.3053573e-08 0)
(0.0022501987 3.1431908e-08 0)
(0.0022136603 2.9908982e-08 0)
(0.0021781453 2.847677e-08 0)
(0.0021435902 2.7128157e-08 0)
(0.002109936 2.5856184e-08 0)
(0.0020771294 2.4654441e-08 0)
(0.002045121 2.351817e-08 0)
(0.0020138636 2.2443106e-08 0)
(0.001983313 2.1424632e-08 0)
(0.0019534289 2.0458652e-08 0)
(0.0019241729 1.9541579e-08 0)
(0.0018955096 1.8670175e-08 0)
(0.0018674051 1.7841444e-08 0)
(0.0018398279 1.7052036e-08 0)
(0.00181275 1.6299414e-08 0)
(0.0017861432 1.5582009e-08 0)
(0.0017599804 1.4897626e-08 0)
(0.0017342364 1.4244001e-08 0)
(0.0017088877 1.3619379e-08 0)
(0.0016839114 1.3022102e-08 0)
(0.0016592858 1.2450653e-08 0)
(0.0016349902 1.1903421e-08 0)
(0.0016110053 1.137882e-08 0)
(0.001587313 1.0875864e-08 0)
(0.0015638947 1.0393669e-08 0)
(0.0015407325 9.9310266e-09 0)
(0.0015178096 9.4868715e-09 0)
(0.0014951094 9.0602877e-09 0)
(0.0014726161 8.6504321e-09 0)
(0.001450314 8.256518e-09 0)
(0.0014281877 7.8775451e-09 0)
(0.0014062236 7.5128076e-09 0)
(0.001384407 7.1619408e-09 0)
(0.001362723 6.8242838e-09 0)
(0.0013411574 6.4991596e-09 0)
(0.0013196961 6.1860387e-09 0)
(0.0012983252 5.8844304e-09 0)
(0.0012770304 5.5938729e-09 0)
(0.0012557973 5.313778e-09 0)
(0.0012346127 5.0437301e-09 0)
(0.001213462 4.7834977e-09 0)
(0.0011923301 4.5326922e-09 0)
(0.0011712019 4.2909128e-09 0)
(0.0011500618 4.057891e-09 0)
(0.0011288934 3.8333271e-09 0)
(0.0011076798 3.616858e-09 0)
(0.0010864037 3.4087735e-09 0)
(0.0010650394 3.2074433e-09 0)
(0.0010435857 3.0124123e-09 0)
(0.0010225024 2.8301481e-09 0)
(0.0010024187 2.6661715e-09 0)
(0.000983466 2.5180877e-09 0)
(0.0009655505 2.381965e-09 0)
(0.00094859083 2.2570266e-09 0)
(0.00093250459 2.1427876e-09 0)
(0.00091721753 2.0381943e-09 0)
(0.00090266268 1.9423229e-09 0)
(0.0008887793 1.8543636e-09 0)
(0.0008755123 1.7735817e-09 0)
(0.00086281169 1.6993643e-09 0)
(0.00085063134 1.6313003e-09 0)
(0.0008389273 1.5691008e-09 0)
(0.00082765765 1.5126606e-09 0)
(0.00081678001 1.4618977e-09 0)
(0.00080625365 1.4175795e-09 0)
(0.00079602495 1.379518e-09 0)
(0.00078605596 1.3523468e-09 0)
(0.00077622525 1.329852e-09 0)
(0.00076658575 1.3470919e-09 0)
(0.00075650327 1.3000884e-09 0)
(0.00074755359 1.4826618e-09 0)
(0.00073478557 8.7314923e-10 -1.8105572e-25)
(1 6.8108921e-09 0)
(0.99996404 1.8411292e-08 0)
(0.99990998 2.6275573e-08 0)
(0.9998497 3.3879762e-08 0)
(0.99978014 4.4318371e-08 0)
(0.99969994 5.7661582e-08 0)
(0.99960822 7.4677818e-08 0)
(0.99950343 9.6760289e-08 0)
(0.99938335 1.2564462e-07 0)
(0.9992453 1.6358284e-07 0)
(0.99908592 2.136385e-07 0)
(0.99890098 2.8021705e-07 0)
(0.99868483 3.6929688e-07 0)
(0.99843033 4.9078774e-07 0)
(0.99812623 6.5607528e-07 0)
(0.99776065 8.9541292e-07 0)
(0.99730316 1.2192017e-06 0)
(0.99674363 1.7758387e-06 0)
(0.99595381 2.4262702e-06 0)
(0.99503739 4.1764877e-06 0)
(0.9932415 5.5113879e-06 0)
(0.99162456 1.3558344e-05 0)
(0.98532899 6.096802e-06 0)
(0.98800645 0.001732938 0)
(0.044330746 0.0017616866 0)
(0.017660464 2.8428657e-05 0)
(0.012596338 6.4337997e-06 0)
(0.010338669 3.0934031e-06 0)
(0.0090434897 1.8892424e-06 0)
(0.0081484787 1.3350352e-06 0)
(0.0074815166 1.010627e-06 0)
(0.0069548631 8.0243243e-07 0)
(0.0065246306 6.5662723e-07 0)
(0.0061640723 5.5004801e-07 0)
(0.005855448 4.6949393e-07 0)
(0.0055869253 4.0658275e-07 0)
(0.0053502832 3.5618947e-07 0)
(0.0051395102 3.1507475e-07 0)
(0.0049500548 2.8102465e-07 0)
(0.0047784133 2.5242447e-07 0)
(0.0046218706 2.2812652e-07 0)
(0.0044782253 2.0728666e-07 0)
(0.0043457211 1.8923132e-07 0)
(0.0042229268 1.7347161e-07 7.2422419e-35)
(0.0041086408 1.5962571e-07 0)
(0.0040018664 1.4738084e-07 0)
(0.0039017589 1.3649181e-07 0)
(0.0038076013 1.267567e-07 0)
(0.0037187797 1.1800969e-07 0)
(0.0036347675 1.10116e-07 0)
(0.0035551051 1.0296615e-07 0)
(0.0034793904 9.6466383e-08 0)
(0.0034072713 9.0537359e-08 0)
(0.0033384365 8.5111179e-08 0)
(0.0032726121 8.0128545e-08 0)
(0.0032095559 7.5540957e-08 0)
(0.0031490495 7.1307808e-08 0)
(0.0030908966 6.7392124e-08 0)
(0.0030349213 6.3761432e-08 0)
(0.002980965 6.0388183e-08 0)
(0.0029288833 5.7247309e-08 0)
(0.0028785468 5.4315983e-08 0)
(0.0028298382 5.1575804e-08 0)
(0.002782649 4.9011058e-08 0)
(0.0027368793 4.6606493e-08 0)
(0.002692438 4.4348337e-08 0)
(0.0026492417 4.2224689e-08 0)
(0.0026072128 4.0224999e-08 0)
(0.0025662796 3.8338948e-08 0)
(0.0025263774 3.6557034e-08 0)
(0.002487446 3.48722e-08 0)
(0.0024494279 3.3278121e-08 0)
(0.0024122697 3.1767952e-08 0)
(0.002375922 3.0335622e-08 0)
(0.0023403383 2.8975807e-08 0)
(0.0023054755 2.7683711e-08 0)
(0.0022712923 2.6454889e-08 0)
(0.0022377506 2.5284374e-08 0)
(0.0022048159 2.4168404e-08 0)
(0.0021724545 2.3104654e-08 0)
(0.0021406329 2.2089868e-08 0)
(0.0021093208 2.1120688e-08 0)
(0.0020784894 2.0194513e-08 0)
(0.002048111 1.9308885e-08 0)
(0.0020181593 1.8461554e-08 0)
(0.0019886088 1.7650131e-08 0)
(0.0019594362 1.6872266e-08 0)
(0.0019306195 1.6126494e-08 0)
(0.0019021361 1.5411507e-08 0)
(0.0018739641 1.4725511e-08 0)
(0.0018460832 1.4066928e-08 0)
(0.0018184732 1.34344e-08 0)
(0.0017911149 1.2826675e-08 0)
(0.001763989 1.2242588e-08 0)
(0.0017370771 1.1680656e-08 0)
(0.0017103624 1.1139832e-08 0)
(0.0016838271 1.0619574e-08 0)
(0.001657453 1.0118904e-08 0)
(0.001631223 9.6368173e-09 0)
(0.0016051199 9.1725286e-09 0)
(0.0015791266 8.7253105e-09 0)
(0.0015532259 8.2944783e-09 0)
(0.0015274003 7.8791598e-09 0)
(0.0015016337 7.4787388e-09 0)
(0.0014759083 7.0928719e-09 0)
(0.0014502057 6.7209829e-09 0)
(0.0014245076 6.3624776e-09 0)
(0.0013987952 6.016958e-09 0)
(0.0013730482 5.6839794e-09 0)
(0.0013472463 5.3630036e-09 0)
(0.0013213683 5.0544601e-09 0)
(0.0012953831 4.7559322e-09 0)
(0.0012692891 4.4667467e-09 0)
(0.0012436456 4.1964907e-09 0)
(0.001219218 3.9533479e-09 0)
(0.0011961659 3.7337706e-09 0)
(0.0011743755 3.5319306e-09 0)
(0.0011537475 3.3466747e-09 0)
(0.001134182 3.1772834e-09 0)
(0.0011155884 3.0221948e-09 0)