/*--------------------------------*- C++ -*----------------------------------*\
| =========                 |                                                 |
| \\      /  F ield         | OpenFOAM: The Open Source CFD Toolbox           |
|  \\    /   O peration     | Version:  2206                                  |
|   \\  /    A nd           | Website:  www.openfoam.com                      |
|    \\/     M anipulation  |                                                 |
\*---------------------------------------------------------------------------*/
FoamFile
{
    version     2.0;
    format      ascii;
    arch        "LSB;label=32;scalar=64";
    class       volScalarField;
    location    "400";
    object      epsilon;
}
// * * * * * * * * * * * * * * * * * * * * * * * * * * * * * * * * * * * * * //

dimensions      [0 2 -3 0 0 0 0];

internalField   nonuniform List<scalar> 
7480
(
5.7707748
15.515655
18.078874
15.973125
12.845951
10.342826
8.6543583
7.5012375
6.6547243
5.9907897
5.4522673
5.0109228
4.647998
4.3483924
4.099763
3.8918339
3.7170285
3.5696001
3.4440949
3.3370911
3.2441915
3.1625572
3.0898308
3.024214
2.9644954
2.9096658
2.8590408
2.8119395
2.7677601
2.726014
2.6864211
2.64878
2.6128805
2.5785479
2.545582
2.5139098
2.483244
2.4535471
2.4247452
2.3967354
2.369442
2.3428005
2.3167611
2.2912926
2.2663516
2.2419149
2.2179467
2.1944071
2.171274
2.1485255
2.1261434
2.1041165
2.0824304
2.0610762
2.0400404
2.019313
1.9988857
1.9787456
1.9588813
1.939285
1.9199542
1.9008853
1.8820719
1.8635085
1.8451909
1.8271148
1.8092735
1.7916619
1.7742774
1.7571175
1.740179
1.7234583
1.7069513
1.6906532
1.6745564
1.6586528
1.642935
1.6273968
1.6120325
1.5968366
1.5818019
1.5669189
1.5521731
1.5375436
1.5230018
1.5085071
1.4940069
1.4794305
1.4646922
1.4496776
1.4342653
1.418273
1.4015802
1.3838482
1.3651428
1.3445711
1.3230679
1.2975028
1.2743286
1.2310233
0.34540093
1.5974026
2.8389066
3.296268
3.1710276
2.8620297
2.5602317
2.3150745
2.1158894
1.9455571
1.7970771
1.6687211
1.5591379
1.466163
1.3873329
1.319942
1.2622029
1.212753
1.1702657
1.1334437
1.101186
1.0725769
1.0468806
1.0235611
1.0022556
0.9826494
0.96452827
0.94764941
0.93180712
0.91684217
0.90265971
0.88918914
0.87635788
0.86410221
0.85234594
0.84106992
0.83016197
0.81961512
0.80940548
0.79949435
0.78985155
0.78045527
0.77128773
0.76233534
0.75358261
0.74502054
0.73663495
0.72841194
0.72034205
0.71241768
0.7046324
0.69698083
0.68945776
0.68205894
0.67477937
0.6676153
0.66056301
0.65361775
0.64677495
0.64003179
0.63338691
0.62683872
0.62038455
0.61402221
0.60774998
0.60156602
0.59546776
0.58945326
0.58352139
0.57767108
0.57190106
0.56620986
0.56059595
0.55505747
0.5495917
0.54419573
0.53886694
0.53360312
0.52840227
0.52326247
0.51818129
0.51315545
0.50818012
0.5032483
0.49835026
0.49347246
0.48859712
0.48370072
0.47875406
0.4737195
0.46855477
0.46320267
0.45761491
0.45169848
0.44543837
0.43862886
0.43143333
0.42314669
0.41536117
0.40117497
0.010337162
0.063085078
0.16307215
0.28096676
0.38441336
0.47549948
0.55912898
0.63059474
0.68615895
0.72726732
0.75556279
0.77180811
0.77734775
0.77443772
0.76566914
0.75343208
0.73938957
0.72452923
0.70944146
0.69444424
0.67974567
0.66547484
0.65168535
0.6384295
0.62574598
0.61361986
0.60210192
0.59111895
0.5806211
0.57056758
0.56094424
0.55173142
0.54290244
0.53443103
0.52627803
0.51844283
0.51085905
0.5035331
0.4964505
0.48958831
0.48292846
0.47645792
0.47016561
0.46404149
0.45807486
0.45225897
0.44658327
0.44103855
0.43561764
0.43031469
0.42512472
0.4200427
0.41506414
0.41018491
0.40540075
0.40070829
0.39610393
0.39158378
0.38714416
0.38278256
0.37849713
0.37428582
0.37014621
0.36607612
0.36207376
0.35813727
0.35426446
0.35045357
0.34670333
0.34301248
0.33937972
0.33580366
0.33228291
0.32881589
0.32540058
0.32203486
0.31871682
0.31544478
0.31221721
0.30903258
0.30588914
0.30278463
0.29971594
0.29667871
0.293667
0.29067272
0.28768525
0.28469071
0.28167171
0.27860632
0.27546883
0.27222701
0.26884868
0.26528704
0.26151664
0.25745414
0.25313178
0.24827698
0.24359458
0.23518501
0.00038952879
0.0025147822
0.0089580264
0.018932756
0.031677874
0.046812318
0.066488613
0.090818772
0.12632616
0.17005543
0.21710903
0.26281049
0.30580477
0.34508703
0.37941262
0.40768301
0.42943147
0.44494397
0.45507697
0.46087682
0.46331792
0.46319083
0.46111226
0.45756955
0.4529658
0.44760425
0.44174701
0.43557593
0.42921669
0.42276881
0.4163082
0.40989217
0.40356042
0.39734231
0.39124588
0.38529937
0.379462
0.37377316
0.3682263
0.36281896
0.35754799
0.35241052
0.34740357
0.3425237
0.33776611
0.3331281
0.32860341
0.32418717
0.31987514
0.31566361
0.31154924
0.30752839
0.30359774
0.29975401
0.29599373
0.29231404
0.28871185
0.28518399
0.28172745
0.27833995
0.27501957
0.27176428
0.26857184
0.26544019
0.26236756
0.25935212
0.25639187
0.25348517
0.25063067
0.24782704
0.24507297
0.24236709
0.23970804
0.23709434
0.23452424
0.23199595
0.22950784
0.22705845
0.2246464
0.22227033
0.21992873
0.21761975
0.21534093
0.21308903
0.21085966
0.20864702
0.20644351
0.20423935
0.20202219
0.19977669
0.19748441
0.19512332
0.19266899
0.19009225
0.18736735
0.18445408
0.18134602
0.17792045
0.17456935
0.1686003
5.055622e-05
0.00015271862
0.00053217566
0.0014006971
0.0028616191
0.0048259643
0.0073069052
0.010491613
0.015006976
0.021731405
0.03132237
0.046216765
0.066490418
0.090955712
0.1182627
0.14724932
0.17702127
0.20640515
0.23397185
0.25838191
0.27878307
0.29495824
0.3071974
0.31603746
0.32205474
0.32575681
0.32758946
0.32793696
0.3271238
0.32541194
0.32300932
0.32008396
0.31676993
0.31317346
0.30937471
0.30545124
0.30142837
0.29735839
0.29327381
0.28919654
0.28514386
0.28113034
0.27716716
0.27326266
0.26942226
0.26565189
0.26195231
0.25832436
0.25476846
0.25128496
0.247874
0.24453493
0.24126686
0.23806859
0.23493856
0.23187534
0.22887716
0.22594209
0.22306808
0.22025361
0.2174973
0.21479767
0.212153
0.20956169
0.20702226
0.20453316
0.20209278
0.1996997
0.19735274
0.19505069
0.19279237
0.19057656
0.18840201
0.18626739
0.18417119
0.1821119
0.18008809
0.17809848
0.17614189
0.17421709
0.17232278
0.17045735
0.1686188
0.16680448
0.16501092
0.16323357
0.16146655
0.15970233
0.15793138
0.15614201
0.15431989
0.15244852
0.15050816
0.14847873
0.14633622
0.14406104
0.14163277
0.13899778
0.1364099
0.13180546
2.9325181e-05
3.9582165e-05
7.1883908e-05
0.00014658688
0.00029160513
0.00053289185
0.00089400291
0.0013956043
0.0020707041
0.0029932611
0.0042610464
0.0061373257
0.0089427253
0.013002423
0.019175003
0.028490254
0.040992735
0.056700812
0.07512538
0.095725222
0.11776983
0.14021112
0.16178467
0.18134643
0.19816899
0.21201968
0.22303932
0.2315461
0.23789403
0.24241454
0.24540835
0.24714589
0.24786145
0.24775149
0.24697704
0.24568078
0.24396169
0.24191214
0.23960826
0.23710986
0.2344651
0.23171348
0.22888735
0.22601327
0.22311191
0.2202015
0.21729521
0.21440338
0.21153431
0.20869476
0.20589018
0.20312455
0.20040106
0.19772204
0.19508902
0.1925033
0.18996518
0.18747463
0.18503131
0.18263501
0.18028545
0.17798213
0.17572426
0.17351102
0.1713416
0.16921508
0.16713039
0.16508659
0.16308285
0.16111828
0.15919199
0.157303
0.15545035
0.15363296
0.15184957
0.15009894
0.14837991
0.1466914
0.14503243
0.14340197
0.14179893
0.14022195
0.13866934
0.13713893
0.13562785
0.13413241
0.13264786
0.13116813
0.12968555
0.12819078
0.12667218
0.12511673
0.12350802
0.12183132
0.12006495
0.11820033
0.11621255
0.11408282
0.11199827
0.10827347
2.6695878e-05
2.8892934e-05
3.4018195e-05
4.4690316e-05
6.4285212e-05
9.6802431e-05
0.00014727881
0.00022208048
0.00032912517
0.0004799975
0.00068921652
0.00098207007
0.001398143
0.0019870389
0.0028391975
0.0041214642
0.006029612
0.0087911567
0.013111084
0.019607951
0.028548845
0.040132526
0.054046801
0.069937506
0.087153821
0.10475864
0.1217013
0.13711006
0.15048604
0.16170105
0.17086273
0.17817436
0.18385858
0.18813512
0.19121269
0.19328732
0.19452268
0.19506104
0.19502586
0.19452112
0.19363363
0.19243592
0.19098864
0.18934276
0.18754014
0.18561643
0.1836008
0.18151698
0.17938456
0.17721981
0.17503617
0.17284468
0.17065438
0.16847266
0.16630551
0.16415785
0.16203351
0.15993539
0.15786567
0.15582613
0.15381819
0.1518429
0.14990083
0.14799236
0.14611778
0.14427707
0.14246994
0.14069617
0.13895548
0.13724756
0.13557197
0.13392818
0.13231556
0.13073338
0.12918076
0.12765677
0.12616054
0.12469128
0.12324824
0.12183067
0.12043768
0.1190682
0.11772085
0.11639383
0.11508478
0.11379067
0.11250757
0.11123051
0.10995317
0.10866788
0.10736499
0.10603391
0.10466078
0.10323436
0.10173542
0.10016154
0.098487417
0.09671204
0.094988572
0.091884019
2.5891343e-05
2.6886439e-05
2.8362446e-05
3.0814152e-05
3.4946293e-05
4.1526728e-05
5.1416141e-05
6.5672489e-05
8.5645506e-05
0.00011325423
0.00015113133
0.00020317815
0.00027532751
0.00037599664
0.00051737213
0.00071991095
0.0010140447
0.0014368046
0.0020650417
0.003023663
0.0044793494
0.0066266189
0.010113522
0.015340297
0.022612819
0.032052404
0.043454483
0.056452431
0.070407218
0.084473434
0.097826629
0.10988039
0.12036017
0.12923226
0.13658638
0.14256034
0.14730489
0.15097436
0.15371844
0.15567355
0.15696041
0.15768457
0.15793734
0.1577974
0.15733161
0.1565972
0.15564279
0.1545092
0.15323076
0.15183636
0.15035025
0.14879286
0.14718129
0.14552987
0.14385066
0.14215369
0.14044738
0.13873863
0.13703309
0.13533542
0.1336495
0.13197856
0.13032511
0.12869119
0.12707846
0.12548824
0.12392146
0.12237881
0.12086086
0.11936804
0.11790059
0.11645857
0.11504188
0.11365026
0.11228327
0.1109404
0.10962115
0.10832506
0.10705171
0.10580063
0.10457123
0.10336274
0.1021741
0.10100388
0.099850175
0.098710509
0.097581642
0.09645947
0.095338743
0.094213106
0.09307448
0.091914115
0.09072024
0.089484058
0.088188691
0.086835202
0.085399715
0.08388976
0.082440313
0.079800712
2.5275013e-05
2.6002554e-05
2.678031e-05
2.7682767e-05
2.8914234e-05
3.0722082e-05
3.3375465e-05
3.7145863e-05
4.2318491e-05
4.9242792e-05
5.837879e-05
7.037236e-05
8.6156632e-05
0.00010711723
0.00013522154
0.00017348283
0.00022661686
0.0003010588
0.00040709351
0.00056161093
0.00079132859
0.0011291414
0.0016506647
0.0024689362
0.0037308265
0.0057122903
0.0089107487
0.013645215
0.020187119
0.028488617
0.038365086
0.049388236
0.06090723
0.072206496
0.082709916
0.092088864
0.10023273
0.10715816
0.11293902
0.11767501
0.12147863
0.12446416
0.12673938
0.12840292
0.12954315
0.13023829
0.13055687
0.13055829
0.13029364
0.12980677
0.12913509
0.1283106
0.12736055
0.12630809
0.12517299
0.12397196
0.12271925
0.12142692
0.12010513
0.11876242
0.11740597
0.11604187
0.11467523
0.11331028
0.11195058
0.11059917
0.1092585
0.1079306
0.10661714
0.10531953
0.10403893
0.10277618
0.10153188
0.10030639
0.09909985
0.097912264
0.09674359
0.09559379
0.094462822
0.093350582
0.09225684
0.091181163
0.090122849
0.089080854
0.088053712
0.087039448
0.086035443
0.085038336
0.084043788
0.083046533
0.082039804
0.081016341
0.079966151
0.078882258
0.077749984
0.076572284
0.075327456
0.07402633
0.072793387
0.07051806
2.4691298e-05
2.5280541e-05
2.5873214e-05
2.6425258e-05
2.6976716e-05
2.7630424e-05
2.8503673e-05
2.9716864e-05
3.1380915e-05
3.3602378e-05
3.6498634e-05
4.0210351e-05
4.4920944e-05
5.0887467e-05
5.8467243e-05
6.8172709e-05
8.0776542e-05
9.7377711e-05
0.0001196085
0.00014998386
0.00019260483
0.00025309624
0.00034126177
0.00047372598
0.00067521582
0.00098582138
0.0014832217
0.0022829317
0.0035261052
0.0056125404
0.008869904
0.013575748
0.01981859
0.027499952
0.036325629
0.045789957
0.05528982
0.064305475
0.072511267
0.079767453
0.086050622
0.091394993
0.095864528
0.099539912
0.10250754
0.10485199
0.10665295
0.10798345
0.10890903
0.10948781
0.10977071
0.10980224
0.109621
0.10926036
0.10874913
0.10811206
0.10737047
0.10654269
0.10564442
0.10468904
0.10368796
0.10265093
0.10158629
0.10050109
0.099401371
0.098292314
0.09717832
0.096063086
0.094949759
0.093841027
0.092739168
0.091646063
0.090563207
0.089491754
0.088432564
0.087386281
0.086353434
0.085334497
0.084329898
0.083339974
0.082364914
0.08140469
0.080459
0.079527219
0.078608324
0.07770084
0.076802724
0.075911292
0.075023016
0.07413358
0.073237366
0.072328376
0.071398181
0.070441229
0.069444865
0.068412969
0.067326234
0.066195778
0.065139225
0.063158989
2.4138367e-05
2.4617007e-05
2.5102771e-05
2.5544816e-05
2.5935492e-05
2.6300192e-05
2.668559e-05
2.7149032e-05
2.7751274e-05
2.8551237e-05
2.9602197e-05
3.0957073e-05
3.2673021e-05
3.4818287e-05
3.74795e-05
4.0773121e-05
4.4854788e-05
4.9937962e-05
5.6333089e-05
6.448762e-05
7.5091855e-05
8.9131111e-05
0.00010811594
0.000134521
0.000172238
0.0002273167
0.00031038821
0.00043991401
0.00064116456
0.00096881962
0.0015114872
0.0023843784
0.0038514738
0.006238843
0.0098104825
0.014701075
0.020865832
0.028089648
0.035962422
0.043974679
0.051676402
0.058775559
0.065133692
0.070710258
0.075516681
0.079594146
0.083001345
0.085804133
0.088068983
0.089859884
0.091236372
0.092252716
0.092957622
0.09339429
0.093600823
0.093610553
0.093452621
0.093152434
0.092732053
0.09221055
0.091604355
0.09092765
0.090192679
0.08940998
0.08858862
0.087736434
0.086860193
0.085965684
0.085057875
0.084141057
0.083218925
0.082294622
0.081370774
0.080449525
0.079532627
0.078621509
0.077717399
0.076821394
0.07593449
0.07505755
0.074191258
0.073336059
0.072492114
0.071659253
0.070836929
0.070024175
0.069219511
0.068420895
0.067625551
0.066830024
0.066029732
0.065219789
0.064393172
0.063545498
0.062665949
0.061758733
0.060806921
0.059820209
0.058910939
0.057176174
2.3610361e-05
2.4001279e-05
2.4401832e-05
2.4772376e-05
2.5099382e-05
2.5386084e-05
2.5647537e-05
2.5906611e-05
2.6190623e-05
2.6529591e-05
2.6954192e-05
2.7494621e-05
2.8180286e-05
2.9040435e-05
3.0106056e-05
3.141099e-05
3.3003392e-05
3.4947376e-05
3.7320663e-05
4.0227904e-05
4.3819186e-05
4.8308408e-05
5.3971812e-05
6.125101e-05
7.0824252e-05
8.3712143e-05
0.00010153382
0.00012708752
0.00016450168
0.00022119225
0.00031069816
0.00045324905
0.00068815855
0.0010865157
0.0017462042
0.0028692667
0.0047478742
0.0076253441
0.011638247
0.01676795
0.022838019
0.029495743
0.036305865
0.042889599
0.04900171
0.054520725
0.059403359
0.06365044
0.067289926
0.07036571
0.072928656
0.075031437
0.07672557
0.078059576
0.079078169
0.079821827
0.080326873
0.080625639
0.080746717
0.080715234
0.080553148
0.080279633
0.079911414
0.079463048
0.078947171
0.078374772
0.07775542
0.077097397
0.076407875
0.075693082
0.074958432
0.074208601
0.073447583
0.072678737
0.07190489
0.071128428
0.070351421
0.069575717
0.068802987
0.068034718
0.067272177
0.06651636
0.065767953
0.065027302
0.064294373
0.063568731
0.062849467
0.062135168
0.061423773
0.060712633
0.059998122
0.059276366
0.058541618
0.057790498
0.057013856
0.056215872
0.055381848
0.054519175
0.053735439
0.052209421
2.3100267e-05
2.3422705e-05
2.3755161e-05
2.4067766e-05
2.43485e-05
2.4596153e-05
2.4816129e-05
2.5017545e-05
2.5211281e-05
2.5409901e-05
2.5627928e-05
2.5881515e-05
2.6187783e-05
2.6564131e-05
2.702817e-05
2.7597418e-05
2.829117e-05
2.9132432e-05
3.014792e-05
3.1369464e-05
3.2837357e-05
3.4602253e-05
3.6757156e-05
3.9408995e-05
4.2708505e-05
4.6876869e-05
5.2222826e-05
5.9233217e-05
6.8651857e-05
8.1658641e-05
0.00010031775
0.00012786791
0.00016990774
0.00023702994
0.00034603145
0.0005285623
0.00084524739
0.0013821747
0.0023165109
0.0039041975
0.0063659944
0.0098164222
0.014242031
0.019477457
0.025201776
0.031040569
0.036683974
0.041937163
0.046701878
0.050939776
0.054648667
0.057849462
0.060576211
0.062869044
0.064770166
0.066321254
0.067562003
0.068529312
0.069256906
0.06977523
0.070111487
0.070289864
0.070331758
0.07025604
0.070079273
0.069815982
0.069478905
0.069079182
0.068626536
0.068129467
0.067595408
0.067030843
0.066441382
0.065831831
0.065206299
0.064568307
0.063920931
0.063266905
0.062608702
0.061948539
0.061288361
0.060629799
0.059974143
0.059322316
0.05867485
0.058031878
0.057393082
0.056757679
0.056124308
0.055491088
0.054855295
0.05421399
0.053562608
0.052898653
0.052214492
0.051514081
0.050784774
0.050031287
0.049356471
0.048011397
2.2603166e-05
2.2871906e-05
2.3150328e-05
2.3415843e-05
2.3658285e-05
2.3875366e-05
2.406961e-05
2.4245755e-05
2.4408868e-05
2.4564117e-05
2.4717377e-05
2.4875669e-05
2.5047258e-05
2.5241445e-05
2.5468399e-05
2.5738868e-05
2.6064009e-05
2.6455747e-05
2.6927121e-05
2.7492498e-05
2.8168296e-05
2.8972543e-05
2.9932108e-05
3.1080774e-05
3.2461381e-05
3.4128421e-05
3.6168336e-05
3.8712932e-05
4.1933515e-05
4.6080928e-05
5.1538303e-05
5.8888858e-05
6.9069944e-05
8.3736458e-05
0.00010557809
0.00013920816
0.00019362881
0.00028350674
0.00043717572
0.00070989831
0.0011805093
0.0020223662
0.0034589921
0.0056878654
0.0087855825
0.012729381
0.017345159
0.022333455
0.027375742
0.032227283
0.036740483
0.04084042
0.044497129
0.047709484
0.050494742
0.05288041
0.054899069
0.056585122
0.057972711
0.059094505
0.059980998
0.060660205
0.061157548
0.061495903
0.061695691
0.061775056
0.061750084
0.06163499
0.061442305
0.061183066
0.06086699
0.060502618
0.060097417
0.059657862
0.059189553
0.058697337
0.058185461
0.057657699
0.057117455
0.056567793
0.056011437
0.055450749
0.054887702
0.054323869
0.053760409
0.053198069
0.052637152
0.05207752
0.051518506
0.05095898
0.050397075
0.049830736
0.049256497
0.048672668
0.048073006
0.047461154
0.046826338
0.046170564
0.045591763
0.044406252
2.2115985e-05
2.2342244e-05
2.2577561e-05
2.2804833e-05
2.3015534e-05
2.3206896e-05
2.3380032e-05
2.3537927e-05
2.3683722e-05
2.3820195e-05
2.3950005e-05
2.4076058e-05
2.4201786e-05
2.4331291e-05
2.4469467e-05
2.4622011e-05
2.4795257e-05
2.4996108e-05
2.5232082e-05
2.5511328e-05
2.5842772e-05
2.6235918e-05
2.6701908e-05
2.7254252e-05
2.7909446e-05
2.8686979e-05
2.9612943e-05
3.0724884e-05
3.2072566e-05
3.3718757e-05
3.5767203e-05
3.8376413e-05
4.1755733e-05
4.624354e-05
5.2330409e-05
6.0814197e-05
7.313397e-05
9.1666263e-05
0.00012056461
0.00016814759
0.00024798231
0.00038802598
0.00064212034
0.0010859141
0.0019029675
0.0032877258
0.0053980344
0.0082849073
0.011893338
0.016029091
0.020414552
0.024788639
0.028967183
0.032843004
0.036361616
0.03950234
0.04226688
0.044670693
0.046736933
0.048492658
0.049966314
0.051186149
0.052179227
0.052970888
0.053584455
0.054041148
0.054360127
0.05455859
0.054651902
0.054653739
0.054576258
0.054430232
0.054225172
0.053969412
0.05367023
0.05333398
0.052966244
0.05257199
0.052155685
0.051721359
0.051272625
0.05081267
0.050344242
0.049869638
0.049390714
0.048908881
0.048425105
0.047939916
0.04745335
0.046965015
0.046473872
0.045978711
0.045477098
0.044968091
0.044446734
0.043916345
0.043367865
0.04280077
0.042307838
0.041265268
2.1636942e-05
2.182929e-05
2.2029946e-05
2.2225947e-05
2.2410235e-05
2.2579868e-05
2.2735027e-05
2.2877586e-05
2.3009736e-05
2.3133398e-05
2.3250225e-05
2.3361745e-05
2.3469515e-05
2.3575257e-05
2.3681031e-05
2.3789385e-05
2.3903369e-05
2.4026533e-05
2.4162962e-05
2.4317258e-05
2.4494555e-05
2.4700457e-05
2.494113e-05
2.5223517e-05
2.5555649e-05
2.5946764e-05
2.6407799e-05
2.6952616e-05
2.7599307e-05
2.8369931e-05
2.9295055e-05
3.0419818e-05
3.1804579e-05
3.3526614e-05
3.5736833e-05
3.8627199e-05
4.2499852e-05
4.7818023e-05
5.5303588e-05
6.6312833e-05
8.3079263e-05
0.00010967819
0.00015444965
0.00023069343
0.00036897701
0.00062251365
0.0010834436
0.0019300128
0.0033329591
0.0054046117
0.0081659297
0.011520383
0.015256215
0.019126201
0.02292747
0.026528092
0.029853096
0.032865155
0.035552218
0.037918792
0.039979391
0.041754212
0.043266226
0.044539298
0.045596981
0.046461788
0.047154793
0.047695448
0.048101513
0.048389083
0.048572664
0.048665269
0.048678517
0.048622706
0.048506923
0.048339163
0.048126492
0.047875204
0.047590956
0.047278863
0.046943529
0.046589064
0.046219076
0.045836674
0.045444473
0.045044614
0.044638772
0.044228175
0.043813575
0.04339532
0.042973178
0.042546751
0.04211458
0.041676438
0.041228567
0.040774002
0.040305267
0.039819632
0.039404514
0.038491877
2.1165143e-05
2.1330185e-05
2.1502748e-05
2.1672982e-05
2.1835115e-05
2.1986257e-05
2.2125981e-05
2.2255358e-05
2.2375893e-05
2.2488996e-05
2.25959e-05
2.269768e-05
2.2795298e-05
2.2889654e-05
2.298169e-05
2.307251e-05
2.3163437e-05
2.3256065e-05
2.3352328e-05
2.3454537e-05
2.3565393e-05
2.3687991e-05
2.3825825e-05
2.3982818e-05
2.4163401e-05
2.4372602e-05
2.461615e-05
2.4900713e-05
2.5234407e-05
2.5627013e-05
2.6090624e-05
2.6641256e-05
2.7300587e-05
2.8094396e-05
2.9064644e-05
3.0269011e-05
3.1784033e-05
3.3737146e-05
3.6321358e-05
3.9828749e-05
4.4713838e-05
5.1682405e-05
6.2122089e-05
7.8235882e-05
0.0001045018
0.00014942246
0.00022853976
0.00037662346
0.00064846694
0.0011628926
0.0020840047
0.0035563286
0.0056442014
0.0083258096
0.011461204
0.014837627
0.018250827
0.021552906
0.024652887
0.027500116
0.030071263
0.032361487
0.03437768
0.036133798
0.037647719
0.038939139
0.040028214
0.040934705
0.041677467
0.042274149
0.042741062
0.043093134
0.043343912
0.043505591
0.043589066
0.04360403
0.04355911
0.043462019
0.043319708
0.043138466
0.042923987
0.042681387
0.042415221
0.042129483
0.041827624
0.041512575
0.041186768
0.040852168
0.040510266
0.040162153
0.039808391
0.039449372
0.039084563
0.038714425
0.038336328
0.037953102
0.037558756
0.037148754
0.03680501
0.036012086
2.0700309e-05
2.0843174e-05
2.0992794e-05
2.1141646e-05
2.1285057e-05
2.1420327e-05
2.1546669e-05
2.1664584e-05
2.1775049e-05
2.1879077e-05
2.1977604e-05
2.2071471e-05
2.2161411e-05
2.2248063e-05
2.2332007e-05
2.2413833e-05
2.2494172e-05
2.2573732e-05
2.265337e-05
2.2734127e-05
2.2817273e-05
2.2904326e-05
2.2997078e-05
2.3097621e-05
2.3208362e-05
2.3332071e-05
2.3471923e-05
2.3631547e-05
2.3815173e-05
2.4027778e-05
2.4275258e-05
2.4564779e-05
2.490555e-05
2.5308684e-05
2.5789098e-05
2.6367406e-05
2.7070045e-05
2.7935295e-05
2.9019737e-05
3.0401393e-05
3.2200754e-05
3.4614221e-05
3.7945615e-05
4.2651485e-05
4.9504447e-05
5.9952356e-05
7.6455942e-05
0.0001043052
0.00015267943
0.00024171105
0.00041087436
0.00072832948
0.0013344049
0.0023743694
0.003946258
0.0060750333
0.0086834756
0.011602065
0.014638745
0.017638917
0.020500677
0.023163409
0.025594989
0.027782928
0.029727648
0.031437662
0.0329263
0.034209487
0.035304259
0.036227801
0.036996844
0.037627286
0.038133987
0.038530637
0.038829706
0.039042463
0.039179052
0.039248615
0.03925943
0.039219015
0.03913421
0.039011207
0.038855571
0.038672249
0.038465593
0.038239382
0.037996859
0.037740763
0.037473349
0.037196465
0.036911457
0.036619488
0.036320911
0.036016855
0.035705763
0.035390354
0.035066053
0.034726965
0.034449424
0.033768181
2.0242566e-05
2.0367272e-05
2.0498016e-05
2.0629011e-05
2.07565e-05
2.0878049e-05
2.0992687e-05
2.1100522e-05
2.1202137e-05
2.1298227e-05
2.1389485e-05
2.1476566e-05
2.1560059e-05
2.1640477e-05
2.1718272e-05
2.1793862e-05
2.1867645e-05
2.1940011e-05
2.2011382e-05
2.2082242e-05
2.2153164e-05
2.2224835e-05
2.2298089e-05
2.2373927e-05
2.2453546e-05
2.2538364e-05
2.2630054e-05
2.2730566e-05
2.2842178e-05
2.2967553e-05
2.3109818e-05
2.3272657e-05
2.3460551e-05
2.3678916e-05
2.3934428e-05
2.4235754e-05
2.4593954e-05
2.5023563e-05
2.5544756e-05
2.6184672e-05
2.6981156e-05
2.7991674e-05
2.9298777e-05
3.1025185e-05
3.3381726e-05
3.6692807e-05
4.1450088e-05
4.8574045e-05
5.9644395e-05
7.7760775e-05
0.00010920424
0.00016551689
0.00027381946
0.00047901053
0.00088155713
0.0016179988
0.0028046339
0.0044939291
0.0066568551
0.0091670316
0.011853005
0.014561632
0.017185102
0.019655981
0.021935634
0.0240056
0.025861049
0.027505957
0.028949777
0.030205136
0.03128629
0.032208079
0.032985255
0.033632025
0.034161775
0.034586913
0.034918832
0.035167944
0.03534377
0.035455027
0.035509695
0.03551506
0.035477732
0.035403652
0.035298121
0.035165815
0.035010829
0.034836719
0.03464653
0.034442875
0.034227884
0.034003477
0.033770854
0.0335318
0.033285781
0.033035511
0.032777781
0.032505794
0.0322903
0.031714425
1.9792295e-05
1.9902014e-05
2.0017119e-05
2.0133113e-05
2.024699e-05
2.0356613e-05
2.0460945e-05
2.0559837e-05
2.0653582e-05
2.0742628e-05
2.0827469e-05
2.0908604e-05
2.0986498e-05
2.1061572e-05
2.11342e-05
2.1204723e-05
2.1273451e-05
2.1340669e-05
2.1406646e-05
2.1471663e-05
2.1536013e-05
2.1600026e-05
2.1664083e-05
2.1728635e-05
2.179423e-05
2.1861529e-05
2.1931335e-05
2.2004618e-05
2.2082533e-05
2.2166465e-05
2.2258053e-05
2.2359242e-05
2.2472353e-05
2.2600175e-05
2.2746065e-05
2.2914165e-05
2.3109652e-05
2.3339043e-05
2.3610839e-05
2.3936224e-05
2.4329944e-05
2.4812567e-05
2.5412728e-05
2.6169966e-05
2.7145703e-05
2.8429072e-05
3.0154723e-05
3.2562216e-05
3.6009681e-05
4.1084088e-05
4.8898142e-05
6.1362269e-05
8.2721051e-05
0.00012049456
0.00019220435
0.00033164087
0.00060540118
0.001133403
0.0020358352
0.0033820798
0.0051776218
0.0073343122
0.0097042716
0.012141193
0.014535566
0.016816047
0.018939695
0.020883742
0.022639341
0.02420685
0.025592524
0.026806197
0.027859703
0.028765773
0.029537302
0.030186863
0.030726426
0.031167226
0.031519731
0.031793665
0.031998035
0.032141153
0.032230641
0.032273436
0.032275795
0.03224332
0.032180989
0.032093198
0.031983803
0.0318562
0.031713298
0.031557758
0.031391599
0.031217245
0.031035142
0.030848104
0.030654249
0.03044633
0.030289545
0.029814086
1.9350028e-05
1.9447284e-05
1.9549343e-05
1.9652666e-05
1.9754854e-05
1.9854067e-05
1.994928e-05
2.0040187e-05
2.0126873e-05
2.0209598e-05
2.0288697e-05
2.0364534e-05
2.0437474e-05
2.0507854e-05
2.0575984e-05
2.0642149e-05
2.0706611e-05
2.0769604e-05
2.0831343e-05
2.0892032e-05
2.0951869e-05
2.1011048e-05
2.1069772e-05
2.1128259e-05
2.1186761e-05
2.1245571e-05
2.1305049e-05
2.1365634e-05
2.1427865e-05
2.1492405e-05
2.1560058e-05
2.1631803e-05
2.1708819e-05
2.1792536e-05
2.1884678e-05
2.198734e-05
2.2103097e-05
2.2235129e-05
2.238743e-05
2.2565109e-05
2.2774727e-05
2.302493e-05
2.3327368e-05
2.3697551e-05
2.4157439e-05
2.473802e-05
2.5482574e-05
2.64604e-05
2.7769199e-05
2.9572859e-05
3.214908e-05
3.5916873e-05
4.1649379e-05
5.0678032e-05
6.5804807e-05
9.2510688e-05
0.00014215671
0.00024036504
0.00043214525
0.00081808441
0.0015124127
0.0025962097
0.0040958155
0.0059538456
0.0080457747
0.010235578
0.012415494
0.014512799
0.016482174
0.018298046
0.019948693
0.021431722
0.022750839
0.023913558
0.024929603
0.025809802
0.026565351
0.027207356
0.027746572
0.028193272
0.028557176
0.028847409
0.029072467
0.029240194
0.029357761
0.029431673
0.029467788
0.029471353
0.029447044
0.02939904
0.029331025
0.029246388
0.029147935
0.029038713
0.028920104
0.028795116
0.028663163
0.028516972
0.028416242
0.02803735
1.8916364e-05
1.9003183e-05
1.9094287e-05
1.9186852e-05
1.9278965e-05
1.9369064e-05
1.9456183e-05
1.9539928e-05
1.9620245e-05
1.9697252e-05
1.9771156e-05
1.9842216e-05
1.9910706e-05
1.9976893e-05
2.004103e-05
2.0103355e-05
2.0164088e-05
2.0223428e-05
2.028156e-05
2.0338654e-05
2.0394867e-05
2.0450346e-05
2.0505227e-05
2.0559642e-05
2.0613727e-05
2.0667623e-05
2.0721492e-05
2.0775527e-05
2.0829961e-05
2.0885087e-05
2.0941266e-05
2.0998949e-05
2.1058698e-05
2.1121203e-05
2.1187317e-05
2.1258083e-05
2.1334788e-05
2.1419016e-05
2.1512729e-05
2.1618396e-05
2.1739133e-05
2.1878931e-05
2.2043004e-05
2.2238169e-05
2.2473566e-05
2.2761724e-05
2.3119493e-05
2.3571464e-05
2.41517e-05
2.4910903e-05
2.5930548e-05
2.7319047e-05
2.9297743e-05
3.2182601e-05
3.6535508e-05
4.3357782e-05
5.4543454e-05
7.4264742e-05
0.00011020624
0.00018159914
0.00032225191
0.00061124323
0.0011542296
0.0020385294
0.0033027421
0.0049124744
0.0067639925
0.008733001
0.010715969
0.012640865
0.0144616
0.016151089
0.017695736
0.019091159
0.020339073
0.02144507
0.022417063
0.023264237
0.023996353
0.024623322
0.025154927
0.025600649
0.025969538
0.026270118
0.026510326
0.026697477
0.026838252
0.026938715
0.027004342
0.027040086
0.027050387
0.027039345
0.027010515
0.026967547
0.026912717
0.026849298
0.026777964
0.026691803
0.026645064
0.02635979
1.8491913e-05
1.8569934e-05
1.8651785e-05
1.8735174e-05
1.8818572e-05
1.890067e-05
1.8980589e-05
1.9057895e-05
1.9132445e-05
1.920425e-05
1.9273423e-05
1.9340134e-05
1.9404583e-05
1.9466977e-05
1.9527517e-05
1.95864e-05
1.9643809e-05
1.9699916e-05
1.9754878e-05
1.9808843e-05
1.9861944e-05
1.9914305e-05
1.9966036e-05
2.0017237e-05
2.0067999e-05
2.0118408e-05
2.016855e-05
2.0218516e-05
2.0268409e-05
2.0318352e-05
2.0368497e-05
2.0419035e-05
2.0470208e-05
2.0522323e-05
2.0575769e-05
2.0631036e-05
2.0688735e-05
2.0749631e-05
2.0814681e-05
2.0885079e-05
2.0962335e-05
2.1048358e-05
2.1145596e-05
2.1257214e-05
2.1387343e-05
2.1541497e-05
2.1726985e-05
2.1953875e-05
2.2235978e-05
2.2592343e-05
2.3051937e-05
2.3652278e-05
2.4458404e-05
2.5563239e-05
2.7117451e-05
2.938866e-05
3.2795355e-05
3.8128587e-05
4.67467e-05
6.1811567e-05
8.9066459e-05
0.0001428473
0.00025059652
0.00047346859
0.00090759194
0.0016408869
0.0027193802
0.0041250503
0.0057713746
0.0075457534
0.0093504256
0.011115639
0.012795844
0.014363504
0.015803979
0.01711152
0.018286325
0.019332446
0.020256341
0.02106589
0.021769738
0.022376852
0.022896209
0.023336569
0.023706318
0.024013358
0.024265043
0.024468157
0.024628909
0.024752977
0.024845522
0.024911319
0.024954629
0.024979678
0.024989577
0.024987921
0.024976593
0.024949377
0.024955112
0.024761253
1.8077259e-05
1.8147818e-05
1.8221808e-05
1.8297336e-05
1.8373176e-05
1.8448238e-05
1.8521743e-05
1.8593252e-05
1.8662565e-05
1.8729625e-05
1.8794468e-05
1.8857196e-05
1.8917947e-05
1.8976876e-05
1.9034141e-05
1.9089901e-05
1.9144308e-05
1.9197507e-05
1.9249633e-05
1.9300813e-05
1.9351163e-05
1.9400791e-05
1.944979e-05
1.9498246e-05
1.9546231e-05
1.959381e-05
1.9641041e-05
1.9687979e-05
1.9734675e-05
1.9781185e-05
1.9827573e-05
1.9873913e-05
1.9920303e-05
1.9966866e-05
2.0013762e-05
2.0061198e-05
2.0109443e-05
2.015884e-05
2.0209828e-05
2.0262965e-05
2.031896e-05
2.0378717e-05
2.0443392e-05
2.0514471e-05
2.0593881e-05
2.0684147e-05
2.0788591e-05
2.0911661e-05
2.1059384e-05
2.1239835e-05
2.1464656e-05
2.174925e-05
2.2116736e-05
2.2600483e-05
2.3249033e-05
2.4142787e-05
2.539266e-05
2.7223877e-05
2.9962486e-05
3.4247515e-05
4.1134812e-05
5.303887e-05
7.4575666e-05
0.00011669479
0.00020208156
0.00037962902
0.00073563297
0.0013553223
0.0022884988
0.0035280526
0.0050009506
0.0066054465
0.008250384
0.0098694407
0.01141861
0.012870719
0.014210739
0.015432076