/*--------------------------------*- C++ -*----------------------------------*\
| =========                 |                                                 |
| \\      /  F ield         | OpenFOAM: The Open Source CFD Toolbox           |
|  \\    /   O peration     | Version:  2206                                  |
|   \\  /    A nd           | Website:  www.openfoam.com                      |
|    \\/     M anipulation  |                                                 |
\*---------------------------------------------------------------------------*/
FoamFile
{
    version     2.0;
    format      ascii;
    arch        "LSB;label=32;scalar=64";
    class       volScalarField;
    location    "400";
    object      k;
}
// * * * * * * * * * * * * * * * * * * * * * * * * * * * * * * * * * * * * * //

dimensions      [0 2 -2 0 0 0 0];

internalField   nonuniform List<scalar> 
7480
(
0.0321671
0.062196942
0.06887102
0.063413578
0.054840328
0.047462319
0.042145021
0.038312911
0.035373394
0.032979661
0.03097241
0.029277599
0.027846312
0.026636446
0.025611186
0.024737745
0.023991342
0.023352696
0.022802057
0.022327302
0.021910981
0.021541851
0.021210319
0.020908959
0.020632787
0.020377587
0.020140529
0.019918712
0.019709526
0.019510837
0.019321456
0.019140547
0.018967207
0.018800689
0.018640103
0.018485164
0.018334527
0.018188058
0.018045437
0.017906197
0.017769995
0.017636541
0.017505614
0.017377081
0.017250749
0.017126521
0.017004236
0.016883708
0.016764842
0.016647539
0.016531721
0.016417344
0.016304345
0.016192693
0.016082328
0.015973209
0.015865305
0.015758557
0.015652917
0.01554835
0.015444856
0.015342423
0.015241026
0.015140645
0.015041266
0.014942875
0.014845443
0.014748951
0.014653391
0.014558761
0.014465048
0.014372241
0.014280327
0.014189286
0.014099084
0.014009683
0.013921049
0.013833152
0.013745967
0.013659469
0.013573623
0.013488382
0.013403671
0.013319378
0.013235343
0.01315134
0.013067067
0.012982118
0.012895989
0.012808005
0.012717437
0.012623185
0.012524488
0.012419277
0.012307835
0.012184719
0.01205531
0.011900538
0.0117593
0.011492112
0.0025227464
0.0095493946
0.016645146
0.02068124
0.021729671
0.021457221
0.020817772
0.020164133
0.019526822
0.018894085
0.018281654
0.017714122
0.017205731
0.016758671
0.016369604
0.01602557
0.015725774
0.015468659
0.015248601
0.01505742
0.014888463
0.014735896
0.014595252
0.014463965
0.014340924
0.014224666
0.014114942
0.014009725
0.013907677
0.013808024
0.013710816
0.013616015
0.013523379
0.013432712
0.013343436
0.01325597
0.01316882
0.013082711
0.012997578
0.012913125
0.012829198
0.012745752
0.012662786
0.012580298
0.01249824
0.012416672
0.012335501
0.012254667
0.012174163
0.012093991
0.012014175
0.011934727
0.01185566
0.011776993
0.01169872
0.011620862
0.011543423
0.01146639
0.011389747
0.011313509
0.011237709
0.011162366
0.011087481
0.011013063
0.010939124
0.010865674
0.010792703
0.010720219
0.010648235
0.010576766
0.01050582
0.010435401
0.010365511
0.010296148
0.010227291
0.01015892
0.010091019
0.010023577
0.0099565898
0.0098900505
0.009823946
0.0097582482
0.0096929048
0.0096278301
0.0095628944
0.0094979116
0.009432627
0.0093667017
0.0092997009
0.0092310777
0.0091601719
0.0090861937
0.0090082702
0.0089253678
0.0088365742
0.0087404818
0.0086368325
0.0085211837
0.008409116
0.0082039857
0.00021391331
0.00056478456
0.0013017354
0.0026272653
0.0042062652
0.0058201463
0.007274476
0.0085080937
0.0095704569
0.010495879
0.011289101
0.011945276
0.012468792
0.012877259
0.013194292
0.013448135
0.01365403
0.013820337
0.01395324
0.014057282
0.014136642
0.014194679
0.014233562
0.014256878
0.014267566
0.014266853
0.014259805
0.014244517
0.014222005
0.014192925
0.014158936
0.014120858
0.01407923
0.014034571
0.013986662
0.01393692
0.013883298
0.013828034
0.013770879
0.013711793
0.013650904
0.013588408
0.013524507
0.013459371
0.013393096
0.013325913
0.01325779
0.013188791
0.013119008
0.013048533
0.012977484
0.012905937
0.012833978
0.012761686
0.012689099
0.012616299
0.012543328
0.012470207
0.012396954
0.012323624
0.012250288
0.012176994
0.012103768
0.012030645
0.011957664
0.011884853
0.011812222
0.011739795
0.011667611
0.011595698
0.011524082
0.011452782
0.011381814
0.011311188
0.011240891
0.011170912
0.011101244
0.011031889
0.010962853
0.010894142
0.010825754
0.01075767
0.010689841
0.010622184
0.010554564
0.010486785
0.01041857
0.010349554
0.010279259
0.010207095
0.010132318
0.010054109
0.0099714163
0.0098833555
0.0097884891
0.0096864195
0.0095751115
0.0094539839
0.0093334283
0.0091168825
0.00015229999
0.00016386969
0.00019501648
0.00027683506
0.00044471335
0.0006918702
0.0011493933
0.0017902468
0.0026160339
0.0035367676
0.0044940208
0.0054725606
0.0064599747
0.0074335406
0.0083619356
0.0092166783
0.0099798788
0.01064655
0.011222139
0.011716404
0.012139301
0.012499556
0.012805316
0.013063219
0.013279839
0.013460116
0.013609669
0.013733017
0.013833431
0.01391455
0.013978894
0.01402881
0.014066257
0.014093123
0.014110181
0.014119818
0.014118538
0.014111967
0.014098532
0.014079265
0.014054747
0.014025529
0.013992121
0.01395496
0.013914382
0.013870878
0.013824504
0.013775548
0.013724248
0.013670831
0.01361554
0.013558555
0.013500071
0.013440249
0.0133792
0.013317086
0.013254005
0.013190035
0.013125238
0.013059728
0.012993624
0.012927013
0.012859959
0.012792531
0.012724802
0.012656828
0.012588642
0.012520296
0.012451853
0.012383364
0.012314874
0.012246421
0.012178041
0.012109757
0.012041572
0.011973485
0.011905504
0.011837643
0.011769924
0.011702366
0.01163498
0.01156776
0.011500668
0.011433625
0.011366503
0.011299104
0.01123115
0.011162266
0.011091958
0.011019618
0.01094447
0.010865682
0.010782125
0.010692992
0.01059661
0.010493099
0.010379624
0.010257539
0.010134682
0.0099159586
0.00015296351
0.00015473955
0.00015615711
0.00015832234
0.00016473941
0.00017795265
0.00020942867
0.00027555855
0.00038488607
0.00059000863
0.00090952933
0.0013501478
0.0019214823
0.0025896994
0.0033451733
0.0041797741
0.0050762258
0.006004551
0.0069267459
0.0078060355
0.0086163151
0.0093455979
0.0099933165
0.010564403
0.011065385
0.011502474
0.01188228
0.012211462
0.012496656
0.012743241
0.012955741
0.013138304
0.013294525
0.013427373
0.01353968
0.013634747
0.01371268
0.013776534
0.013827782
0.013867467
0.013896731
0.013916728
0.01392843
0.013932678
0.013930177
0.013921885
0.013908031
0.013889115
0.01386555
0.013837778
0.013806239
0.01377127
0.013733198
0.013692322
0.013648896
0.013603204
0.013555425
0.013505719
0.013454219
0.013401125
0.013346623
0.013290858
0.013233944
0.013176006
0.013117164
0.01305751
0.012997113
0.012936063
0.012874456
0.012812375
0.012749891
0.012687068
0.012623968
0.012560637
0.012497095
0.01243336
0.012369457
0.01230542
0.012241288
0.0121771
0.012112885
0.012048652
0.011984378
0.01192
0.011855397
0.011790381
0.011724677
0.011657915
0.011589598
0.011519117
0.011445681
0.011368462
0.01128629
0.011198428
0.011103068
0.011000702
0.01088802
0.010767694
0.010646058
0.010429917
0.00015334652
0.00015610704
0.00015746603
0.00015786822
0.00015794335
0.00015759548
0.00015778235
0.00015932109
0.00016425638
0.0001776502
0.00020700364
0.00026145829
0.00034993177
0.00050480889
0.00074166132
0.0010812238
0.0015330356
0.0020901555
0.0027525537
0.0035134124
0.0043528566
0.0052375183
0.0061267832
0.0069833436
0.0077818029
0.008510398
0.0091672599
0.0097552151
0.010278804
0.010743117
0.011153551
0.011515574
0.011834308
0.012114322
0.012359756
0.012574926
0.012762438
0.012925456
0.013066727
0.01318852
0.013292837
0.013381391
0.013455755
0.013517368
0.013567359
0.013606951
0.013637171
0.013658899
0.013672955
0.013680041
0.013680778
0.013675698
0.013665341
0.013650191
0.013630692
0.01360731
0.013580316
0.013549992
0.013516627
0.013480509
0.013441885
0.013400979
0.013357977
0.013313061
0.013266433
0.013218246
0.013168615
0.013117685
0.013065598
0.013012474
0.012958423
0.012903543
0.012847932
0.012791667
0.012734792
0.012677349
0.012619388
0.012560966
0.012502146
0.012442991
0.012383553
0.012323864
0.012263921
0.012203678
0.012143032
0.012081811
0.012019753
0.011956498
0.011891557
0.011824331
0.011754028
0.011679834
0.011600566
0.011515539
0.01142288
0.011323342
0.011213342
0.011096434
0.010978121
0.010767166
0.00015231287
0.00015568369
0.00015804153
0.00015949282
0.00015948821
0.00015925818
0.00015876164
0.00015815721
0.0001575487
0.0001569495
0.00015738802
0.00015947064
0.00016509751
0.00017788902
0.00020298977
0.00024809118
0.00032067246
0.00044676905
0.00064579109
0.00093847872
0.0013413299
0.0018546181
0.0024799303
0.0032080318
0.0040147314
0.0048631953
0.0057126377
0.0065292318
0.0072923768
0.0079936872
0.0086319862
0.0092091033
0.0097281412
0.010193063
0.010608293
0.01097862
0.011308096
0.011600643
0.011859994
0.012089493
0.012292119
0.012470516
0.012627056
0.012763898
0.012882902
0.012985814
0.013074204
0.01314945
0.0132128
0.01326536
0.013308106
0.013341962
0.013367691
0.013386001
0.013397551
0.013402874
0.013402569
0.013397135
0.013387031
0.013372636
0.013354312
0.013332389
0.01330715
0.013278883
0.013247877
0.01321435
0.013178479
0.013140481
0.013100548
0.013058864
0.013015599
0.012970904
0.012924901
0.012877698
0.012829381
0.012780028
0.012729719
0.012678541
0.012626588
0.012573951
0.012520711
0.012466929
0.012412628
0.012357789
0.01230233
0.012246101
0.012188863
0.012130273
0.012069863
0.012007048
0.011941053
0.011871081
0.011795955
0.011715038
0.011626431
0.011531064
0.011425215
0.011312978
0.011199449
0.010995435
0.00015090622
0.00015404621
0.00015672595
0.00015854012
0.00015947216
0.00015962624
0.00015949039
0.00015912544
0.0001585805
0.00015795163
0.00015730358
0.00015676056
0.00015603068
0.00015606531
0.00015667087
0.00015922754
0.00016491086
0.00017676205
0.0001994919
0.00024033882
0.00030771712
0.0004261297
0.00061779586
0.00090343472
0.0012997522
0.0018103198
0.0024337507
0.0031546645
0.0039424991
0.0047576437
0.005562578
0.0063307526
0.0070483416
0.0077103623
0.008316091
0.0088669423
0.0093654994
0.0098151741
0.010219762
0.010583038
0.010908631
0.011199946
0.011460125
0.01169207
0.011898393
0.012081494
0.012243564
0.012386574
0.012512302
0.012622346
0.012718129
0.012800956
0.012871976
0.012932221
0.01298264
0.013024055
0.013057265
0.013082987
0.013101876
0.013114503
0.013121386
0.013123003
0.013119802
0.013112158
0.013100407
0.0130849
0.013065971
0.013043887
0.01301891
0.012991289
0.012961258
0.012929027
0.012894778
0.012858668
0.012820825
0.012781371
0.012740424
0.012698109
0.012654554
0.012609888
0.012564229
0.01251767
0.012470268
0.012422037
0.012372926
0.012322814
0.012271489
0.012218639
0.012163822
0.012106478
0.01204586
0.011981195
0.01191133
0.011835664
0.011752311
0.011662298
0.011561862
0.011455368
0.011347745
0.011152019
0.00014960701
0.00015221854
0.00015467368
0.00015657092
0.00015784442
0.00015850815
0.00015873912
0.00015870234
0.00015848367
0.00015814835
0.00015771343
0.00015718459
0.00015659853
0.00015603934
0.00015548334
0.00015498844
0.000154637
0.00015471717
0.00015572586
0.00015863157
0.00016469988
0.00017699448
0.00020068436
0.00024304813
0.0003166557
0.00044553909
0.00065374432
0.0009633442
0.0013848263
0.0019217614
0.0025655988
0.003291696
0.0040632654
0.004841828
0.0055975335
0.0063129807
0.0069803494
0.0075969079
0.0081624607
0.0086784609
0.0091474718
0.0095725716
0.0099569678
0.010303878
0.010616406
0.010897488
0.011149884
0.011376145
0.01157861
0.011759416
0.01192049
0.012063597
0.012190321
0.012302095
0.012400222
0.012485863
0.012560095
0.012623902
0.012678183
0.012723739
0.012761292
0.012791502
0.012814976
0.012832253
0.012843815
0.012850124
0.012851621
0.012848689
0.012841684
0.012830941
0.012816774
0.012799469
0.012779277
0.012756409
0.012731063
0.012703408
0.012673611
0.01264184
0.012608269
0.012573071
0.012536406
0.012498408
0.012459179
0.012418767
0.012377163
0.012334283
0.012289952
0.012243894
0.012195703
0.012144857
0.012090642
0.012032321
0.011968776
0.011899438
0.011822455
0.011738895
0.011645015
0.011545241
0.011444451
0.011258148
0.00014854822
0.00015063902
0.00015268026
0.00015438585
0.00015567258
0.00015654152
0.00015705313
0.00015729736
0.00015735007
0.00015725651
0.00015705659
0.00015676793
0.00015640865
0.0001559932
0.00015552103
0.00015501255
0.00015450211
0.00015399011
0.00015351071
0.00015313458
0.00015300116
0.00015340056
0.00015491918
0.00015856134
0.00016605237
0.00018097488
0.00020968154
0.00026012373
0.00035268012
0.0005117105
0.00076126705
0.0011192447
0.0015917333
0.0021747343
0.0028479325
0.0035771528
0.0043243398
0.005058557
0.0057606871
0.0064212289
0.0070360704
0.0076039272
0.0081253686
0.0086022123
0.0090369122
0.0094321942
0.0097909042
0.010115868
0.010409804
0.010675283
0.010914697
0.011130265
0.011324027
0.011497842
0.011653415
0.011792286
0.011915869
0.012025462
0.012122252
0.012207314
0.012281617
0.012346041
0.012401396
0.012448411
0.012487743
0.012520005
0.012545771
0.012565558
0.012579841
0.012589061
0.012593629
0.012593924
0.012590282
0.012582995
0.012572327
0.012558514
0.01254178
0.012522349
0.012500449
0.012476303
0.012450122
0.012422092
0.01239236
0.012361027
0.012328127
0.012293624
0.012257387
0.012219187
0.012178662
0.012135336
0.012088542
0.012037583
0.01198139
0.011919421
0.011849876
0.011773811
0.011687554
0.011595427
0.011502281
0.011326429
0.00014771703
0.00014937999
0.0001510274
0.00015245263
0.00015359333
0.00015445268
0.00015506189
0.00015546337
0.00015569662
0.00015579215
0.00015577666
0.00015567064
0.00015549009
0.00015524683
0.00015494779
0.0001545994
0.00015421166
0.0001537854
0.00015332468
0.00015285826
0.00015238961
0.00015194592
0.00015156927
0.00015137113
0.00015154124
0.0001524508
0.00015490521
0.00016006039
0.0001706006
0.00019159727
0.00023054568
0.00030237461
0.00043151536
0.00064362845
0.0009599381
0.0013886892
0.0019285178
0.0025613769
0.0032545987
0.0039710091
0.004680115
0.0053627459
0.0060088572
0.0066135903
0.007174983
0.007693037
0.0081690498
0.0086050134
0.0090032731
0.0093663455
0.0096967649
0.00999701
0.01026945
0.010516309
0.010739666
0.010941433
0.011123383
0.011287151
0.011434245
0.011566042
0.011683795
0.011788642
0.011881631
0.011963714
0.012035755
0.012098546
0.012152829
0.012199276
0.012238504
0.012271085
0.012297549
0.012318383
0.012334027
0.01234487
0.012351259
0.01235351
0.012351917
0.012346771
0.012338361
0.012326971
0.012312872
0.01229631
0.012277489
0.012256566
0.012233631
0.012208703
0.012181707
0.012152465
0.012120674
0.01208591
0.012047562
0.012004984
0.011957163
0.011903586
0.011842512
0.011774951
0.011697328
0.011613747
0.011528993
0.011364576
0.00014707028
0.00014839677
0.00014972137
0.00015088777
0.00015184613
0.00015260119
0.00015317981
0.00015361199
0.00015392059
0.00015412159
0.00015422824
0.00015425259
0.00015420548
0.00015409607
0.00015393182
0.00015371878
0.00015346248
0.0001531666
0.00015283281
0.00015246711
0.00015207206
0.00015164905
0.00015121671
0.00015078429
0.0001503753
0.0001500212
0.00014981504
0.0001498982
0.00015055665
0.00015240644
0.00015648656
0.00016485791
0.00018180602
0.00021444137
0.00027531978
0.00038853383
0.00058033996
0.00087316212
0.0012766568
0.0017901199
0.0023955953
0.0030606482
0.0037492358
0.004432541
0.0050925917
0.0057196612
0.006308727
0.0068575841
0.0073659668
0.0078348437
0.0082658698
0.0086610914
0.0090227435
0.0093531056
0.0096544281
0.0099288738
0.010178499
0.010405241
0.010610912
0.010797192
0.010965628
0.011117641
0.011254538
0.011377522
0.011487688
0.011586041
0.011673514
0.01175096
0.011819164
0.011878849
0.011930686
0.011975292
0.01201323
0.012045001
0.012071056
0.012091802
0.01210762
0.012118877
0.012125937
0.012129153
0.012128868
0.012125393
0.012119002
0.012109916
0.012098292
0.012084211
0.012067663
0.012048535
0.012026586
0.012001458
0.011972606
0.01193944
0.011901013
0.011856839
0.01180525
0.011747176
0.011679161
0.011605007
0.011529362
0.011377367
0.00014656818
0.0001476315
0.00014869964
0.00014965289
0.00015044768
0.0001510847
0.00015158608
0.00015197835
0.00015228139
0.00015250737
0.00015266407
0.0001527574
0.00015279255
0.00015277417
0.00015270668
0.00015259438
0.00015244104
0.0001522498
0.0001520229
0.0001517627
0.00015147133
0.00015114942
0.00015080048
0.00015042715
0.00015003187
0.00014962686
0.00014922455
0.00014884682
0.00014852332
0.00014833023
0.00014840154
0.0001489807
0.00015058476
0.00015418501
0.00016155808
0.00017667492
0.00020643107
0.00026303514
0.00037036474
0.00055527514
0.00083980338
0.0012339934
0.0017357537
0.0023251773
0.0029690864
0.0036330413
0.0042909816
0.0049270153
0.0055323045
0.0061021041
0.0066343106
0.0071286205
0.0075858281
0.0080073672
0.0083950503
0.0087508724
0.0090768958
0.0093751737
0.0096477021
0.0098963875
0.010123027
0.010329302
0.01051678
0.010686917
0.010841051
0.01098042
0.011106168
0.011219348
0.011320934
0.011411823
0.011492846
0.011564771
0.011628302
0.011684071
0.01173265
0.011774556
0.011810269
0.011840247
0.011864938
0.011884779
0.01190019
0.011911563
0.011919247
0.011923539
0.011924671
0.011922799
0.011917985
0.011910192
0.011899251
0.011884879
0.011866604
0.011843902
0.011815901
0.011782143
0.011741039
0.011693418
0.011635957
0.011572107
0.011506281
0.011367727
0.00014617949
0.00014703603
0.00014790073
0.00014868203
0.00014934159
0.00014987511
0.0001502978
0.00015063146
0.00015089446
0.00015109919
0.00015125343
0.00015136205
0.00015142828
0.00015145426
0.00015144185
0.00015139303
0.00015130964
0.00015119332
0.00015104554
0.00015086763
0.00015066084
0.00015042592
0.00015016375
0.00014987533
0.00014956109
0.00014922326
0.0001488647
0.00014848807
0.00014810474
0.00014772703
0.00014737751
0.00014708771
0.00014692721
0.00014702957
0.00014762121
0.00014919211
0.00015269272
0.00015986795
0.00017472828
0.00020421601
0.0002617869
0.00037151811
0.00056107143
0.00085048165
0.0012489268
0.0017508413
0.0023326374
0.00296031
0.0036019547
0.0042351199
0.004846428
0.0054282602
0.0059764787
0.0064893039
0.0069665132
0.007408832
0.0078175699
0.0081943741
0.0085410635
0.0088595242
0.0091516366
0.0094192343
0.0096640746
0.0098878242
0.010092046
0.010278199
0.010447641
0.010601637
0.010741357
0.010867888
0.010982239
0.011085345
0.011178067
0.011261187
0.011335415
0.011401392
0.011459715
0.011510946
0.011555632
0.011594301
0.011627463
0.011655598
0.011679145
0.011698486
0.011713937
0.011725739
0.011734039
0.011738881
0.011740182
0.011737739
0.011731167
0.011720014
0.01170349
0.011681168
0.011651544
0.011615333
0.011569355
0.011516685
0.011461396
0.011337359
0.00014588033
0.00014657329
0.00014727577
0.00014791805
0.00014846695
0.00014891468
0.00014927011
0.00014954941
0.000149768
0.00014993763
0.00015006663
0.0001501607
0.00015022353
0.00015025726
0.00015026317
0.00015024227
0.00015019525
0.00015012264
0.0001500249
0.00014990247
0.00014975575
0.00014958499
0.00014939036
0.00014917203
0.00014892996
0.00014866436
0.00014837576
0.00014806447
0.00014773253
0.00014738295
0.00014701934
0.00014665284
0.00014629656
0.00014597493
0.00014572161
0.00014560839
0.00014577432
0.00014645217
0.00014816241
0.00015187742
0.0001595379
0.00017552868
0.00020718188
0.00027073164
0.00039099434
0.00059614943
0.00090248878
0.0013164753
0.0018268682
0.0024057234
0.0030193158
0.0036396301
0.0042483026
0.0048344515
0.0053917665
0.0059169006
0.0064085177
0.0068665576
0.0072917602
0.0076853652
0.0080489024
0.0083840549
0.0086925624
0.0089761615
0.0092365424
0.0094753242
0.0096940446
0.009894155
0.010077017
0.010243906
0.010396013
0.01053445
0.010660246
0.010774346
0.01087761
0.010970824
0.011054711
0.011129954
0.011197207
0.011257105
0.011310257
0.011357243
0.011398598
0.011434801
0.011466265
0.011493324
0.01151622
0.011535089
0.011549944
0.011560672
0.011566982
0.011568503
0.011564534
0.011554684
0.011537539
0.011513695
0.011480121
0.011439515
0.011395501
0.011287129
0.00014565234
0.00014621497
0.00014678732
0.00014731647
0.00014777428
0.00014815102
0.00014845082
0.00014868487
0.00014886511
0.00014900158
0.00014910212
0.00014917275
0.0001492178
0.00014924018
0.00014924171
0.00014922363
0.00014918664
0.00014913102
0.00014905687
0.00014896416
0.00014885281
0.00014872259
0.00014857324
0.00014840442
0.00014821571
0.0001480067
0.00014777706
0.00014752643
0.00014725477
0.00014696247
0.00014665006
0.00014631973
0.0001459748
0.00014562001
0.00014526739
0.00014493133
0.0001446384
0.00014442739
0.00014438051
0.00014464779
0.00014549299
0.00014752546
0.00015178763
0.00016067826
0.00017933917
0.00021602241
0.00029118726
0.0004314849
0.00066178006
0.00099574017
0.001433694
0.0019569647
0.0025340825
0.0031336558
0.0037326562
0.00431674
0.0048773215
0.0054094303
0.0059105497
0.006379787
0.0068172879
0.0072238652
0.0076007378
0.0079493594
0.0082713005
0.0085681708
0.0088415702
0.0090930588
0.0093241375
0.0095362369
0.0097307133
0.0099088453
0.010071831
0.01022078
0.010356714
0.010480567
0.010593207
0.010695444
0.010788055
0.010871786
0.01094736
0.011015464
0.01107674
0.011131775
0.011181087
0.011225116
0.011264206
0.011298598
0.011328409
0.011353627
0.011374061
0.011389433
0.011399135
0.011402819
0.011399165
0.011388651
0.011368404
0.011340759
0.011308783
0.011217304
0.00014548124
0.00014593935
0.0001464067
0.00014684325
0.00014722547
0.00014754293
0.00014779644
0.00014799328
0.00014814233
0.00014825158
0.00014832779
0.00014837651
0.00014840213
0.00014840794
0.00014839632
0.00014836903
0.00014832722
0.00014827153
0.00014820227
0.00014811951
0.00014802313
0.00014791284
0.00014778823
0.00014764877
0.00014749386
0.00014732281
0.00014713495
0.00014692957
0.00014670603
0.00014646381
0.00014620251
0.00014592206
0.00014562296
0.00014530603
0.000144974
0.00014463067
0.00014428274
0.00014394252
0.00014362773
0.00014336829
0.00014321108
0.00014325914
0.00014367944
0.00014480081
0.00014738634
0.00015264221
0.00016375962
0.00018686221
0.00023393293
0.00032821253
0.00049819533
0.00076366761
0.0011337658
0.0015997534
0.0021354881
0.0027087703
0.0032928241
0.0038698579
0.0044289551
0.0049635424
0.0054699462
0.005946448
0.0063925941
0.0068087525
0.0071958107
0.0075549725
0.0078876217
0.008195232
0.0084793062
0.0087413363
0.0089827789
0.0092050378
0.0094094517
0.0095972814
0.0097697012
0.0099277987
0.010072584
0.010205006
0.010325967
0.010436338
0.010536959
0.010628632
0.010712117
0.010788117
0.010857264
0.010920113
0.010977122
0.011028647
0.011074916
0.011116029
0.011151906
0.011182365
0.011206902
0.011225217
0.011236091
0.011239889
0.011233902
0.011220133
0.011200991
0.011127722
0.00014535591
0.00014572969
0.00014611187
0.00014647221
0.00014679129
0.00014705876
0.00014727322
0.00014743909
0.0001475627
0.00014765022
0.00014770717
0.00014773835
0.00014774773
0.00014773856
0.00014771334
0.00014767412
0.00014762241
0.00014755926
0.00014748534
0.00014740107
0.0001473066
0.00014720186
0.00014708659
0.00014696038
0.00014682267
0.00014667281
0.00014651006
0.00014633362
0.00014614268
0.00014593642
0.00014571407
0.00014547491
0.00014521844
0.0001449443
0.00014465263
0.00014434412
0.00014402024
0.00014368423
0.0001433407
0.00014299895
0.0001426721
0.00014238321
0.00014216754
0.00014208498
0.00014227118
0.00014292172
0.00014449299
0.00014789732
0.0001549462
0.00016995949
0.00020046794
0.00026455811
0.00038855607
0.00059821943
0.00090842918
0.0013195262
0.001812304
0.0023560132
0.0029214332
0.0034876778
0.0040415777
0.0045750298
0.0050832512
0.0055637122
0.0060153651
0.0064381343
0.0068325752
0.0071996427
0.0075405356
0.0078565904
0.0081492104
0.0084198165
0.0086698136
0.0089005617
0.0091133556
0.0093094147
0.0094898836
0.0096558426
0.0098083231
0.0099483186
0.01007679
0.010194663
0.010302817
0.010402078
0.010493202
0.010576867
0.010653655
0.010724043
0.010788383
0.010846894
0.010899615
0.010946469
0.010987066
0.011021154
0.011047629
0.011066747
0.011075974
0.011077023
0.011071547
0.011017894
0.00014526794
0.00014557314
0.00014588578
0.00014618302
0.00014644902
0.00014667396
0.00014685511
0.00014699475
0.00014709724
0.00014716722
0.00014720908
0.00014722678
0.00014722379
0.00014720302
0.00014716687
0.00014711735
0.00014705609
0.00014698435
0.00014690307
0.00014681293
0.00014671439
0.00014660766
0.00014649276
0.00014636953
0.00014623764
0.00014609663
0.00014594592
0.00014578483
0.0001456126
0.00014542844
0.00014523149
0.0001450209
0.00014479585
0.00014455558
0.00014429944
0.000144027
0.00014373813
0.00014343326
0.00014311336
0.00014278083
0.00014243953
0.00014209577
0.00014176166
0.00014145251
0.0001411986
0.0001410444
0.00014107533
0.00014145471
0.00014246445
0.00014477719
0.00014951601
0.00015960438
0.00018083862
0.00022523621
0.00031587114
0.00048167477
0.00074124466
0.0011023995
0.0015532498
0.00206614
0.0026107739
0.0031637404
0.0037097755
0.0042393334
0.0047465966
0.0052282765
0.0056827681
0.0061095792
0.0065089524
0.0068816073
0.0072285659
0.0075510327
0.0078503115
0.0081277428
0.0083846594
0.0086223549
0.0088420709
0.0090449955
0.0092322723
0.0094050092
0.0095642838
0.0097111399
0.0098465809
0.009971557
0.010086953
0.010193575
0.010292137
0.010383247
0.010467386
0.010544903
0.010615963
0.010680604
0.010738551
0.010789616
0.010832811
0.010868298
0.010893726
0.010910566
0.010919622
0.010887083
0.00014520959
0.00014545885
0.00014571454
0.00014595942
0.00014618064
0.00014636923
0.00014652171
0.00014663887
0.00014672352
0.00014677905
0.00014680887
0.00014681621
0.00014680401
0.00014677478
0.00014673069
0.0001466736
0.00014660507
0.00014652637
0.00014643853
0.00014634238
0.00014623854
0.00014612743
0.0001460093
0.00014588422
0.00014575212
0.00014561277
0.00014546583
0.00014531084
0.00014514724
0.00014497439
0.00014479157
0.00014459801
0.0001443929
0.00014417541
0.00014394471
0.00014370004
0.00014344071
0.00014316622
0.00014287629
0.0001425711
0.00014225145
0.0001419189
0.00014157699
0.00014123041
0.00014088907
0.0001405666
0.00014028393
0.00014008063
0.00014001673
0.00014022422
0.00014090035
0.00014250388
0.00014594026
0.00015309749
0.00016847801
0.00020002546
0.00026785372
0.00039919514
0.00061736683
0.00093520957
0.0013474107
0.0018302362
0.0023534399
0.0028917662
0.0034281515
0.0039517744
0.0044559038
0.0049365757
0.0053916856
0.0058203666
0.0062225789
0.0065988279
0.0069499723
0.0072770871
0.007581366
0.0078640523
0.008126396
0.0083696317
0.0085949728
0.008803612
0.0089967226
0.009175454
0.009340923
0.0094942011
0.0096363001
0.0097681579
0.0098906227
0.010004439
0.010110225
0.010208465
0.01029946
0.010383367
0.010460037
0.010529351
0.010590444
0.010643401
0.010686057
0.010719704
0.0107442
0.010734358
0.00014517544
0.0001453787
0.00014558744
0.00014578865
0.00014597195
0.00014612934
0.00014625699
0.00014635467
0.00014642402
0.00014646741
0.00014648744
0.00014648669
0.00014646759
0.0001464323
0.00014638271
0.00014632049
0.00014624706
0.00014616362
0.00014607118
0.00014597056
0.00014586245
0.00014574736
0.00014562566
0.00014549759
0.00014536323
0.00014522256
0.00014507544
0.00014492162
0.00014476076
0.00014459242
0.00014441609
0.00014423118
0.00014403702
0.00014383292
0.00014361811
0.00014339182
0.00014315326
0.00014290167
0.00014263638
0.00014235682
0.00014206268
0.00014175393
0.00014143122
0.00014109575
0.00014075035
0.00014039941
0.00014005053
0.00013971576
0.00013941252
0.00013917299
0.00013904764
0.00013913093
0.00013959887
0.00014076581
0.00014338501
0.00014868758
0.00016013679
0.00018424988
0.00023630701
0.00034163791
0.00052671174
0.00080797297
0.0011857528
0.0016404394
0.0021426056
0.0026657884
0.0031914648
0.0037077326
0.0042070887
0.0046849968
0.0051389253
0.0055676859
0.0059709933
0.0063491607
0.0067028892
0.0070331182
0.0073409254
0.0076274627
0.0078939209
0.0081415114
0.0083714554
0.0085849729
0.00878327
0.0089675227
0.0091388594
0.0092983442
0.0094469582
0.0095855835
0.0097149797
0.0098357705
0.009948398
0.010053147
0.010149999
0.010238913
0.010319153
0.010390744
0.010451713
0.010503229
0.010544113
0.010558643
0.00014516099
0.00014532623
0.00014549607
0.00014566069
0.00014581174
0.00014594224
0.00014604828
0.00014612894
0.000146185
0.00014621801
0.0001462299
0.00014622268
0.00014619834
0.0001461587
0.0001461054
0.00014603991
0.00014596349
0.00014587723
0.00014578207
0.0001456788
0.00014556806
0.00014545041
0.00014532624
0.00014519584
0.00014505941
0.00014491702
0.00014476867
0.00014461427
0.00014445363
0.00014428649
0.00014411254
0.00014393135
0.00014374247
0.00014354536
0.00014333942
0.000143124
0.00014289842
0.00014266196
0.00014241388
0.00014215346
0.00014188003
0.00014159304
0.00014129212
0.00014097717
0.00014064864
0.00014030762
0.00013995639
0.00013959898
0.00013924093
0.00013889456
0.00013857462
0.00013830532
0.00013813486
0.00013813468
0.00013846417
0.00013934918
0.00014137248
0.00014557176
0.00015456204
0.00017373964
0.00021497275
0.00030127542
0.00046064284
0.00071198963
0.0010602465
0.0014896516
0.0019720301
0.0024802758
0.0029947869
0.0035028079
0.0039962216
0.0044700351
0.0049213718
0.0053487778
0.0057517548
0.0061304382
0.0064853769
0.0068173849
0.0071274474
0.0074166618
0.0076862006
0.0079372835
0.008171154
0.0083890545
0.008592204
0.0087817743
0.0089588689
0.0091245013
0.0092795704
0.0094248409
0.0095608987
0.0096881605
0.0098067462
0.009916696
0.010017413
0.010108876
0.010189308
0.010259815
0.010318079
0.010358743
0.00014516243
0.0001452961
0.00014543358
0.00014556745
0.00014569102
0.00014579826
0.0001458854
0.0001459511
0.0001459955
0.00014601952
0.0001460245
0.000146012
0.0001459836
0.00014594083
0.00014588508
0.00014581763
0.0001457396
0.00014565197
0.00014555558
0.00014545117
0.00014533933
0.00014522059
0.00014509533
0.00014496386
0.0001448264
0.00014468307
0.00014453394
0.000144379
0.00014421815
0.00014405126
0.00014387814
0.00014369852
0.00014351208
0.00014331844
0.00014311719
0.00014290783
0.00014268983
0.00014246259
0.00014222549
0.00014197786
0.00014171903
0.00014144831
0.00014116508
0.00014086878
0.00014055902
0.0001402357
0.0001398991
0.00013955029
0.00013919092
0.00013882488
0.00013845741
0.00013809897
0.00013776301
0.00013747148
0.00013726571
0.00013720775
0.00013742559
0.00013812286
0.00013976592
0.00014325723
0.00015061399
0.00016643763
0.00020022813
0.00027296678
0.00041277806
0.00064033799
0.0009641364
0.0013716795
0.0018361509
0.0023302277
0.0028336082
0.003332933
0.0038196415
0.0042884042
0.0047360806