/*--------------------------------*- C++ -*----------------------------------*\
| =========                 |                                                 |
| \\      /  F ield         | OpenFOAM: The Open Source CFD Toolbox           |
|  \\    /   O peration     | Version:  2206                                  |
|   \\  /    A nd           | Website:  www.openfoam.com                      |
|    \\/     M anipulation  |                                                 |
\*---------------------------------------------------------------------------*/
FoamFile
{
    version     2.0;
    format      ascii;
    arch        "LSB;label=32;scalar=64";
    class       volScalarField;
    location    "400";
    object      nut;
}
// * * * * * * * * * * * * * * * * * * * * * * * * * * * * * * * * * * * * * //

dimensions      [0 2 -1 0 0 0 0];

internalField   nonuniform List<scalar> 
7480
(
1.613735e-05
2.2439361e-05
2.3612619e-05
2.2657769e-05
2.1070572e-05
1.9602036e-05
1.8471416e-05
1.7611644e-05
1.6922554e-05
1.6339953e-05
1.5834901e-05
1.5395568e-05
1.5014537e-05
1.4684743e-05
1.4399359e-05
1.4151694e-05
1.3936564e-05
1.374982e-05
1.3586746e-05
1.3444571e-05
1.3318633e-05
1.3205965e-05
1.310395e-05
1.3010524e-05
1.2924314e-05
1.2844136e-05
1.2769207e-05
1.2698694e-05
1.2631835e-05
1.2568002e-05
1.2506855e-05
1.2448164e-05
1.2391667e-05
1.2337149e-05
1.2284345e-05
1.2233181e-05
1.2183233e-05
1.2134469e-05
1.2086797e-05
1.2040073e-05
1.1994193e-05
1.1949068e-05
1.1904631e-05
1.1860845e-05
1.1817651e-05
1.1775022e-05
1.1732908e-05
1.1691251e-05
1.1650023e-05
1.1609194e-05
1.156874e-05
1.1528651e-05
1.1488908e-05
1.1449502e-05
1.1410418e-05
1.1371643e-05
1.133317e-05
1.129498e-05
1.1257058e-05
1.1219397e-05
1.1181996e-05
1.1144856e-05
1.110797e-05
1.1071332e-05
1.103494e-05
1.0998792e-05
1.0962878e-05
1.0927195e-05
1.0891741e-05
1.0856517e-05
1.0821522e-05
1.0786753e-05
1.0752208e-05
1.0717884e-05
1.068377e-05
1.0649854e-05
1.0616126e-05
1.0582575e-05
1.0549195e-05
1.0515977e-05
1.0482913e-05
1.0449986e-05
1.0417173e-05
1.0384436e-05
1.035172e-05
1.0318941e-05
1.0285992e-05
1.0252718e-05
1.0218931e-05
1.0184368e-05
1.0148743e-05
1.0111616e-05
1.0072668e-05
1.0031056e-05
9.9868319e-06
9.9377901e-06
9.8859212e-06
9.823527e-06
9.7661638e-06
9.6555254e-06
1.6583118e-06
5.137831e-06
8.7834802e-06
1.1678126e-05
1.3401357e-05
1.4478225e-05
1.5234624e-05
1.5806534e-05
1.6218574e-05
1.6513924e-05
1.6738123e-05
1.6923804e-05
1.7088512e-05
1.7240084e-05
1.7383539e-05
1.7511147e-05
1.7633455e-05
1.7757241e-05
1.788208e-05
1.800295e-05
1.8116803e-05
1.8220789e-05
1.8313382e-05
1.8395155e-05
1.8467932e-05
1.8532246e-05
1.8590272e-05
1.8640348e-05
1.8682099e-05
1.8715912e-05
1.8743257e-05
1.8764992e-05
1.878155e-05
1.8793375e-05
1.8800178e-05
1.8803272e-05
1.8800673e-05
1.8794382e-05
1.8784569e-05
1.8771104e-05
1.8754093e-05
1.873378e-05
1.8710466e-05
1.8684363e-05
1.8655607e-05
1.8624503e-05
1.8591043e-05
1.8555321e-05
1.8517484e-05
1.8477665e-05
1.8436048e-05
1.8392749e-05
1.8347899e-05
1.8301617e-05
1.8253972e-05
1.8205093e-05
1.8155051e-05
1.8103898e-05
1.8051675e-05
1.7998472e-05
1.7944403e-05
1.7889541e-05
1.7833942e-05
1.7777662e-05
1.7720774e-05
1.7663327e-05
1.7605353e-05
1.7546901e-05
1.7488034e-05
1.7428808e-05
1.7369267e-05
1.7309452e-05
1.72494e-05
1.7189138e-05
1.7128668e-05
1.7067994e-05
1.7007129e-05
1.6946095e-05
1.6884922e-05
1.6823639e-05
1.6762265e-05
1.67008e-05
1.6639211e-05
1.6577423e-05
1.6515303e-05
1.6452649e-05
1.6389169e-05
1.6324473e-05
1.6258033e-05
1.6189225e-05
1.6117192e-05
1.6041148e-05
1.5959716e-05
1.5872529e-05
1.5776939e-05
1.5675307e-05
1.5561011e-05
1.5443702e-05
1.5322065e-05
1.5099358e-05
3.9839766e-07
4.5507344e-07
9.352079e-07
2.211034e-06
4.1422599e-06
6.4115091e-06
8.5179275e-06
1.0331341e-05
1.2013875e-05
1.3632832e-05
1.5180659e-05
1.6638937e-05
1.8000142e-05
1.9270939e-05
2.0463198e-05
2.1603421e-05
2.2692946e-05
2.3725965e-05
2.4698812e-05
2.5609899e-05
2.6459922e-05
2.7249718e-05
2.7978972e-05
2.8653548e-05
2.9278191e-05
2.9853791e-05
3.0394825e-05
3.0893211e-05
3.1352439e-05
3.1774536e-05
3.2165037e-05
3.2526474e-05
3.286083e-05
3.3170278e-05
3.345457e-05
3.3719042e-05
3.3956796e-05
3.4177113e-05
3.4378736e-05
3.456209e-05
3.4728222e-05
3.4878282e-05
3.5013422e-05
3.5134616e-05
3.5242605e-05
3.5338594e-05
3.5422755e-05
3.5495714e-05
3.5558139e-05
3.5610636e-05
3.5653908e-05
3.5688486e-05
3.5714939e-05
3.5733776e-05
3.574535e-05
3.5750172e-05
3.5748588e-05
3.5740874e-05
3.5727265e-05
3.570814e-05
3.5683915e-05
3.5654905e-05
3.5621353e-05
3.5583523e-05
3.5541696e-05
3.5496097e-05
3.5446888e-05
3.539428e-05
3.5338519e-05
3.5279822e-05
3.5218377e-05
3.515435e-05
3.508791e-05
3.5019192e-05
3.4948269e-05
3.4875214e-05
3.4800126e-05
3.4723135e-05
3.4644385e-05
3.4564027e-05
3.4482185e-05
3.4398942e-05
3.4314302e-05
3.4228179e-05
3.4140352e-05
3.4050456e-05
3.3957925e-05
3.3861992e-05
3.3761592e-05
3.3655484e-05
3.3541901e-05
3.3419386e-05
3.328498e-05
3.3138687e-05
3.2974219e-05
3.2799647e-05
3.2597441e-05
3.2399311e-05
3.2185279e-05
3.1807211e-05
5.3592334e-06
9.6103543e-07
3.8209626e-07
3.6430979e-07
5.6188418e-07
9.2030463e-07
1.7882679e-06
3.1760891e-06
4.8756886e-06
6.6201076e-06
8.372107e-06
1.025607e-05
1.228174e-05
1.4411371e-05
1.6586104e-05
1.8752914e-05
2.0873687e-05
2.2927409e-05
2.4906284e-05
2.6806885e-05
2.8625346e-05
3.0357899e-05
3.2004898e-05
3.3564932e-05
3.5039889e-05
3.6428887e-05
3.7736709e-05
3.8968217e-05
4.012599e-05
4.1217147e-05
4.224479e-05
4.3213011e-05
4.4125642e-05
4.4987532e-05
4.5799202e-05
4.6569591e-05
4.7277412e-05
4.7952309e-05
4.8582013e-05
4.9171391e-05
4.9722644e-05
5.0237978e-05
5.071954e-05
5.1169251e-05
5.1588664e-05
5.1980346e-05
5.2344318e-05
5.2682268e-05
5.2995519e-05
5.3285353e-05
5.3553217e-05
5.3800228e-05
5.4027649e-05
5.4236556e-05
5.4427741e-05
5.4602341e-05
5.4761102e-05
5.4904664e-05
5.5033573e-05
5.5148694e-05
5.5250916e-05
5.534094e-05
5.541932e-05
5.5486682e-05
5.5543649e-05
5.5590737e-05
5.5628328e-05
5.5656918e-05
5.5677053e-05
5.5689213e-05
5.5693826e-05
5.5691286e-05
5.568199e-05
5.5666281e-05
5.5644363e-05
5.5616454e-05
5.5582817e-05
5.5543769e-05
5.5499665e-05
5.5450869e-05
5.5397715e-05
5.5340459e-05
5.5279233e-05
5.5214017e-05
5.5144571e-05
5.5070417e-05
5.4990761e-05
5.4904483e-05
5.4810004e-05
5.4705473e-05
5.4588248e-05
5.44562e-05
5.4304945e-05
5.4134806e-05
5.3936464e-05
5.3723192e-05
5.3468464e-05
5.3223448e-05
5.2953515e-05
5.2487221e-05
4.165274e-05
1.4110851e-05
4.1239277e-06
1.6105814e-06
8.5354352e-07
5.9056448e-07
5.4023326e-07
6.5137037e-07
8.8841053e-07
1.4416885e-06
2.3769569e-06
3.5498137e-06
4.9975394e-06
6.6360745e-06
8.5159273e-06
1.0678121e-05
1.3100833e-05
1.5721104e-05
1.8455993e-05
2.1224695e-05
2.3967308e-05
2.6649936e-05
2.9257975e-05
3.1782925e-05
3.4217309e-05
3.6553714e-05
3.8789318e-05
4.0924888e-05
4.2965314e-05
4.4912667e-05
4.6768343e-05
4.8535243e-05
5.021624e-05
5.181311e-05
5.3330356e-05
5.4776566e-05
5.6143967e-05
5.7443679e-05
5.8677859e-05
5.9847182e-05
6.0954219e-05
6.2002484e-05
6.2994852e-05
6.3933932e-05
6.4821985e-05
6.5663746e-05
6.6458659e-05
6.7208825e-05
6.7915835e-05
6.8581775e-05
6.9208963e-05
6.9799067e-05
7.0353904e-05
7.0875254e-05
7.1364667e-05
7.1824134e-05
7.2254743e-05
7.265756e-05
7.3033495e-05
7.3384106e-05
7.3710847e-05
7.4014867e-05
7.4297108e-05
7.4558679e-05
7.4800644e-05
7.5023875e-05
7.5229035e-05
7.5417013e-05
7.5588748e-05
7.5745057e-05
7.5886691e-05
7.6014347e-05
7.6128757e-05
7.6230545e-05
7.6320105e-05
7.6397865e-05
7.6464318e-05
7.6520041e-05
7.6565677e-05
7.6601896e-05
7.6629329e-05
7.6648504e-05
7.6659775e-05
7.6663268e-05
7.6658804e-05
7.6645857e-05
7.6623457e-05
7.6590175e-05
7.654395e-05
7.6482334e-05
7.6401851e-05
7.6299682e-05
7.6170167e-05
7.6013794e-05
7.5818763e-05
7.5602614e-05
7.5331498e-05
7.5072362e-05
7.4778079e-05
7.4279813e-05
7.2168826e-05
5.5409974e-05
3.1044493e-05
1.53016e-05
7.6992791e-06
4.194604e-06
2.506227e-06
1.6369174e-06
1.1726514e-06
9.4891942e-07
9.0507007e-07
1.0024626e-06
1.232365e-06
1.7638929e-06
2.5817746e-06
3.6929838e-06
5.1598858e-06
6.9344248e-06
9.0766883e-06
1.1605781e-05
1.4479621e-05
1.7608046e-05
2.0881908e-05
2.4202506e-05
2.750219e-05
3.0744403e-05
3.3910967e-05
3.6989523e-05
3.9970916e-05
4.2849368e-05
4.562254e-05
4.8290343e-05
5.0853312e-05
5.3311938e-05
5.5668011e-05
5.7927155e-05
6.0088063e-05
6.2155079e-05
6.4131936e-05
6.6021441e-05
6.7826541e-05
6.9549454e-05
7.1192931e-05
7.2760027e-05
7.4252382e-05
7.5673516e-05
7.7026632e-05
7.8314511e-05
7.9540159e-05
8.0705992e-05
8.1814163e-05
8.2866525e-05
8.3865514e-05
8.4813484e-05
8.5712762e-05
8.6566312e-05
8.7375218e-05
8.8141026e-05
8.8865654e-05
8.9551129e-05
9.0199099e-05
9.081115e-05
9.1388634e-05
9.1932976e-05
9.2445981e-05
9.2928968e-05
9.3382887e-05
9.3809133e-05
9.4209094e-05
9.4583952e-05
9.4934838e-05
9.5262819e-05
9.5569046e-05
9.5854485e-05
9.6119749e-05
9.6365537e-05
9.6592627e-05
9.6801908e-05
9.6994372e-05
9.7171067e-05
9.7333005e-05
9.7481073e-05
9.7615934e-05
9.7737954e-05
9.78471e-05
9.7942877e-05
9.802421e-05
9.8089417e-05
9.8136008e-05
9.8160971e-05
9.8160044e-05
9.8129704e-05
9.806312e-05
9.7960756e-05
9.7808701e-05
9.7627709e-05
9.7377719e-05
9.7137992e-05
9.6847235e-05
9.6365874e-05
7.8211655e-05
7.5498291e-05
6.6080557e-05
5.122847e-05
3.5611365e-05
2.3580866e-05
1.5402577e-05
1.0137015e-05
6.7875189e-06
4.6187385e-06
3.2346716e-06
2.3305666e-06
1.7545752e-06
1.4332912e-06
1.3061564e-06
1.3440445e-06
1.5348872e-06
2.0434435e-06
2.8627801e-06
4.042585e-06
5.6718558e-06
7.713562e-06
1.0241215e-05
1.3243711e-05
1.6644435e-05
2.0318708e-05
2.413352e-05
2.7983198e-05
3.1804201e-05
3.5565095e-05
3.924792e-05
4.2838277e-05
4.6325311e-05
4.9702939e-05
5.2968394e-05
5.6122199e-05
5.9163138e-05
6.2092061e-05
6.4911147e-05
6.7622603e-05
7.0228799e-05
7.2731951e-05
7.5134462e-05
7.7439135e-05
7.9648145e-05
8.176444e-05
8.3791206e-05
8.5731501e-05
8.7588513e-05
8.9365172e-05
9.1064109e-05
9.2688504e-05
9.4240559e-05
9.572267e-05
9.7137444e-05
9.8486507e-05
9.9773172e-05
0.0001010001
0.00010216999
0.00010328477
0.00010434648
0.00010535714
0.00010631844
0.00010723246
0.00010810157
0.00010892731
0.00010971091
0.00011045434
0.00011115929
0.00011182752
0.00011246073
0.00011306054
0.00011362819
0.00011416487
0.00011467165
0.00011514955
0.00011559967
0.00011602325
0.00011642166
0.00011679638
0.00011714888
0.00011748048
0.00011779222
0.00011808482
0.00011835847
0.0001186128
0.0001188467
0.00011905832
0.0001192448
0.00011940261
0.00011952674
0.00011961297
0.00011965333
0.00011964804
0.00011958127
0.0001194759
0.00011928628
0.00011910112
0.00011884051
0.00011842063
7.9159347e-05
7.9434879e-05
7.7943638e-05
7.3412604e-05
6.5495452e-05
5.5223426e-05
4.4525834e-05
3.4700704e-05
2.642637e-05
1.9826054e-05
1.4735512e-05
1.0885269e-05
7.9581649e-06
5.8300369e-06
4.2698829e-06
3.1695683e-06
2.4137034e-06
1.9571443e-06
1.7344596e-06
1.719321e-06
1.9025273e-06
2.466233e-06
3.396488e-06
4.7885309e-06
6.7237091e-06
9.2022175e-06
1.2267614e-05
1.5865955e-05
1.9868658e-05
2.4116051e-05
2.8466734e-05
3.2827136e-05
3.7147842e-05
4.1401982e-05
4.5569429e-05
4.9635405e-05
5.359043e-05
5.7429537e-05
6.1150228e-05
6.4751282e-05
6.8232748e-05
7.1595411e-05
7.484045e-05
7.7969627e-05
8.098473e-05
8.3887991e-05
8.6682061e-05
8.9369755e-05
9.195408e-05
9.4438026e-05
9.6824404e-05
9.9116339e-05
0.00010131653
0.00010342763
0.00010545245
0.00010739321
0.00010925298
0.00011103476
0.00011274157
0.00011437595
0.00011594035
0.00011743718
0.00011886909
0.00012023808
0.00012154586
0.0001227949
0.00012398793
0.00012512681
0.00012621357
0.00012725032
0.0001282392
0.00012918223
0.00013008112
0.0001309375
0.00013175267
0.00013252801
0.00013326496
0.00013396509
0.00013463023
0.00013526229
0.00013586324
0.0001364349
0.00013697878
0.00013749601
0.0001379871
0.00013845189
0.00013888934
0.0001392975
0.00013967323
0.00014001251
0.00014030963
0.00014055961
0.00014075339
0.00014089063
0.00014095359
0.00014096619
0.00014087751
0.00014078345
0.00014057951
0.00014026289
7.9699392e-05
8.0197644e-05
8.0400688e-05
7.9699428e-05
7.7551337e-05
7.3602927e-05
6.794901e-05
6.1023727e-05
5.3417232e-05
4.5711887e-05
3.8346414e-05
3.1598053e-05
2.5617052e-05
2.0457444e-05
1.6090308e-05
1.2461911e-05
9.4967965e-06
7.155965e-06
5.3612962e-06
4.0326096e-06
3.0851211e-06
2.4969718e-06
2.1958907e-06
2.1533628e-06
2.4188675e-06
3.1275471e-06
4.3166235e-06
6.1210382e-06
8.5498555e-06
1.1667292e-05
1.5441299e-05
1.9745059e-05
2.4396304e-05
2.9220319e-05
3.4094029e-05
3.8949718e-05
4.375093e-05
4.8472003e-05
5.309342e-05
5.7602812e-05
6.1993302e-05
6.6260613e-05
7.0402023e-05
7.4416468e-05
7.8303844e-05
8.206475e-05
8.5700524e-05
8.9213027e-05
9.2604512e-05
9.5877487e-05
9.9034491e-05
0.00010207833
0.00010501175
0.00010783742
0.00011055817
0.00011317648
0.00011569529
0.00011811765
0.00012044672
0.00012268543
0.00012483652
0.0001269027
0.00012888681
0.00013079136
0.00013261853
0.00013437091
0.00013605142
0.00013766247
0.00013920648
0.00014068591
0.00014210328
0.00014346104
0.00014476136
0.00014600603
0.00014719696
0.00014833578
0.00014942423
0.00015046427
0.00015145811
0.00015240816
0.00015331689
0.00015418666
0.00015501953
0.00015581709
0.00015658028
0.00015730923
0.00015800306
0.0001586598
0.00015927609
0.00015984748
0.00016036759
0.0001608306
0.00016122627
0.0001615534
0.0001617922
0.00016196654
0.00016202026
0.00016205495
0.00016193491
0.00016176185
8.0432853e-05
8.0785069e-05
8.1088251e-05
8.1177988e-05
8.0849562e-05
7.9820431e-05
7.78816e-05
7.4934599e-05
7.100857e-05
6.6235337e-05
6.0824456e-05
5.5007147e-05
4.9013439e-05
4.3037103e-05
3.7231296e-05
3.1722376e-05
2.6596598e-05
2.1916368e-05
1.7732004e-05
1.4071633e-05
1.0938677e-05
8.3677891e-06
6.3294396e-06
4.7765014e-06
3.6752768e-06
2.9900666e-06
2.667822e-06
2.6675314e-06
3.1747476e-06
4.1988628e-06
5.8802753e-06
8.3047941e-06
1.1505628e-05
1.547829e-05
2.0095034e-05
2.5150537e-05
3.0439462e-05
3.5813589e-05
4.1189412e-05
4.6521433e-05
5.1778426e-05
5.6937187e-05
6.1982731e-05
6.6906077e-05
7.1701267e-05
7.6364463e-05
8.08938e-05
8.5288729e-05
8.954961e-05
9.3677553e-05
9.7674093e-05
0.00010154121
0.00010528113
0.00010889616
0.00011238883
0.00011576156
0.00011901703
0.00012215813
0.00012518797
0.00012810955
0.0001309258
0.00013363955
0.00013625378
0.00013877128
0.00014119459
0.00014352645
0.00014576989
0.00014792771
0.00015000265
0.00015199749
0.00015391505
0.00015575817
0.00015752941
0.00015923096
0.00016086502
0.00016243355
0.0001639386
0.00016538248
0.00016676779
0.00016809739
0.00016937428
0.00017060138
0.00017178133
0.00017291626
0.00017400759
0.00017505585
0.00017606041
0.00017701936
0.00017792917
0.00017878503
0.00017957986
0.00018030692
0.00018095467
0.00018152061
0.00018198265
0.00018236361
0.00018260197
0.00018280402
0.0001827965
0.00018280724
8.1357156e-05
8.1581582e-05
8.1777221e-05
8.1885979e-05
8.1863957e-05
8.1634641e-05
8.1091595e-05
8.0120619e-05
7.8617266e-05
7.6508333e-05
7.3777399e-05
7.0452438e-05
6.6597606e-05
6.2298932e-05
5.7652682e-05
5.2757496e-05
4.7716452e-05
4.2622793e-05
3.7558051e-05
3.2609487e-05
2.7833023e-05
2.3312632e-05
1.9123841e-05
1.5329871e-05
1.1999834e-05
9.2017535e-06
6.9577583e-06
5.2413412e-06
4.0853953e-06
3.4101871e-06
3.1648419e-06
3.4511034e-06
4.3511903e-06
5.9759769e-06
8.4535397e-06
1.1806021e-05
1.6041838e-05
2.1020507e-05
2.6508703e-05
3.2273167e-05
3.8147254e-05
4.4037249e-05
4.9890812e-05
5.5671723e-05
6.1353786e-05
6.6920168e-05
7.2360317e-05
7.7667156e-05
8.283624e-05
8.7865219e-05
9.2753058e-05
9.7499772e-05
0.00010210614
0.00010657342
0.00011090327
0.00011509756
0.00011915844
0.00012308836
0.00012689007
0.00013056641
0.00013412021
0.00013755428
0.00014087157
0.00014407499
0.00014716727
0.00015015123
0.00015302996
0.00015580647
0.00015848372
0.00016106475
0.00016355262
0.00016595045
0.00016826116
0.00017048731
0.00017263135
0.00017469557
0.00017668229
0.00017859411
0.000180434
0.00018220524
0.00018391135
0.0001855558
0.00018714183
0.00018867217
0.00019014879
0.00019157268
0.00019294355
0.00019425962
0.00019551731
0.00019671142
0.00019783417
0.00019887781
0.00019982924
0.00020068427
0.00020141814
0.00020205162
0.00020251764
0.00020292676
0.0002030623
0.00020329837
8.2449826e-05
8.2576606e-05
8.2677559e-05
8.271474e-05
8.2677425e-05
8.2558665e-05
8.2337922e-05
8.1975137e-05
8.1412323e-05
8.0582162e-05
7.9422576e-05
7.7886048e-05
7.5944567e-05
7.3590626e-05
7.0834601e-05
6.7704062e-05
6.4222673e-05
6.0416569e-05
5.632826e-05
5.2007678e-05
4.7498188e-05
4.2844906e-05
3.8130726e-05
3.3407304e-05
2.8735153e-05
2.4196878e-05
1.9894937e-05
1.5912282e-05
1.2401439e-05
9.4510316e-06
7.0934563e-06
5.3966617e-06
4.3228537e-06
3.8091112e-06
3.9068101e-06
4.7351012e-06
6.3842261e-06
8.9985562e-06
1.2603852e-05
1.7199933e-05
2.261575e-05
2.8583145e-05
3.4845863e-05
4.1228358e-05
4.7633116e-05
5.4003449e-05
6.0299675e-05
6.6494141e-05
7.2569139e-05
7.8513097e-05
8.4318218e-05
8.9979689e-05
9.5494776e-05
0.0001008621
0.00010608134
0.00011115291
0.00011607779
0.0001208575
0.00012549403
0.00012998962
0.00013434671
0.00013856782
0.00014265568
0.00014661306
0.00015044272
0.00015414745
0.00015773026
0.00016119423
0.00016454243
0.00016777802
0.00017090424
0.00017392439
0.00017684167
0.00017965894
0.00018237891
0.00018500411
0.0001875371
0.00018998075
0.00019233832
0.00019461347
0.00019681018
0.00019893247
0.00020098419
0.00020296869
0.00020488854
0.00020674526
0.00020853897
0.00021026815
0.00021192917
0.00021351652
0.00021502166
0.00021643568
0.00021774372
0.00021893939
0.00021999483
0.00022092786
0.00022166562
0.00022232283
0.0002226344
0.00022313986
8.3696041e-05
8.3745897e-05
8.3773062e-05
8.3748477e-05
8.3664514e-05
8.3524969e-05
8.3334939e-05
8.3092391e-05
8.2783014e-05
8.2379888e-05
8.184699e-05
8.1144176e-05
8.0232099e-05
7.9076373e-05
7.7650083e-05
7.5936602e-05
7.3925696e-05
7.1610913e-05
6.8992703e-05
6.6079308e-05
6.2883278e-05
5.9422525e-05
5.5680879e-05
5.1677276e-05
4.7434591e-05
4.2983624e-05
3.8376265e-05
3.3663273e-05
2.891875e-05
2.4249327e-05
1.9757934e-05
1.5622156e-05
1.2011338e-05
9.0265875e-06
6.7886638e-06
5.3149125e-06
4.5374179e-06
4.5051277e-06
5.3292662e-06
7.107669e-06
9.9708342e-06
1.3960949e-05
1.9039117e-05
2.4981725e-05
3.1481617e-05
3.8269563e-05
4.5173053e-05
5.2096827e-05
5.8982113e-05
6.5787699e-05
7.2486067e-05
7.9059521e-05
8.5496118e-05
9.1787837e-05
9.7929628e-05
0.00010391841
0.00010975257
0.00011543162
0.00012095594
0.00012632654
0.00013154493
0.00013661292
0.00014153265
0.00014630652
0.000150937
0.00015542669
0.00015977837
0.00016399499
0.00016807958
0.00017203529
0.00017586542
0.00017957336
0.00018316245
0.00018663581
0.00018999633
0.00019324675
0.00019638982
0.00019942859
0.00020236656
0.00020520771
0.00020795642
0.00021061722
0.00021319453
0.00021569235
0.00021811389
0.00022046127
0.0002227351
0.00022493415
0.00022705486
0.0002290914
0.0002310345
0.00023287388
0.0002345927
0.00023618184
0.0002376099
0.00023889084
0.00023994583
0.00024089384
0.00024141729
0.00024223976
8.5083657e-05
8.5072207e-05
8.5040538e-05
8.4966885e-05
8.4843934e-05
8.4674272e-05
8.4465376e-05
8.4224442e-05
8.3954014e-05
8.364994e-05
8.3301068e-05
8.2889926e-05
8.2394132e-05
8.178832e-05
8.1046203e-05
8.0142859e-05
7.9055936e-05
7.7765627e-05
7.6255013e-05
7.4511014e-05
7.2524158e-05
7.0291244e-05
6.7800892e-05
6.5044559e-05
6.2017285e-05
5.8721801e-05
5.5143892e-05
5.1258936e-05
4.7078126e-05
4.2622724e-05
3.7929297e-05
3.3064514e-05
2.8129231e-05
2.3234712e-05
1.8576601e-05
1.439029e-05
1.0837004e-05
8.1133823e-06
6.2851097e-06
5.2872025e-06
5.2247907e-06
6.1424649e-06
8.1908552e-06
1.1445192e-05
1.5978866e-05
2.1673488e-05
2.8233109e-05
3.5315143e-05
4.2653345e-05
5.0089907e-05
5.7536199e-05
6.4934219e-05
7.2243914e-05
7.9439045e-05
8.6502225e-05
9.3421575e-05
0.00010018924
0.00010680014
0.0001132512
0.00011954081
0.00012566848
0.00013163453
0.00013743995
0.00014308622
0.00014857514
0.00015390879
0.00015908949
0.00016411982
0.00016900257
0.0001737407
0.0001783374
0.00018279603
0.00018711996
0.00019131244
0.00019537648
0.00019931495
0.00020313074
0.00020682701
0.00021040741
0.00021387616
0.00021723796
0.0002204978
0.00022366064
0.00022673111
0.00022971308
0.00023260932
0.00023542098
0.00023814726
0.0002407847
0.00024332722
0.00024576475
0.00024808556
0.00025027054
0.00025230735
0.00025416056
0.00025583946
0.00025725902
0.0002585427
0.00025931712
0.00026050868
8.6602356e-05
8.6541692e-05
8.6462558e-05
8.6349125e-05
8.6194795e-05
8.6000402e-05
8.5771525e-05
8.5515281e-05
8.5237484e-05
8.4941216e-05
8.4626264e-05
8.428877e-05
8.3921075e-05
8.3511888e-05
8.3046842e-05
8.2509366e-05
8.1881599e-05
8.114514e-05
8.0281617e-05
7.9273314e-05
7.8103487e-05
7.6757761e-05
7.5222088e-05
7.3482346e-05
7.1524605e-05
6.9338019e-05
6.6909359e-05
6.4217584e-05
6.1243654e-05
5.7978292e-05
5.4388426e-05
5.0438141e-05
4.6131189e-05
4.1471333e-05
3.6520468e-05
3.1376921e-05
2.6150827e-05
2.1058362e-05
1.6386973e-05
1.2346341e-05
9.2373961e-06
7.1462445e-06
6.0163022e-06
6.0747033e-06
7.2302296e-06
9.7287532e-06
1.357971e-05
1.8826962e-05
2.525534e-05
3.2495633e-05
4.0190159e-05
4.8095487e-05
5.6074721e-05
6.4046299e-05
7.1955083e-05
7.976424e-05
8.7449532e-05
9.499439e-05
0.00010238753
0.00010962145
0.00011669131
0.00012359425
0.00013032883
0.00013689468
0.0001432922
0.00014952234
0.00015558656
0.00016148671
0.00016722501
0.00017280401
0.00017822655
0.00018349576
0.00018861491
0.0001935872
0.0001984157
0.00020310331
0.00020765296
0.00021206785
0.0002163517
0.00022050885
0.00022454424
0.00022846324
0.0002322713
0.00023597364
0.00023957481
0.00024307825
0.00024648574
0.00024979695
0.00025300864
0.00025611453
0.00025910378
0.00026196307
0.00026467081
0.00026721094
0.0002695436
0.00027167254
0.00027350635
0.0002751732
0.00027624125
0.0002778592
8.8243263e-05
8.814275e-05
8.8025029e-05
8.7878952e-05
8.7698826e-05
8.7484361e-05
8.7239318e-05
8.6969275e-05
8.6679567e-05
8.6374353e-05
8.6056369e-05
8.5726723e-05
8.5384626e-05
8.5027143e-05
8.4649097e-05
8.4243132e-05
8.3799859e-05
8.3308132e-05
8.2755394e-05
8.2128047e-05
8.1411736e-05
8.0591906e-05
7.9654001e-05
7.8583349e-05
7.736492e-05
7.598398e-05
7.4425939e-05
7.267437e-05
7.071036e-05
6.8516811e-05
6.6071275e-05
6.3341989e-05
6.0298795e-05
5.692394e-05
5.3145041e-05
4.8941116e-05
4.4301895e-05
3.9259975e-05
3.3923943e-05
2.8396743e-05
2.293158e-05
1.785896e-05
1.3425434e-05
1.0072135e-05
7.8450105e-06
6.7466974e-06
7.0433768e-06
8.6818748e-06
1.1826055e-05
1.6510874e-05
2.2654258e-05
2.9918621e-05
3.7882375e-05
4.6207915e-05
5.4691818e-05
6.3219093e-05
7.1715974e-05
8.0132718e-05
8.8436501e-05
9.660517e-05
0.00010462359
0.0001124816
0.00012017247
0.00012769192
0.00013503739
0.00014220761
0.00014920228
0.0001560219
0.00016266762
0.00016914111
0.00017544457
0.00018158061
0.00018755214
0.00019336215
0.00019901358
0.00020450926
0.00020985205
0.00021504509
0.00022009205
0.0002249973
0.00022976591
0.0002344035
0.00023891596
0.00024330904
0.00024758796
0.00025175685
0.00025581818
0.00025977217
0.00026361592
0.00026734301
0.0002709419
0.0002743976
0.0002776859
0.00028078659
0.00028365494
0.0002862884
0.00028858897
0.00029068959
0.00029209781
0.00029420527
8.9998498e-05
8.9865438e-05
8.9716115e-05
8.9543036e-05
8.9341432e-05
8.9110328e-05
8.8852142e-05
8.8571078e-05
8.8271493e-05
8.7957139e-05
8.7631027e-05
8.7295389e-05
8.6951582e-05
8.6599933e-05
8.6239621e-05
8.5868562e-05
8.5483291e-05
8.5078893e-05
8.4649038e-05
8.4186055e-05
8.3681022e-05
8.3123925e-05
8.2503858e-05
8.1809169e-05
8.1027477e-05
8.0145768e-05
7.9150573e-05
7.8027767e-05
7.6761833e-05
7.5336458e-05
7.3733982e-05
7.1933259e-05
6.9908537e-05
6.7637894e-05
6.5081529e-05
6.2196378e-05
5.8947073e-05
5.5272916e-05
5.1116018e-05
4.6446401e-05
4.1281343e-05
3.5739172e-05
2.9907885e-05
2.4120067e-05
1.870825e-05
1.4033819e-05
1.0560741e-05
8.3440731e-06
7.5951683e-06
8.3370657e-06
1.0718725e-05
1.4758743e-05
2.049683e-05
2.7664456e-05
3.5810185e-05
4.4506396e-05
5.346838e-05
6.2535512e-05
7.1610596e-05
8.0629031e-05
8.9548221e-05
9.8339792e-05
0.00010698434
0.00011546862
0.00012378365
0.00013192343
0.00013988413
0.00014766356
0.0001552608
0.00016267593
0.00016990987
0.00017696427
0.00018384128
0.00019054339
0.00019707317
0.00020343319
0.00020962609
0.0002156548
0.00022152283
0.00022723442
0.00023279466
0.00023820931
0.00024348455
0.00024862663
0.00025364138
0.00025853364
0.00026330662
0.00026796117
0.00027249484
0.00027690121
0.00028116812
0.00028527894
0.00028920675
0.00029292684
0.00029638929
0.00029958445
0.0003024075
0.00030499607
0.00030679516
0.00030946161
9.1860982e-05
9.1701138e-05
9.1525742e-05
9.1330148e-05
9.1110463e-05
9.0865331e-05
9.0596191e-05
9.0306172e-05
8.9998761e-05
8.967713e-05
8.9343989e-05
8.9001576e-05
8.8651637e-05
8.8295385e-05
8.7933471e-05
8.7565933e-05
8.7192096e-05
8.6810461e-05
8.6418637e-05
8.6013275e-05
8.5590027e-05
8.5143515e-05
8.4667354e-05
8.4154196e-05
8.3595762e-05
8.2982864e-05
8.2305472e-05
8.1552748e-05
8.0712892e-05
7.9773068e-05
7.8719373e-05
7.753644e-05
7.6206129e-05
7.4709391e-05
7.302289e-05
7.1116976e-05
6.8960531e-05
6.6513141e-05
6.3721802e-05
6.0536137e-05
5.6892447e-05
5.2711517e-05
4.7938209e-05
4.2599518e-05
3.6798673e-05
3.0664278e-05
2.4576771e-05
1.8873704e-05
1.4152197e-05
1.0755654e-05
8.8028507e-06
8.6488184e-06
1.0182684e-05
1.3564858e-05
1.8820848e-05
2.5794663e-05
3.4041682e-05
4.3058873e-05
5.2472359e-05
6.2064503e-05
7.1709416e-05
8.1325713e-05
9.0859577e-05
0.00010027526
0.00010954837
0.00011866218
0.00012760521
0.00013636968
0.00014495053
0.0001533447
0.00016155072
0.00016956838
0.00017739845
0.00018504236
0.00019250191
0.0001997791
0.00020687612
0.00021379548
0.00022054035
0.00022711468
0.00023352338
0.00023977221
0.00024586753
0.00025181598
0.00025762391
0.00026329689
0.00026883887
0.00027425145
0.00027953274
0.00028467649
0.00028967006
0.0002944953
0.00029912259
0.0003035225
0.00030763969
0.00031145664
0.00031486147
0.00031799612
0.00032024115
0.000323543
9.3824554e-05
9.3642315e-05
9.344511e-05
9.3230492e-05
9.2995365e-05
9.2738198e-05
9.2459725e-05
9.216223e-05
9.1848474e-05
9.1521103e-05
9.1182468e-05
9.0834594e-05
9.047916e-05
9.0117496e-05
8.9750594e-05
8.9379123e-05
8.9003391e-05
8.8623293e-05
8.8238261e-05
8.784721e-05
8.7448461e-05
8.7039677e-05
8.6617806e-05
8.6179037e-05
8.5718767e-05
8.5231573e-05
8.4711197e-05
8.4150539e-05
8.3541627e-05
8.2875555e-05
8.2142429e-05
8.1331302e-05
8.0429718e-05
7.9423753e-05
7.8297651e-05
7.703247e-05
7.5606328e-05
7.3993417e-05
7.2160766e-05
7.0070493e-05
6.76773e-05
6.4919614e-05
6.1732036e-05
5.8042945e-05
5.3751982e-05
4.8794767e-05
4.3213477e-05
3.7074311e-05
3.0625692e-05
2.4259519e-05
1.8423767e-05
1.3851276e-05
1.0748814e-05
9.5317769e-06
1.0186194e-05
1.2905419e-05
1.7631509e-05
2.4338526e-05
3.2617901e-05
4.1911505e-05
5.175503e-05
6.1863448e-05
7.2075165e-05
8.228922e-05
9.2439368e-05
0.00010248187
0.00011238704
0.00012213449
0.00013171022
0.0001411047
0.00015031168
0.00015932737
0.00016814983
0.00017677848
0.00018521363
0.00019345613
0.0002015073
0.00020936893
0.00021704353
0.00022453453
0.00023184646
0.00023898485
0.00024595609
0.00025276701
0.00025942446
0.00026593463
0.00027230226
0.00027852977
0.00028461596
0.00029055494
0.00029633383
0.00030193314
0.00030732071
0.00031246232
0.00031729707
0.00032179892
0.00032584857
0.00032959172
0.00033234233
0.00033636337
9.5881972e-05
9.5681018e-05
9.5465557e-05
9.5234837e-05
9.4986467e-05
9.4718888e-05
9.443235e-05
9.4128481e-05
9.3809452e-05
9.347745e-05
9.3134495e-05
9.2782381e-05
9.242264e-05
9.2056533e-05
9.1685073e-05
9.1309047e-05
9.0929022e-05
9.0545333e-05
9.0158073e-05
8.9767078e-05
8.9371879e-05
8.8971666e-05
8.8565223e-05
8.8150888e-05
8.7726486e-05
8.728928e-05
8.6835923e-05
8.6362405e-05
8.5864016e-05
8.5335289e-05
8.4769945e-05
8.4160843e-05
8.3499837e-05
8.2777644e-05
8.1983726e-05
8.1105861e-05
8.0129777e-05
7.903884e-05
7.7812866e-05
7.6427537e-05
7.4853959e-05
7.3055227e-05
7.0986632e-05
6.8595523e-05
6.5810629e-05
6.2552417e-05
5.8735816e-05
5.4235632e-05
4.8998536e-05
4.3073973e-05
3.6540484e-05
2.9784785e-05
2.3172704e-05
1.750698e-05
1.3291248e-05
1.085788e-05
1.0665829e-05
1.2654023e-05
1.6849479e-05
2.3274296e-05
3.1558198e-05
4.1105259e-05
5.1367188e-05
6.198798e-05
7.2766347e-05
8.3580102e-05
9.4349834e-05
0.00010502333
0.0001155654
0.00012595195
0.00013616648
0.00014619782
0.00015603865
0.0001656844
0.00017513245
0.00018438149
0.00019343115
0.00020228191
0.00021093518
0.00021939347
0.00022766059
0.00023574158
0.00024364256
0.00025137041
0.00025893228
0.00026633491
0.00027358381
0.00028068227
0.00028762992
0.00029442144
0.00030104401
0.00030747709
0.00031368627
0.00031963267
0.00032524982
0.00033050261
0.00033526394
0.00033968247
0.000343003
0.00034783491
9.8027339e-05
9.7810417e-05
9.757941e-05
9.7334877e-05
9.7075019e-05
9.6798331e-05
9.6504721e-05
9.6195315e-05
9.5871795e-05
9.5535955e-05
9.5189518e-05
9.4834061e-05
9.4470964e-05
9.4101391e-05
9.3726301e-05
9.3346469e-05
9.2962497e-05
9.2574824e-05
9.2183735e-05
9.1789366e-05
9.1391695e-05
9.0990525e-05
9.058546e-05
9.0175874e-05
8.9760872e-05
8.9339243e-05
8.8909414e-05
8.8469398e-05
8.801674e-05
8.7548465e-05
8.7061017e-05
8.6550203e-05
8.6011118e-05
8.5438054e-05
8.48244e-05
8.4162489e-05
8.3443371e-05
8.265659e-05
8.178975e-05
8.0827963e-05
7.9753425e-05
7.8544256e-05
7.7173347e-05
7.5607853e-05
7.3805811e-05
7.1714694e-05
6.9273756e-05
6.6395234e-05
6.2991614e-05
5.8946652e-05
5.4125409e-05
4.8505544e-05
4.2111217e-05
3.5189826e-05
2.8118514e-05
2.1507999e-05
1.623519e-05
1.2711173e-05
1.1629632e-05
1.284034e-05
1.6508903e-05
2.2630618e-05
3.0895159e-05
4.0678539e-05
5.1352209e-05
6.2485825e-05
7.3834382e-05
8.5252697e-05
9.6647663e-05
0.00010795839
0.00011914414
0.00013017719
0.00014103869
0.00015171585
0.00016220014
0.00017248593
0.00018256964
0.00019244931
0.00020212438
0.00021159583
0.00022086616
0.00022993949
0.00023882132
0.00024751825
0.0002560375
0.00026438621
0.00027257057
0.00028059475
0.00028845934
0.00029615982
0.00030368377
0.00031100997
0.00031810226
0.00032491732