/*--------------------------------*- C++ -*----------------------------------*\
| =========                 |                                                 |
| \\      /  F ield         | OpenFOAM: The Open Source CFD Toolbox           |
|  \\    /   O peration     | Version:  2206                                  |
|   \\  /    A nd           | Website:  www.openfoam.com                      |
|    \\/     M anipulation  |                                                 |
\*---------------------------------------------------------------------------*/
FoamFile
{
    version     2.0;
    format      ascii;
    arch        "LSB;label=32;scalar=64";
    class       volScalarField;
    location    "400";
    object      p;
}
// * * * * * * * * * * * * * * * * * * * * * * * * * * * * * * * * * * * * * //

dimensions      [0 2 -2 0 0 0 0];

internalField   nonuniform List<scalar> 
7480
(
0.063089153
0.052168704
0.036741499
0.027414095
0.022192712
0.019078188
0.017123038
0.015630268
0.014321907
0.013228786
0.012360237
0.011684335
0.011173278
0.010799084
0.010535073
0.010359061
0.010250026
0.010193765
0.010167905
0.010172849
0.010197505
0.01022091
0.010239605
0.010253902
0.010261816
0.010262324
0.010256181
0.010243576
0.010223159
0.010195516
0.010161866
0.010122607
0.010078285
0.010029633
0.0099765483
0.0099193642
0.009858092
0.0097925351
0.0097233502
0.0096508753
0.0095751213
0.0094959797
0.009414002
0.0093293127
0.0092418269
0.0091519757
0.0090596349
0.0089648604
0.0088678819
0.0087684417
0.008666904
0.0085632777
0.0084575374
0.0083498949
0.0082401269
0.0081284609
0.0080148382
0.0078992504
0.007781742
0.0076622153
0.0075408433
0.0074175019
0.0072922916
0.0071651387
0.0070360768
0.0069050893
0.0067721568
0.0066372852
0.0065004706
0.0063617524
0.0062211164
0.0060786233
0.0059342734
0.0057881459
0.0056402405
0.0054906443
0.0053393783
0.0051865732
0.0050322922
0.004876727
0.0047199963
0.0045623638
0.0044040011
0.0042452242
0.0040862785
0.0039274446
0.0037690531
0.0036112471
0.0034544655
0.0032984118
0.0031441149
0.0029895217
0.0028395402
0.002683461
0.0025481989
0.0023803262
0.0023131605
0.0020953895
0.0028134186
-0.0021568714
0.059395848
0.051153034
0.038800019
0.029555843
0.023314071
0.019577794
0.017368761
0.015782939
0.014437599
0.013328448
0.012448878
0.011763599
0.011244147
0.010862018
0.010590467
0.010407602
0.0102927
0.01023075
0.010206726
0.010208765
0.010224947
0.010243805
0.010260165
0.010272395
0.0102785
0.010277461
0.010269972
0.010256161
0.010234676
0.010206106
0.010171644
0.010131654
0.010086676
0.010037432
0.0099838094
0.0099261397
0.0098644299
0.0097984786
0.0097289324
0.0096561266
0.0095800681
0.0095006461
0.0094184108
0.0093334818
0.0092457733
0.0091557152
0.009063181
0.0089682268
0.0088710804
0.0087714827
0.0086697977
0.0085660324
0.0084601613
0.0083523954
0.0082425106
0.0081307345
0.0080170075
0.007901321
0.0077837192
0.007664104
0.0075426477
0.0074192262
0.0072939397
0.0071667144
0.0070375835
0.0069065303
0.0067735353
0.0066386042
0.0065017329
0.0063629605
0.0062222729
0.0060797305
0.0059353335
0.0057891612
0.0056412132
0.0054915765
0.005340272
0.0051874303
0.0050331146
0.0048775163
0.0047207543
0.0045630923
0.0044047018
0.0042458991
0.0040869297
0.0039280745
0.0037696644
0.0036118431
0.0034550496
0.0032989881
0.0031446882
0.0029900967
0.0028401238
0.0026840576
0.0025488208
0.0023809763
0.0023138667
0.0020962709
0.0028142536
-0.0021559193
0.055628336
0.048825681
0.038023319
0.029313042
0.023571556
0.020089968
0.017869238
0.016187561
0.01475792
0.013596792
0.012679886
0.011964604
0.011420812
0.011018204
0.010729321
0.010531946
0.010404207
0.010330708
0.010298283
0.010289151
0.010295344
0.010306738
0.010316594
0.010323073
0.01032417
0.010318866
0.010307669
0.010290457
0.010265932
0.010234724
0.01019796
0.010155901
0.010109068
0.010058146
0.010003009
0.0099439447
0.0098809763
0.0098139181
0.0097433408
0.009669593
0.0095926722
0.0095124598
0.0094295031
0.0093439075
0.0092555837
0.0091649576
0.0090718937
0.00897645
0.0088788499
0.0087788289
0.0086767513
0.0085726188
0.0084664044
0.008358317
0.00824813
0.0081360708
0.0080220773
0.0079061399
0.007788302
0.0076684642
0.0075467983
0.0074231782
0.0072977043
0.0071703016
0.0070410029
0.0069097907
0.006776645
0.0066415712
0.0065045646
0.0063656637
0.0062248539
0.0060821955
0.0059376883
0.0057914114
0.0056433642
0.0054936335
0.00534224
0.0051893142
0.0050349188
0.0048792453
0.0047224121
0.004564683
0.0044062297
0.0042473685
0.0040883453
0.0039294415
0.0037709885
0.0036131306
0.003456308
0.0033002253
0.0031459145
0.0029913208
0.002841362
0.0026853157
0.002550133
0.0023823355
0.0023153653
0.0020978976
0.0028162733
-0.0021545264
0.052740984
0.047092523
0.037752287
0.029615453
0.024144657
0.020643707
0.018329461
0.016596912
0.015135983
0.013943385
0.012992059
0.012243233
0.011669573
0.011240871
0.010928839
0.0107107
0.010563707
0.010472914
0.010425117
0.010402907
0.010398077
0.010399626
0.010400829
0.010399685
0.010393909
0.010382537
0.010365971
0.010343835
0.010314877
0.010279789
0.010239578
0.01019438
0.010144716
0.010091225
0.010033765
0.0099724719
0.0099074908
0.0098386905
0.0097664405
0.0096911719
0.009612859
0.0095313663
0.0094472399
0.0093605623
0.0092712406
0.0091796923
0.0090857645
0.0089895234
0.0088911839
0.0087904731
0.0086877567
0.0085830276
0.0084762566
0.0083676487
0.0082569726
0.0081444566
0.0080300331
0.0079136912
0.0077954729
0.0076752778
0.007553276
0.0074293386
0.0073035655
0.0071758803
0.0070463148
0.0069148502
0.0067814657
0.0066461661
0.0065089457
0.0063698422
0.0062288403
0.0060859997
0.0059413196
0.0057948787
0.0056466759
0.005496798
0.0053452654
0.0051922081
0.0050376885
0.0048818978
0.0047249541
0.004567121
0.0044085701
0.0042496179
0.0040905107
0.0039315303
0.003773009
0.003615092
0.003458221
0.0033021011
0.0031477678
0.0029931645
0.0028432192
0.0026871966
0.0025520857
0.0023843539
0.002317577
0.0021002021
0.002819296
-0.0021525908
0.050098424
0.045290171
0.037270246
0.029953349
0.024779611
0.021230369
0.018793533
0.016965308
0.015433752
0.014219899
0.013264693
0.012511263
0.01191985
0.011468371
0.011137016
0.010901292
0.010737965
0.010631899
0.010568457
0.010532013
0.010514011
0.010503946
0.010495937
0.010487192
0.010474627
0.01045712
0.010435033
0.010407833
0.010374233
0.010334977
0.010290937
0.010242163
0.010189208
0.010132699
0.010072485
0.010008533
0.0099411314
0.0098701945
0.0097958904
0.0097187405
0.0096386945
0.0095555979
0.0094699998
0.0093819535
0.0092913677
0.009198648
0.0091036141
0.0090063477
0.0089070548
0.0088054524
0.00870191
0.0085964079
0.0084889151
0.0083796326
0.0082683233
0.0081552162
0.0080402351
0.0079233682
0.0078046566
0.0076839985
0.0075615621
0.007437214
0.0073110542
0.0071830041
0.0070530944
0.006921304
0.0067876114
0.0066520207
0.0065145252
0.0063751612
0.0062339122
0.0060908376
0.0059459358
0.0057992846
0.0056508823
0.0055008157
0.0053491046
0.005195879
0.0050412006
0.0048852601
0.0047281754
0.0045702096
0.0044115342
0.0042524658
0.0040932509
0.0039341719
0.003775562
0.0036175671
0.0034606309
0.0033044593
0.0031500916
0.00299547
0.0028455332
0.0026895337
0.0025544989
0.0023868435
0.0023202778
0.0021030122
0.0028229849
-0.0021501606
0.047714515
0.043496614
0.03661982
0.030091023
0.025205966
0.021721275
0.019245614
0.017361115
0.015795399
0.014538857
0.013541323
0.012751109
0.012132135
0.011661307
0.011320413
0.011072585
0.010892599
0.010775462
0.010702978
0.01065881
0.010632926
0.010614066
0.010597115
0.010579685
0.010559094
0.010534824
0.010507323
0.010475512
0.010437707
0.010394659
0.010347069
0.010294867
0.010238661
0.010179106
0.010116042
0.010049369
0.0099794538
0.0099062046
0.0098297044
0.0097505208
0.0096685771
0.0095837014
0.0094964587
0.0094068683
0.0093148413
0.0092207831
0.009124484
0.0090260409
0.0089256508
0.0088230163
0.0087185129
0.0086121077
0.0085037697
0.0083936971
0.0082816457
0.0081678449
0.0080522076
0.0079347227
0.0078154308
0.0076942273
0.0075712783
0.0074464454
0.0073198287
0.0071913478
0.0070610319
0.006928857
0.0067948007
0.0066588667
0.0065210467
0.0063813755
0.0062398356
0.0060964854
0.0059513226
0.005804424
0.005655787
0.0055054981
0.0053535771
0.0052001534
0.0050452883
0.004889172
0.0047319217
0.0045738004
0.004414979
0.0042557742
0.0040964327
0.0039372372
0.0037785218
0.0036204334
0.0034634173
0.0033071807
0.0031527665
0.0029981167
0.0028481798
0.0026921991
0.0025572351
0.0023896583
0.0023232975
0.0021061584
0.002827072
-0.0021473315
0.045617523
0.04187343
0.03592404
0.030088512
0.025512546
0.022134149
0.019648808
0.017730993
0.016150638
0.014869813
0.013843773
0.013022989
0.012373385
0.011871726
0.011502206
0.011227516
0.011024675
0.010893798
0.010812445
0.010760233
0.010727584
0.010705289
0.010686642
0.010667521
0.010643959
0.010614969
0.010581885
0.010544496
0.010501638
0.010454625
0.010403825
0.01034868
0.010289712
0.01022754
0.010161928
0.010092765
0.010020505
0.0099450211
0.0098663642
0.009785164
0.0097013078
0.0096146077
0.0095256621
0.0094344543
0.009340896
0.0092454077
0.0091477544
0.0090480472
0.0089464734
0.0088427157
0.0087371621
0.0086297654
0.008520494
0.0084095455
0.0082966661
0.0081820885
0.0080657173
0.0079475421
0.0078276012
0.0077057851
0.0075822588
0.0074568788
0.0073297459
0.0072007781
0.007070003
0.0069373927
0.0068029242
0.0066666012
0.0065284133
0.0063883941
0.0062465245
0.0061028622
0.0059574035
0.0058102242
0.0056613207
0.0055107798
0.0053586203
0.0052049717
0.0050498946
0.0048935789
0.0047361409
0.0045778432
0.0044188564
0.0042594969
0.0041000114
0.0039406831
0.0037818467
0.00362365
0.00346654
0.0033102255
0.0031557526
0.0030010642
0.002851117
0.0026951485
0.0025602455
0.0023927445
0.0023265706
0.002109558
0.0028314289
-0.0021441285
0.043738158
0.040423943
0.035255224
0.030023906
0.025745251
0.022480568
0.020007192
0.018072354
0.016481122
0.015181661
0.01413429
0.013292159
0.012621029
0.012094001
0.011700201
0.011402502
0.011175346
0.011021992
0.010919552
0.010849295
0.010802817
0.010773201
0.010750822
0.010729069
0.010705814
0.010678633
0.010646943
0.010609951
0.010565444
0.010515224
0.010460631
0.010401776
0.010339762
0.01027521
0.010207487
0.010136297
0.010062134
0.0099847749
0.0099042359
0.0098212327
0.0097356182
0.0096472002
0.0095566268
0.009463847
0.0093687792
0.0092718652
0.0091728439
0.0090718485
0.0089690588
0.0088641365
0.0087574897
0.0086490543
0.008538798
0.0084269198
0.0083131538
0.0081977411
0.0080805805
0.0079616616
0.0078410189
0.0077185376
0.0075943828
0.0074684062
0.0073407096
0.0072112078
0.0070799275
0.0069468383
0.0068119167
0.006675165
0.0065365712
0.0063961677
0.0062539342
0.0061099269
0.0059641406
0.0058166503
0.0056674517
0.0055166311
0.005364207
0.0052103087
0.0050549961
0.0048984587
0.0047408122
0.0045823187
0.004423148
0.0042636165
0.0041039706
0.0039444939
0.0037855215
0.0036272024
0.003469985
0.0033135796
0.0031590356
0.0030042975
0.0028543284
0.0026983641
0.0025635085
0.0023960767
0.0023300635
0.0021131652
0.002835972
-0.0021405382
0.042033363
0.039093517
0.034606052
0.029926316
0.025933582
0.022784653
0.020336523
0.018394356
0.016795475
0.015482306
0.014417018
0.013555396
0.012863548
0.012315655
0.011898333
0.011579042
0.011333071
0.011159656
0.011038543
0.010951959
0.010890224
0.010846245
0.010811219
0.010779092
0.010749528
0.010720585
0.010688856
0.010652691
0.010611231
0.010564167
0.01051179
0.010453166
0.010389455
0.010322259
0.010251789
0.010178245
0.01010232
0.010023467
0.0099414692
0.0098570792
0.0097700639
0.0096802171
0.0095882507
0.0094940784
0.0093976376
0.009299402
0.0091990845
0.0090968529
0.0089928819
0.0088868127
0.0087790804
0.0086696031
0.0085583517
0.0084455273
0.008330852
0.0082145784
0.0080965976
0.0079769017
0.0078555226
0.0077323405
0.0076075217
0.0074809126
0.0073526168
0.0072225445
0.0070907224
0.0069571199
0.0068217118
0.0066844985
0.0065454667
0.006404648
0.0062620206
0.0061176396
0.005971498
0.00582367
0.0056741504
0.0055230254
0.005370313
0.0052161421
0.0050605724
0.0049037929
0.0047459184
0.0045872108
0.0044278389
0.0042681191
0.0041082972
0.0039486572
0.0037895346
0.0036310792
0.0034737408
0.0033172317
0.0031626036
0.003007804
0.0028578001
0.0027018299
0.0025670046
0.0023996316
0.0023337455
0.0021169398
0.0028406223
-0.0021365362
0.040480488
0.037859223
0.033955907
0.029780306
0.026073254
0.023052782
0.020645126
0.018705212
0.017101638
0.015777153
0.014695365
0.013815191
0.013103746
0.012535982
0.012096107
0.011756065
0.011491944
0.01129934
0.011160325
0.011058756
0.010983582
0.010926569
0.010880509
0.010839013
0.010800887
0.010763981
0.010724914
0.01068298
0.010639855
0.010593476
0.010542578
0.010487213
0.010427205
0.010362802
0.0102935
0.010219212
0.01014149
0.010060643
0.0099768928
0.0098912232
0.0098031336
0.0097122385
0.0096192605
0.009524028
0.0094264895
0.0093271583
0.0092257201
0.009122393
0.0090173521
0.0089102198
0.0088014687
0.0086909985
0.0085787876
0.0084650421
0.0083494716
0.0082323436
0.0081135408
0.0079930602
0.0078709325
0.0077470341
0.0076215332
0.0074942706
0.0073653534
0.0072346872
0.0071022992
0.0069681581
0.0068322381
0.0066945379
0.0065550429
0.006413784
0.006270738
0.0061259592
0.0059794388
0.0058312501
0.0056813873
0.0055299361
0.0053769141
0.0052224503
0.0050666038
0.0049095634
0.0047514431
0.0045925044
0.0044329151
0.0042729916
0.0041129791
0.0039531617
0.0037938751
0.0036352699
0.0034777973
0.0033211713
0.0031664457
0.0030115719
0.0028615183
0.0027055301
0.0025707141
0.0024033856
0.0023375855
0.0021208428
0.0028453018
-0.0021320915
0.039061317
0.036712972
0.03330578
0.029583057
0.026156494
0.023276949
0.020926348
0.019001482
0.017399431
0.01606739
0.0149713
0.014073807
0.013343591
0.012756299
0.012294962
0.011934561
0.011652281
0.011440934
0.011284483
0.011167325
0.01107833
0.011009148
0.010952819
0.010902795
0.010856963
0.010812983
0.010767607
0.010720373
0.010672195
0.010620738
0.010565217
0.010507878
0.010448616
0.010386093
0.010319697
0.010249066
0.010174281
0.010095018
0.010011062
0.0099241398
0.0098345728
0.0097424043
0.0096485245
0.0095525233
0.0094542289
0.0093541408
0.0092518768
0.009147704
0.0090417985
0.0089337662
0.008824131
0.0087127755
0.0085996926
0.0084850969
0.0083686856
0.0082507462
0.0081311525
0.0080099091
0.0078870467
0.0077624391
0.0076362581
0.007508339
0.0073787938
0.0072475244
0.0071145589
0.0069798652
0.0068434176
0.0067052138
0.0065652381
0.0064235207
0.0062800376
0.0061348423
0.0059879243
0.0058393564
0.0056891316
0.0055373359
0.0053839862
0.0052292116
0.0050730709
0.0049157528
0.0047573706
0.0045981851
0.0044383637
0.0042782222
0.0041180052
0.0039579968
0.003798533
0.003639765
0.0034821449
0.0033253887
0.0031705516
0.0030155897
0.00286547
0.0027094493
0.0025746177
0.0024073156
0.0023415536
0.0021248362
0.0028499341
-0.0021271654
0.037760116
0.035647834
0.032661728
0.029342226
0.026185612
0.023454604
0.021174577
0.019277142
0.017684256
0.016349948
0.01524325
0.01433076
0.013583177
0.012977153
0.012495265
0.012114829
0.011814339
0.011584582
0.011410911
0.011278186
0.011175333
0.011093944
0.011027048
0.010968118
0.010914509
0.010863853
0.010813016
0.010761103
0.010708341
0.010652648
0.010593603
0.01053285
0.010470011
0.010403885
0.010335391
0.010265394
0.010192535
0.010115971
0.010035521
0.0099514462
0.0098634518
0.0097712623
0.009676456
0.0095793519
0.0094801636
0.0093794494
0.0092766262
0.0091719173
0.009065443
0.0089567662
0.0088464664
0.0087344051
0.0086205985
0.0085052758
0.0083881236
0.0082694565
0.0081491396
0.0080271879
0.0079036343
0.0077783505
0.0076515147
0.0075229567
0.0073927953
0.0072609294
0.007127389
0.0069921415
0.0068551619
0.0067164478
0.0065759827
0.0064337968
0.0062898649
0.0061442406
0.0059969117
0.0058479508
0.0056973499
0.0055451951
0.0053915029
0.0052364028
0.005079953
0.0049223426
0.0047636841
0.0046042381
0.0044441709
0.0042837982
0.0041233639
0.0039631519
0.0038034983
0.0036445548
0.003486774
0.0033298741
0.0031749108
0.003019846
0.0028696417
0.0027135718
0.0025786956
0.0024113979
0.0023456196
0.0021288824
0.0028544428
-0.0021217107
0.036563336
0.03465681
0.032028653
0.029066388
0.026166249
0.023587709
0.021388528
0.019529089
0.01795275
0.016621652
0.015508531
0.014583979
0.013821057
0.013197682
0.012696457
0.012296672
0.011978186
0.01173039
0.011539627
0.0113914
0.011274689
0.011181025
0.011103371
0.011035312
0.010973782
0.010916297
0.01085973
0.010802867
0.010745669
0.010686358
0.010624334
0.010560637
0.010494827
0.010426022
0.010355063
0.010282438
0.010206758
0.010128373
0.010048597
0.0099664181
0.0098809977
0.0097920799
0.0096998849
0.0096040824
0.009504837
0.0094033794
0.0092997274
0.0091944371
0.0090875532
0.0089784763
0.0088677856
0.0087552731
0.0086409643
0.0085251026
0.0084073644
0.0082881003
0.0081671686
0.0080445999
0.0079204309
0.0077945332
0.007667094
0.007537938
0.007407193
0.0072747559
0.0071406597
0.007004872
0.0068673693
0.0067281498
0.006587197
0.0064445412
0.006300157
0.0061540984
0.0060063518
0.0058569897
0.0057060035
0.0055534796
0.005399434
0.005243997
0.0050872265
0.0049293118
0.0047703649
0.0046106464
0.0044503216
0.004289706
0.0041290426
0.0039686154
0.00380876
0.0036496286
0.0034916742
0.003334617
0.0031795122
0.0030243285
0.0028740192
0.002717881
0.0025829274
0.0024156082
0.0023497527
0.0021329435
0.0028587508
-0.0021156718
0.035459276
0.033733219
0.031410077
0.028763196
0.026104341
0.023679441
0.021568761
0.019756157
0.01820318
0.016880546
0.015765198
0.014831713
0.014055758
0.013416717
0.012897608
0.012479434
0.01214342
0.011878076
0.011670493
0.011506879
0.011376317
0.011270315
0.011181809
0.01110451
0.011034943
0.010970434
0.010907912
0.010845938
0.010784221
0.010721123
0.010655875
0.010589221
0.010520841
0.010449932
0.01037697
0.010302162
0.010224409
0.010144196
0.010062407
0.0099779643
0.00989117
0.0098030538
0.0097127302
0.0096194597
0.0095231944
0.0094239952
0.0093212275
0.0092157595
0.0091082779
0.0089986121
0.0088875554
0.0087747677
0.0086601903
0.008544029
0.0084259204
0.0083062481
0.00818486
0.0080618077
0.0079371358
0.0078107187
0.0076827565
0.0075530692
0.0074217971
0.0072888349
0.0071542209
0.0070179233
0.0068799213
0.0067402148
0.0065987876
0.0064556715
0.0063108409
0.0061643508
0.006016187
0.0058664222
0.0057150474
0.0055621494
0.0054077443
0.005251963
0.0050948636
0.0049366357
0.0047773911
0.0046173904
0.0044567979
0.0042959293
0.0041350265
0.0039743734
0.0038143052
0.0036549743
0.0034968337
0.0033396054
0.0031843433
0.0030290237
0.0028785872
0.0027223593
0.0025872915
0.0024199216
0.0023539217
0.0021369812
0.0028627793
-0.0021089835
0.034437802
0.032870856
0.030808434
0.028439308
0.026005541
0.023733166
0.021716459
0.019958008
0.018434623
0.017125457
0.016011991
0.015072755
0.014286187
0.013633315
0.013097882
0.012662431
0.01230953
0.01202723
0.011803224
0.011624431
0.011480104
0.011361768
0.011262362
0.011175694
0.011097952
0.011026284
0.010957677
0.010890474
0.010824111
0.010757051
0.010688429
0.01061874
0.010547694
0.010474511
0.010399464
0.010322748
0.010243466
0.010161847
0.010078434
0.009992389
0.0099041617
0.0098143808
0.0097221873
0.0096281534
0.0095328742
0.0094355208
0.0093352635
0.0092323848
0.0091266495
0.0090174887
0.0089061417
0.0087928733
0.0086779466
0.0085615769
0.0084432793
0.0083234143
0.0082017764
0.0080784241
0.0079534066
0.0078266027
0.0076982304
0.0075681073
0.0074363899
0.0073029722
0.0071678992
0.0070311411
0.0068926808
0.0067525208
0.0066106464
0.0064670914
0.0063218311
0.0061749221
0.0060263501
0.0058761886
0.0057244284
0.0055711576
0.0054163921
0.005260264
0.0051028315
0.0049442852
0.0047847366
0.0046244466
0.0044635788
0.004302449
0.0041412982
0.0039804098
0.0038201189
0.0036605776
0.0035022386
0.0033448257
0.00318939
0.0030339168
0.0028833292
0.0027269881
0.0025917655
0.0024243124
0.0023580947
0.0021409561
0.0028664477
-0.0021015709
0.033490109
0.032064037
0.030225289
0.028100431
0.025875124
0.023752249
0.021833086
0.020134702
0.018646511
0.017355548
0.016247962
0.015306175
0.014511483
0.013846717
0.01329659
0.012845079
0.012476062
0.012177475
0.011937525
0.011743832
0.011585888
0.011455272
0.011344952
0.011248815
0.011162793
0.011083864
0.011009041
0.010936475
0.010865355
0.010794216
0.010722116
0.010649305
0.010575481
0.010499899
0.01042269
0.01034401
0.010263076
0.010179963
0.010095145
0.010007977
0.0099186885
0.0098276403
0.0097342116
0.0096390158
0.0095422366
0.0094433131
0.0093430536
0.0092413334
0.00913734
0.0090307278
0.0089215531
0.0088093935
0.0086946092
0.0085779327
0.0084592984
0.0083392494
0.0082174936
0.0080940252
0.0079688521
0.0078418354
0.0077132061
0.007582777
0.0074507256
0.0073169473
0.0071814972
0.0070443486
0.0069054898
0.0067649268
0.0066226477
0.0064786891
0.006333028
0.0061857237
0.0060367622
0.0058862188
0.0057340845
0.0055804489
0.0054253283
0.0052688564
0.0051110915
0.0049522258
0.0047923705
0.0046317875
0.0044706393
0.0043092425
0.0041478368
0.0039867057
0.0038261832
0.0036664217
0.0035078728
0.003350262
0.0031946366
0.0030389913
0.0028882272
0.0027317477
0.0025963263
0.0024287545
0.0023622395
0.0021448285
0.0028696726
-0.0020933484
0.03260852
0.031307613
0.029661524
0.027751379
0.025717957
0.02374
0.021920291
0.02028658
0.018838501
0.017570161
0.016472315
0.015531165
0.014730895
0.014056253
0.013493124
0.013026854
0.012642602
0.012328457
0.01207311
0.011864862
0.011693501
0.011550702
0.011429484
0.011323814
0.011229428
0.011143147
0.011061985
0.010983935
0.010907962
0.010832639
0.010756953
0.010680932
0.010604245
0.010526183
0.010446751
0.010366038
0.010283351
0.010198672
0.010112406
0.010024017
0.0099336079
0.0098415102
0.0097472481
0.0096511817
0.0095533651
0.0094534579
0.0093522257
0.0092490686
0.0091439679
0.0090378799
0.0089301363
0.0088199151
0.0087073747
0.0085922838
0.0084742054
0.008354045
0.0082320197
0.0081083828
0.007983132
0.0078560502
0.007727335
0.0075967635
0.0074645245
0.0073305113
0.0071947921
0.0070573458
0.0069181686
0.0067772717
0.0066346471
0.0064903356
0.0063443165
0.0061966528
0.0060473318
0.0058964312
0.0057439428
0.0055899586
0.0054344952
0.0052776886
0.0051195978
0.0049604165
0.0048002563
0.00463938
0.0044779498
0.0043162829
0.0041546179
0.0039932382
0.0038324772
0.0036724869
0.0035137177
0.0033558964
0.003200065
0.0030442289
0.0028932619
0.0027366173
0.0026009498
0.0024332211
0.0023663234
0.0021485573
0.0028723679
-0.0020842189
0.031786317
0.030596949
0.029117503
0.027396155
0.025538477
0.023699648
0.021979854
0.020414209
0.01901044
0.017768781
0.016684357
0.01574699
0.014943719
0.01426129
0.013686904
0.013207252
0.012808743
0.012479834
0.012209699
0.011987301
0.011802774
0.01164793
0.011515864
0.011400627
0.011297813
0.011204099
0.011116489
0.011032842
0.010951924
0.010872313
0.010792936
0.010713621
0.010633999
0.010553381
0.010471661
0.010388857
0.010304354
0.010218062
0.0101303
0.010040609
0.0099490221
0.0098558355
0.0097606478
0.0096637052
0.0095650985
0.0094645512
0.0093625246
0.0092585022
0.0091526138
0.0090455396
0.0089365515
0.0088260615
0.0087143639
0.0086007261
0.0084847544
0.0083664097
0.0082452904
0.0081217907
0.0079963634
0.0078691223
0.007740351
0.0076097528
0.007477478
0.0073433817
0.0072075313
0.0070699074
0.0069305152
0.0067893738
0.006646481
0.0065018836
0.0063555644
0.0062075911
0.0060579528
0.0059067309
0.0057539187
0.0055996109
0.0054438254
0.0052867007
0.0051282966
0.0049688093
0.0048083508
0.0046471855
0.0044854753
0.0043235383
0.0041616123
0.0039999807
0.0038389761
0.0036787501
0.0035197512
0.0033617077
0.0032056546
0.0030496092
0.0028984121
0.0027415745
0.0026056109
0.0024376853
0.0023703137
0.0021521007
0.0028744485
-0.0020740729
0.0310176
0.029927897
0.028593206
0.027038041
0.025340681
0.023634304
0.022013649
0.020518357
0.019162361
0.017951032
0.016883493
0.015952973
0.015149286
0.014461207
0.013877361
0.013385772
0.012974076
0.01263126
0.012347007
0.012110921
0.011913529
0.011746819
0.011603991
0.011479184
0.011367897
0.011266686
0.011172533
0.011083184
0.01099723
0.010913233
0.010830062
0.01074737
0.010664738
0.010581489
0.010497416
0.010412472
0.010326098
0.010238145
0.010148845
0.010057805
0.0099650044
0.0098706884
0.0097745125
0.0096766531
0.0095772115
0.0094759366
0.0093731836
0.0092685761
0.0091621586
0.0090543725
0.0089446611
0.0088334899
0.0087207125
0.0086062073
0.0084906351
0.0083735036
0.0082540627
0.0081323971
0.0080081482
0.007881279
0.007752435
0.0076217031
0.007489386
0.0073552937
0.0072194429
0.0070817798
0.0069423013
0.0068010288
0.0066579661
0.006513168
0.0063666224
0.0062184038
0.0060685041
0.0059170093
0.0057639145
0.0056093185
0.0054532405
0.0052958223
0.0051371252
0.0049773478
0.0048166035
0.0046551585
0.0044931745
0.0043309713
0.0041687859
0.0040069019
0.0038456509
0.0036851841
0.0035259479
0.0033676717
0.0032113822
0.0030551093
0.0029036546
0.0027465958
0.0026102837
0.0024421195
0.0023741771
0.0021554152
0.0028758325
-0.0020627868
0.030297173
0.029296746
0.028088339
0.026679688
0.025128127
0.023546934
0.0220236
0.020599955
0.019294469
0.018116673
0.017069226
0.016148501
0.015346959
0.014655397
0.01406393
0.013561911
0.013138178
0.012782375
0.012484732
0.012235482
0.012025578
0.011847226
0.011693757
0.01155941
0.011439629
0.011330871
0.011230094
0.011134951
0.011043873
0.010955394
0.010868331
0.01078218
0.010696463
0.010610505
0.010524015
0.010436877
0.010348577
0.010258913
0.010168038
0.010075609
0.0099815616
0.0098860853
0.0097888861
0.0096900835
0.0095897691
0.009487717
0.0093842159
0.0092789634
0.0091719607
0.0090635951
0.0089534329
0.0088417275
0.008728325
0.0086132295
0.0084968804
0.0083787866
0.008259261
0.0081384133
0.0080154926
0.0078904163
0.0077629233
0.0076327459
0.007500456
0.0073662658
0.0072303824
0.0070927412
0.0069532877
0.0068120093
0.006668896
0.0065240034
0.006377324
0.0062289405
0.0060788493
0.0059271428
0.0057738189
0.0056189809
0.0054626503
0.0053049725
0.0051460107
0.0049859668
0.0048249555
0.0046632457
0.0045009993
0.0043385383
0.0041760988
0.0040139649
0.0038524675
0.0036917574
0.0035322782
0.0033737605
0.0032172208
0.0030607032
0.0029089638
0.0027516556
0.0026149407
0.0024464955
0.0023778797
0.0021584556
0.0028763985
-0.0020502235
0.029620445
0.028700186
0.027602419
0.026323204
0.024903944
0.023440332
0.022011656
0.020660067
0.019407127
0.018265598
0.017241162
0.01633303
0.015536141
0.01484327
0.01424605
0.013735158
0.013300613
0.012932808
0.012622561
0.012360728
0.012138717
0.011948992
0.01178504
0.011641216
0.011512946
0.011396613
0.011289147
0.011188126
0.011091845
0.010998795
0.010907745
0.010818053
0.010729175
0.010640433
0.01055146
0.010462073
0.010371789
0.010280364
0.010187874
0.010094015
0.0099986842
0.0099020198
0.0098037688
0.0097039994
0.0096027884
0.009499934
0.009395665
0.0092897299
0.0091821059
0.0090731371
0.0089624566
0.0088502425
0.0087364107
0.0086209208
0.0085040397
0.0083853928
0.008265312
0.0081435776
0.0080202297
0.0078956552
0.0077692607
0.0076406966
0.0075098082
0.0073763074
0.0072405509
0.0071028499
0.0069633732
0.0068221292
0.0066790596
0.0065341856
0.0063874823
0.006239033
0.0060888369
0.0059369941
0.005783507
0.0056284851
0.0054719522
0.0053140587
0.0051548696
0.0049945909
0.0048333389
0.0046713858
0.0045088942
0.0043461884
0.0041835045
0.0040211272
0.0038593866
0.0036984332
0.0035387077
0.0033799417
0.0032231399
0.0030663618
0.0029143111
0.0027567262
0.002619553
0.0024507838
0.0023813869
0.0021611762
0.0028760347
-0.0020362348
0.028983354
0.02813526
0.027134832
0.025970239
0.024670854
0.023317105
0.021979754
0.020699859
0.019500839
0.018397835
0.017399016
0.016506092
0.015716284
0.015024261
0.014423172
0.013905003
0.013460933
0.013082171
0.012760163
0.012486386
0.012252726
0.012051941
0.011877707
0.011724506
0.011587779
0.011463861
0.01134966
0.011242691
0.011141134
0.011043432
0.010948305
0.010854992
0.01076288
0.010671279
0.010579756
0.010488065
0.01039574
0.0103025
0.010208353
0.010113021
0.010016368
0.0099184858
0.0098191515
0.0097183901
0.0096162615
0.0095125846
0.0094075325
0.0093008954
0.009192633
0.0090830413
0.0089718073
0.0088590658
0.0087447595
0.0086288371
0.0085115281
0.0083925354
0.0082720297
0.0081498107
0.0080260182
0.007900699
0.0077736814
0.0076453592
0.0075154067
0.0073832932
0.0072489242
0.0071120038
0.0069727366
0.0068314696
0.0066883882
0.0065435576
0.0063969108
0.0062484975
0.0060982975
0.0059464103
0.0057928404
0.005637705
0.0054810316
0.0053229764
0.005163607
0.005003134
0.0048416757
0.0046795082
0.0045167947
0.0043538632
0.0041909494
0.0040283394
0.0038663626
0.0037051692
0.0035451968
0.0033861781
0.0032291044
0.0030720518
0.0029196647
0.0027617767
0.0026240893
0.0024549537
0.0023846628
0.002163528
0.0028746379
-0.0020206537
0.028382302
0.027599324
0.026684889
0.025622062
0.024431203
0.023179655
0.021929792
0.020720569
0.019576232
0.018513537
0.01754261
0.016667301
0.015886892
0.015197836
0.01459476
0.014070936
0.013618684
0.013230065
0.012897192
0.012612164
0.012367366
0.012155886
0.011971608
0.011809166
0.011664046
0.011532557
0.011411593
0.011298623
0.011191726
0.011089298
0.010990011
0.010893
0.010797582
0.01070305
0.010608912
0.010514859
0.010420436
0.010325327
0.010229479
0.010132629
0.010034616
0.0099354829
0.0098350317
0.0097332507
0.0096301808
0.0095256582
0.0094198068
0.0093124511
0.009203536
0.0090933101
0.0089815083
0.0088682269
0.0087534219
0.0086370414
0.0085192834
0.0083998937
0.0082789991
0.0081564604
0.0080323197
0.0079065749
0.0077791505
0.0076502405
0.0075196312
0.0073875459
0.0072539311
0.0071182051
0.0069802804
0.006839845
0.0066970333
0.0065522109
0.006405563
0.0062572
0.0061070653
0.0059552255
0.0058016655
0.0056465012
0.0054897618
0.0053316101
0.0051721174
0.0050114997
0.0048498779
0.0046875324
0.0045246278
0.0043614958
0.0041983723
0.004035545
0.0038733431
0.0037119166
0.0035516999
0.003392427
0.0032350739
0.0030777352
0.0029249883
0.0027667729
0.0026285153
0.0024589721
0.0023876696
0.0021654589
0.0028721053
-0.0020032948
0.027814093
0.027090012
0.026251853
0.025279628
0.024186989
0.023030175
0.021863612
0.020723487
0.019634039
0.018612973
0.017671869
0.016816355
0.016047531
0.015363495
0.014760298
0.014232458
0.013773405
0.013376079
0.013033287
0.012737756
0.012482385
0.012260618
0.01206658
0.011895072
0.011741651
0.01160263