/*--------------------------------*- C++ -*----------------------------------*\
| =========                 |                                                 |
| \\      /  F ield         | OpenFOAM: The Open Source CFD Toolbox           |
|  \\    /   O peration     | Version:  2206                                  |
|   \\  /    A nd           | Website:  www.openfoam.com                      |
|    \\/     M anipulation  |                                                 |
\*---------------------------------------------------------------------------*/
FoamFile
{
    version     2.0;
    format      ascii;
    arch        "LSB;label=32;scalar=64";
    class       surfaceScalarField;
    location    "400";
    object      phi;
}
// * * * * * * * * * * * * * * * * * * * * * * * * * * * * * * * * * * * * * //

dimensions      [0 3 -1 0 0 0 0];

oriented        oriented;

internalField   nonuniform List<scalar> 
14782
(
0.00064611452
7.5125985e-05
-0.0007212405
0.00055260929
9.3505231e-05
0.00046300944
8.9599852e-05
0.00039098869
7.202075e-05
0.00033965916
5.1329523e-05
0.00030350821
3.6150955e-05
0.00027672056
2.6787645e-05
0.00025557104
2.1149524e-05
0.00023807583
1.7495209e-05
0.00022333692
1.4738912e-05
0.00021086437
1.2472551e-05
0.00020029329
1.0571075e-05
0.00019132104
8.9722533e-06
0.00018368635
7.6346926e-06
0.00017716603
6.5203211e-06
0.00017158052
5.5855071e-06
0.00016678133
4.7991916e-06
0.00016264706
4.1342727e-06
0.00015905335
3.59371e-06
0.00015591296
3.140389e-06
0.00015314078
2.7721751e-06
0.00015065684
2.4839381e-06
0.00014840731
2.2495287e-06
0.00014635243
2.0548816e-06
0.00014446026
1.8921776e-06
0.00014270558
1.7546717e-06
0.00014106905
1.6365379e-06
0.00013953279
1.5362586e-06
0.00013807989
1.4528973e-06
0.0001366989
1.3809886e-06
0.00013538297
1.3159288e-06
0.00013412547
1.2575051e-06
0.00013292021
1.2052593e-06
0.00013176187
1.1583426e-06
0.00013064586
1.1160027e-06
0.00012956665
1.0792167e-06
0.00012851931
1.0473405e-06
0.00012750167
1.0176387e-06
0.00012651086
9.9080603e-07
0.00012554415
9.6671061e-07
0.00012459937
9.4477856e-07
0.00012367436
9.2500992e-07
0.00012276796
9.0640233e-07
0.00012187899
8.8897036e-07
0.00012100611
8.7288274e-07
0.00012014855
8.5756026e-07
0.00011930496
8.435875e-07
0.00011847425
8.3070404e-07
0.00011765588
8.1837033e-07
0.00011684892
8.0696395e-07
0.000116053
7.9592253e-07
0.00011526768
7.8532003e-07
0.00011449248
7.7519808e-07
0.00011372718
7.6529929e-07
0.00011297123
7.5595239e-07
0.00011222442
7.4681222e-07
0.00011148637
7.3804936e-07
0.00011075666
7.2970212e-07
0.00011003504
7.216243e-07
0.00010932125
7.1379336e-07
0.00010861528
7.0596598e-07
0.00010791691
6.9836687e-07
0.00010722601
6.9090466e-07
0.00010654239
6.8362119e-07
0.00010586593
6.7645495e-07
0.00010519647
6.6946189e-07
0.00010453381
6.6265788e-07
0.00010387785
6.5596649e-07
0.00010322849
6.4935539e-07
0.00010258569
6.4280645e-07
0.00010194932
6.3636886e-07
0.0001013193
6.3002129e-07
0.00010069548
6.2381311e-07
0.00010007771
6.1777452e-07
9.9465705e-05
6.120024e-07
9.8859233e-05
6.0647156e-07
9.8258043e-05
6.0119092e-07
9.7661945e-05
5.9609764e-07
9.707073e-05
5.9121511e-07
9.6484202e-05
5.8652743e-07
9.5902061e-05
5.8214177e-07
9.5323916e-05
5.781444e-07
9.4749137e-05
5.7477914e-07
9.4176858e-05
5.7227917e-07
9.3605826e-05
5.7103183e-07
9.3034328e-05
5.7149791e-07
9.2460095e-05
5.742331e-07
9.1880124e-05
5.7997105e-07
9.1290664e-05
5.8945965e-07
9.0686928e-05
6.037364e-07
9.0063269e-05
6.236586e-07
8.941262e-05
6.5064964e-07
8.8727395e-05
6.8522444e-07
8.7996988e-05
7.3040738e-07
8.7213162e-05
7.8382614e-07
8.6354023e-05
8.5913852e-07
8.5415142e-05
9.3888071e-07
8.4320549e-05
1.0945934e-06
8.3516717e-05
8.0383158e-07
1.8495268e-06
0.00078809658
8.1201855e-05
-0.00079417245
0.0007695089
0.00011209291
0.00073459581
0.00012451294
0.00068719605
0.00011942051
0.00063494644
0.00010357914
0.00058518637
8.5911027e-05
0.00054140049
7.0573522e-05
0.00050419734
5.8352676e-05
0.00047286588
4.8826668e-05
0.00044643514
4.1169652e-05
0.000423999
3.4908686e-05
0.00040483031
2.9739774e-05
0.00038837708
2.5425477e-05
0.0003742051
2.1806677e-05
0.00036196459
1.876083e-05
0.00035136784
1.6182255e-05
0.00034215985
1.4007181e-05
0.00033411424
1.2179883e-05
0.00032703942
1.0668529e-05
0.00032077838
9.4014341e-06
0.00031519258
8.3579727e-06
0.00031016468
7.5118399e-06
0.00030560029
6.8139187e-06
0.00030142661
6.2285542e-06
0.00029758341
5.7353771e-06
0.00029402274
5.3153488e-06
0.00029070615
4.9531299e-06
0.00028759912
4.6432824e-06
0.00028467201
4.3800109e-06
0.0002819024
4.1505955e-06
0.00027927385
3.9444821e-06
0.00027677143
3.7599232e-06
0.00027438189
3.5947986e-06
0.00027209358
3.4466498e-06
0.00026989702
3.312568e-06
0.000267781
3.1952354e-06
0.00026573601
3.0923287e-06
0.00026375703
2.9966221e-06
0.00026183738
2.9104549e-06
0.00025997132
2.8327731e-06
0.00025815425
2.7618451e-06
0.00025638186
2.6974042e-06
0.00025465098
2.6372829e-06
0.00025295869
2.5812564e-06
0.00025130218
2.5293936e-06
0.00024967924
2.4805003e-06
0.00024808713
2.4356909e-06
0.00024652358
2.3942619e-06
0.00024498695
2.3549926e-06
0.00024347545
2.3184719e-06
0.00024198784
2.2835302e-06
0.00024052296
2.2501961e-06
0.0002390797
2.2184606e-06
0.00023765721
2.1877863e-06
0.00023625442
2.1587452e-06
0.0002348706
2.130634e-06
0.00023350488
2.1037726e-06
0.00023215635
2.0782231e-06
0.00023082435
2.0536317e-06
0.00022950829
2.0298506e-06
0.00022820789
2.0063677e-06
0.00022692263
1.9836205e-06
0.0002256521
1.9614392e-06
0.00022439586
1.939864e-06
0.00022315355
1.9187586e-06
0.00022192477
1.8982436e-06
0.00022070909
1.8783438e-06
0.00021950619
1.8588653e-06
0.00021831583
1.8397104e-06
0.0002171378
1.8208355e-06
0.00021597184
1.8023343e-06
0.00021481769
1.7841659e-06
0.00021367507
1.7664331e-06
0.00021254361
1.749237e-06
0.00021142281
1.7328075e-06
0.00021031217
1.7171105e-06
0.0002092112
1.7021542e-06
0.0002081195
1.6878037e-06
0.00020703662
1.6740936e-06
0.00020596214
1.6610065e-06
0.00020489549
1.6487951e-06
0.00020383591
1.6377183e-06
0.00020278229
1.6284005e-06
0.00020173307
1.6215025e-06
0.00020068603
1.6180671e-06
0.00019963817
1.6193593e-06
0.00019858546
1.6269451e-06
0.00019752263
1.642801e-06
0.00019644294
1.6691536e-06
0.00019533801
1.7086662e-06
0.00019419732
1.7643472e-06
0.0001930089
1.8390703e-06
0.00019175696
1.9371641e-06
0.00019042606
2.0613009e-06
0.00018899135
2.2185426e-06
0.00018743112
2.4193693e-06
0.00018569508
2.6749178e-06
0.00018376253
3.0271459e-06
0.0001817561
2.810255e-06
4.4208264e-06
0.00082931373
7.7822078e-05
-0.00082593395
0.0008336254
0.00010778124
0.0008346897
0.00012344864
0.00082786245
0.00012624776
0.00080961496
0.00012182663
0.00078192467
0.00011360131
0.00074912644
0.00010337175
0.00071482673
9.2652393e-05
0.00068124019
8.2413202e-05
0.00064968811
7.2721736e-05
0.00062081235
6.3784446e-05
0.00059482754
5.572458e-05
0.00057168145
4.8571573e-05
0.00055116189
4.2326231e-05
0.00053299343
3.6929294e-05
0.00051689806
3.2277623e-05
0.0005026089
2.8296345e-05
0.00048988346
2.4905322e-05
0.00047851397
2.2038015e-05
0.00046831468
1.9600726e-05
0.00045912453
1.754812e-05
0.00045080143
1.5834942e-05
0.00044322375
1.43916e-05
0.00043628925
1.3163058e-05
0.00042990961
1.2115012e-05
0.00042400868
1.121628e-05
0.0004185243
1.0437507e-05
0.00041340594
9.7616496e-06
0.00040860983
9.1761183e-06
0.00040409928
8.6611445e-06
0.00039984315
8.2006134e-06
0.00039581414
7.7889301e-06
0.00039198863
7.4203116e-06
0.00038834641
7.0888723e-06
0.00038487032
6.7886536e-06
0.00038154197
6.5235898e-06
0.00037834651
6.287784e-06
0.00037527343
6.0697073e-06
0.00037231062
5.8732556e-06
0.00036944853
5.6948702e-06
0.00036667892
5.5314505e-06
0.00036399408
5.3822512e-06
0.00036138756
5.2437987e-06
0.00035885356
5.115259e-06
0.00035638672
4.9962283e-06
0.00035398248
4.8847471e-06
0.00035163606
4.7821095e-06
0.00034934337
4.6869523e-06
0.00034710107
4.5972924e-06
0.00034490582
4.5137193e-06
0.00034275492
4.4344296e-06
0.00034064586
4.3592521e-06
0.00033857634
4.2879864e-06
0.0003365444
4.2197221e-06
0.00033454804
4.1551047e-06
0.0003325856
4.09308e-06
0.00033065534
4.0340263e-06
0.00032875564
3.9779225e-06
0.00032688513
3.92414e-06
0.00032504262
3.8723665e-06
0.00032322715
3.8218349e-06
0.00032143766
3.7731101e-06
0.00031967319
3.7259137e-06
0.00031793282
3.6802306e-06
0.00031621575
3.6358322e-06
0.00031452112
3.59287e-06
0.00031284812
3.551341e-06
0.00031119608
3.5109134e-06
0.00030956438
3.4714062e-06
0.00030795249
3.432728e-06
0.00030635984
3.3949828e-06
0.00030478591
3.3580984e-06
0.00030323012
3.32222e-06
0.00030169183
3.2875278e-06
0.00030017025
3.2543814e-06
0.00029866461
3.2227561e-06
0.0002971741
3.1926647e-06
0.00029569799
3.1639125e-06
0.00029423555
3.1365368e-06
0.00029278603
3.1105268e-06
0.00029134854
3.0862823e-06
0.00028992199
3.0642708e-06
0.00028850484
3.0455457e-06
0.00028709505
3.0312893e-06
0.00028568979
3.0233272e-06
0.00028428525
3.0239056e-06
0.00028287634
3.0358556e-06
0.00028145647
3.0626677e-06
0.00028001711
3.1085164e-06
0.00027854779
3.1779879e-06
0.00027703489
3.2772442e-06
0.00027546359
3.4103666e-06
0.0002738122
3.5885565e-06
0.0002720629
3.8105982e-06
0.00027017669
4.104753e-06
0.00026813504
4.4610204e-06
0.00026584561
4.9643518e-06
0.00026334317
5.5295804e-06
0.0002603901
5.7633294e-06
7.3239165e-06
0.00085932632
7.4293506e-05
-0.00085579775
0.00086549618
0.00010161138
0.00087151483
0.00011742999
0.00087572857
0.00012203402
0.00087713962
0.00012041557
0.00087430548
0.00011643546
0.00086597316
0.00011170407
0.00085182701
0.00010679854
0.00083274937
0.00010149084
0.00081042439
9.5046715e-05
0.00078625052
8.7958308e-05
0.00076135706
8.0618041e-05
0.00073666319
7.3265446e-05
0.00071285618
6.6133244e-05
0.00069039755
5.9387919e-05
0.00066954526
5.3129914e-05
0.00065038264
4.7458971e-05
0.00063287306
4.2414899e-05
0.00061691466
3.7996412e-05
0.00060237233
3.414306e-05
0.0005891099
3.0810547e-05
0.00057699421
2.7950635e-05
0.000565901
2.5484805e-05
0.00055571582
2.3348238e-05
0.00054633334
2.1497496e-05
0.00053765759
1.9892032e-05
0.00052960583
1.848926e-05
0.0005221096
1.7257887e-05
0.00051510819
1.6177523e-05
0.00050854812
1.5221218e-05
0.00050238254
1.4366196e-05
0.00049657014
1.3601322e-05
0.00049107451
1.2915944e-05
0.0004858647
1.229868e-05
0.00048091376
1.1739597e-05
0.00047619759
1.1239765e-05
0.00047169474
1.0790626e-05
0.00046738595
1.03785e-05
0.00046325414
1.0005064e-05
0.00045928431
9.6647008e-06
0.00045546327
9.352493e-06
0.00045177878
9.0667366e-06
0.00044822022
8.8023622e-06
0.00044477798
8.5575011e-06
0.00044144331
8.3309003e-06
0.00043820859
8.119461e-06
0.0004350665
7.9242044e-06
0.00043201052
7.7429251e-06
0.00042903511
7.5727044e-06
0.0004261349
7.4139295e-06
0.00042330523
7.2640965e-06
0.00042054182
7.1226716e-06
0.00041784071
6.9890963e-06
0.00041519852
6.8619061e-06
0.00041261198
6.7416462e-06
0.00041007816
6.6268975e-06
0.00040759423
6.5179611e-06
0.00040515759
6.4145597e-06
0.00040276602
6.315715e-06
0.00040041742
6.2209578e-06
0.00039810999
6.1292719e-06
0.00039584186
6.041238e-06
0.00039361137
5.9564033e-06
0.00039141696
5.8746394e-06
0.0003892572
5.7955935e-06
0.00038713068
5.719393e-06
0.00038503607
5.6459488e-06
0.00038297221
5.5747741e-06
0.00038093802
5.5055925e-06
0.00037893252
5.4382323e-06
0.00037695474
5.3727626e-06
0.00037500378
5.3090594e-06
0.0003730787
5.247297e-06
0.00037117851
5.187721e-06
0.00036930209
5.130797e-06
0.00036744833
5.0765166e-06
0.00036561609
5.024908e-06
0.00036380427
4.9757325e-06
0.00036201178
4.9290277e-06
0.00036023751
4.8847923e-06
0.00035848023
4.843567e-06
0.00035673846
4.8060382e-06
0.0003550103
4.7737046e-06
0.00035329327
4.7483155e-06
0.00035158405
4.7325463e-06
0.00034987823
4.7297267e-06
0.00034816998
4.7441095e-06
0.00034645177
4.7808749e-06
0.00034471383
4.8464568e-06
0.00034294423
4.9475887e-06
0.0003411272
5.0942788e-06
0.0003392458
5.291765e-06
0.00033727415
5.5602045e-06
0.00033519229
5.8924541e-06
0.00033295129
6.3457543e-06
0.00033053346
6.8788525e-06
0.00032781813
7.6796834e-06
0.00032487253
8.4751791e-06
0.00032119793
9.4379265e-06
1.0495035e-05
0.00088919211
7.1361622e-05
-0.00088626022
0.00089495341
9.5850074e-05
0.00090126358
0.00011111982
0.00090658992
0.00011670768
0.0009103291
0.0001166764
0.00091283823
0.00011392632
0.00091391922
0.00011062309
0.00091316951
0.00010754824
0.00091030091
0.00010435945
0.00090429781
0.00010104981
0.00089473125
9.7524867e-05
0.00088175589
9.3593401e-05
0.00086599582
8.902552e-05
0.00084815951
8.3969556e-05
0.00082889289
7.865453e-05
0.00080883777
7.3185039e-05
0.00078860406
6.769268e-05
0.00076871602
6.230294e-05
0.0007495776
5.713483e-05
0.00073144975
5.2270911e-05
0.00071446312
4.7797176e-05
0.00069864147
4.3772283e-05
0.00068394646
4.0179823e-05
0.00067031117
3.6983521e-05
0.00065765737
3.41513e-05
0.00064590392
3.1645486e-05
0.00063497073
2.9422449e-05
0.00062478171
2.7446899e-05
0.00061526494
2.5694296e-05
0.00060635536
2.4130798e-05
0.00059799494
2.2726617e-05
0.00059013076
2.1465498e-05
0.00058271493
2.0331773e-05
0.00057570569
1.9307923e-05
0.00056906531
1.8379976e-05
0.00056276203
1.7543053e-05
0.00055676707
1.6785579e-05
0.00055105242
1.6093155e-05
0.00054559453
1.5462949e-05
0.00054037237
1.4886864e-05
0.00053536691
1.4357953e-05
0.00053056046
1.3873189e-05
0.00052593743
1.3425393e-05
0.00052148373
1.3011193e-05
0.00051718631
1.2628321e-05
0.00051303389
1.2271882e-05
0.00050901624
1.1941854e-05
0.00050512409
1.1635081e-05
0.00050134923
1.1347561e-05
0.00049768376
1.1079403e-05
0.0004941206
1.0827252e-05
0.0004906533
1.058997e-05
0.00048727593
1.0366464e-05
0.0004839833
1.0154538e-05
0.00048077045
9.9544928e-06
0.0004776329
9.7644515e-06
0.00047456645
9.5844133e-06
0.00047156737
9.4136361e-06
0.00046863234
9.2507454e-06
0.00046575814
9.0951632e-06
0.00046294183
8.9455771e-06
0.00046018063
8.8024444e-06
0.00045747197
8.6650564e-06
0.0004548135
8.533112e-06
0.00045220301
8.4060814e-06
0.00044963841
8.2839931e-06
0.00044711776
8.1666011e-06
0.00044463928
8.0532496e-06
0.00044220133
7.9435505e-06
0.00043980235
7.8372062e-06
0.00043744091
7.7342001e-06
0.00043511564
7.6343348e-06
0.00043282514
7.5377992e-06
0.00043056799
7.4448706e-06
0.0004283427
7.3560825e-06
0.00042614778
7.2714422e-06
0.00042398168
7.1910034e-06
0.00042184292
7.1144963e-06
0.00041972998
7.0419599e-06
0.00041764137
6.9734032e-06
0.00041557544
6.9094997e-06
0.00041353032
6.8511545e-06
0.00041150371
6.8003148e-06
0.00040949271
6.7593211e-06
0.00040749352
6.7317395e-06
0.00040550119
6.722054e-06
0.00040350925
6.7360523e-06
0.00040150938
6.7807444e-06
0.00039949077
6.8650623e-06
0.00039744026
6.998103e-06
0.00039534029
7.1942409e-06
0.00039317205
7.4600048e-06
0.00039090632
7.8259401e-06
0.00038852074
8.2780368e-06
0.00038595904
8.9074474e-06
0.00038320233
9.6355632e-06
0.00038011091
1.077111e-05
0.0003767701
1.1815981e-05
0.00037248743
1.3720595e-05
1.3944489e-05
0.00092016068
6.88587e-05
-0.00091765775
0.00092525766
9.0753091e-05
0.00093102662
0.00010535087
0.00093613812
0.00011159618
0.00094022358
0.00011259094
0.00094319654
0.00011095335
0.00094529905
0.00010852059
0.0009467797
0.00010606759
0.00094768906
0.0001034501
0.00094795132
0.00010078754
0.00094731125
9.8164945e-05
0.00094535591
9.5548743e-05
0.00094148631
9.2895112e-05
0.00093526231
9.0193562e-05
0.00092649186
8.7424974e-05
0.000915291
8.4385903e-05
0.0009019837
8.099998e-05
0.00088689806
7.738858e-05
0.00087043271
7.3600178e-05
0.00085307018
6.9633441e-05
0.00083532726
6.5540102e-05
0.00081767329
6.1426251e-05
0.00080048422
5.7368888e-05
0.00078401204
5.3455706e-05
0.00076838765
4.9775692e-05
0.00075365242
4.6380717e-05
0.00073979621
4.327866e-05
0.00072678351
4.0459591e-05
0.00071456614
3.7911664e-05
0.00070309174
3.5605199e-05
0.00069230621
3.3512146e-05
0.00068215498
3.1616733e-05
0.00067258599
2.9900767e-05
0.00066355151
2.8342399e-05
0.00065500627
2.6925212e-05
0.00064690972
2.5639604e-05
0.00063922596
2.4469339e-05
0.00063192043
2.3398684e-05
0.00062496204
2.2421341e-05
0.00061832341
2.1525496e-05
0.00061197955
2.0701812e-05
0.00060590713
1.9945611e-05
0.00060008528
1.9247238e-05
0.00059449509
1.8601385e-05
0.00058911891
1.80045e-05
0.00058394119
1.7449605e-05
0.00057894794
1.6935106e-05
0.00057412648
1.6456538e-05
0.00056946547
1.6008579e-05
0.00056495404
1.5590833e-05
0.00056058246
1.5198829e-05
0.00055634181
1.4830615e-05
0.00055222382
1.4484458e-05
0.00054822109
1.4157265e-05
0.00054432657
1.3849018e-05
0.00054053389
1.3557134e-05
0.00053683733
1.3280965e-05
0.00053323177
1.3019201e-05
0.00052971246
1.2770057e-05
0.00052627482
1.2532801e-05
0.00052291468
1.2305717e-05
0.00051962811
1.2089011e-05
0.00051641154
1.1881624e-05
0.00051326161
1.1683046e-05
0.00051017517
1.1492523e-05
0.0005071493
1.130986e-05
0.00050418133
1.113457e-05
0.00050126875
1.0965829e-05
0.0004984092
1.0803101e-05
0.00049560051
1.06459e-05
0.00049284064
1.0494072e-05
0.00049012764
1.0347329e-05
0.00048745959
1.0205855e-05
0.00048483456
1.0069902e-05
0.00048225062
9.9400222e-06
0.00047970582
9.816235e-06
0.0004771982
9.6986252e-06
0.0004747258
9.5869009e-06
0.00047228665
9.4811043e-06
0.0004698788
9.3812542e-06
0.00046750015
9.2881478e-06
0.00046514841
9.2029025e-06
0.00046282081
9.1279088e-06
0.00046051402
9.0661089e-06
0.00045822378
9.0219846e-06
0.00045594461
9.0012247e-06
0.00045366942
9.0112385e-06
0.00045138918
9.0609843e-06
0.00044909216
9.1620887e-06
0.00044676403
9.3262252e-06
0.00044438572
9.5725591e-06
0.00044193657
9.9091532e-06
0.0004393845
1.0378007e-05
0.00043670462
1.0957919e-05
0.00043383481
1.1777251e-05
0.0004307539
1.2716477e-05
0.00042730848
1.4216529e-05
0.00042359532
1.5529144e-05
0.00041876327
1.8552639e-05
1.7680854e-05
0.00095225339
6.6676878e-05
-0.00095007157
0.0009567639
8.6242589e-05
0.0009620548
0.00010005996
0.00096685106
0.00010679992
0.00097074922
0.00010869278
0.00097373442
0.00010796816
0.00097603816
0.00010621684
0.00097788859
0.00010421716
0.00097931361
0.00010202507
0.00098036321
9.9737947e-05
0.00098109944
9.742871e-05
0.00098152635
9.5121841e-05
0.00098155654
9.2864923e-05
0.00098101588
9.0734214e-05
0.00097973102
8.8709835e-05
0.00097732895
8.6787972e-05
0.00097334749
8.498145e-05
0.00096749782
8.3238246e-05
0.00095960231
8.1495684e-05
0.00094966702
7.9568735e-05
0.00093782496
7.7382156e-05
0.00092428048
7.4970732e-05
0.00090936287
7.2286498e-05
0.00089351889
6.9299684e-05
0.00087723648
6.6058103e-05
0.00086096031
6.2656894e-05
0.00084503603
5.9202931e-05
0.00082968474
5.581088e-05
0.00081501634
5.2580072e-05
0.00080106942
4.9552121e-05
0.00078784415
4.6737407e-05
0.00077532082
4.4140064e-05
0.00076346916
4.1752433e-05
0.00075225293
3.9558624e-05
0.00074163156
3.7546588e-05
0.00073156404
3.570712e-05
0.0007220121
3.4021283e-05
0.00071293829
3.2472492e-05
0.00070430676
3.1052867e-05
0.00069608491
2.9747351e-05
0.00068824264
2.8544077e-05
0.0006807517
2.7436556e-05
0.00067358632
2.6412612e-05
0.00066672286
2.5464847e-05
0.00066013927
2.4588086e-05
0.00065381559
2.3773294e-05
0.00064773343
2.3017256e-05
0.0006418762
2.2313768e-05
0.00063622893
2.1655857e-05
0.0006307775
2.1042264e-05
0.00062550919
2.0467133e-05
0.00062041229
1.9927516e-05
0.00061547592
1.9420824e-05
0.00061069026
1.8942929e-05
0.00060604595
1.8493328e-05
0.00060153453
1.8068557e-05
0.00059714833
1.766716e-05
0.0005928804
1.7287133e-05
0.00058872432
1.6926141e-05
0.00058467399
1.6583126e-05
0.00058072385
1.625586e-05
0.00057686867
1.594419e-05
0.00057310368
1.5646617e-05
0.0005694243
1.536242e-05
0.00056582629
1.5090538e-05
0.00056230579
1.4830358e-05
0.00055885925
1.4581105e-05
0.00055548329
1.434179e-05
0.00055217473
1.4111669e-05
0.00054893061
1.3890014e-05
0.0005457482
1.3676485e-05
0.00054262488
1.3470648e-05
0.0005395581
1.3272638e-05
0.00053654537
1.3082631e-05
0.00053358423
1.2901158e-05
0.00053067223
1.2728236e-05
0.00052780688
1.2563975e-05
0.00052498572
1.2408064e-05
0.00052220627
1.226055e-05
0.00051946607
1.2121461e-05
0.00051676251
1.1991706e-05
0.0005140928
1.1872606e-05
0.00051145373
1.1766982e-05
0.00050884146
1.1678379e-05
0.00050625124
1.1612205e-05
0.00050367707
1.1575391e-05
0.00050111128
1.1577031e-05
0.00049854413
1.1628136e-05
0.00049596302
1.1743193e-05
0.00049335259
1.193666e-05
0.00049069229
1.2232858e-05
0.00048795975
1.264169e-05
0.0004851203
1.3217456e-05
0.00048214643
1.3931788e-05
0.00047897111
1.4952573e-05
0.00047557036
1.6117226e-05
0.00047178028
1.8006608e-05
0.00046770619
1.9603237e-05
0.00046235713
2.3901702e-05
2.1709381e-05
0.00098550854
6.4719127e-05
-0.00098355079
0.00098951794
8.2233187e-05
0.00099436429
9.5213611e-05
0.00099890812
0.00010225609
0.0010026834
0.00010491749
0.0010056374
0.00010501416
0.0010079469
0.00010390737
0.0010098143
0.00010234975
0.0010113286
0.0001005108
0.0010125584
9.8508105e-05
0.0010135449
9.6442254e-05
0.0010142987
9.4368046e-05
0.0010148293
9.2334284e-05
0.0010152033
9.036017e-05
0.0010153747
8.853849e-05
0.001015262
8.6900614e-05
0.0010148347
8.5408824e-05
0.0010139545
8.4118444e-05
0.0010124171
8.303305e-05
0.0010098853
8.2100564e-05
0.0010059966
8.1270818e-05
0.0010004445
8.0522871e-05
0.00099303377
7.9697205e-05
0.00098371725
7.86162e-05
0.00097254528
7.7230071e-05
0.00095970501
7.5497171e-05
0.00094554559
7.3362343e-05
0.00093053202
7.0824459e-05
0.00091514417
6.7967918e-05
0.00089979452
6.490177e-05
0.0008847756
6.1756331e-05
0.00087025752
5.8658145e-05
0.0008563218
5.5688152e-05
0.00084299953
5.2880894e-05
0.00083029445
5.0251671e-05
0.00081819427
4.7807299e-05
0.00080667756
4.5537992e-05
0.00079571629
4.3433764e-05
0.00078527903
4.1490119e-05
0.00077533449
3.969189e-05
0.00076585174
3.8026825e-05
0.00075680039
3.6487913e-05
0.00074815186
3.5061138e-05
0.00073987914
3.3737568e-05
0.00073195663
3.2510596e-05
0.00072436069
3.1369238e-05
0.00071706908
3.0308861e-05
0.00071006142
2.9321428e-05
0.00070331911
2.8398165e-05
0.00069682462
2.7536758e-05
0.00069056198
2.6729772e-05
0.00068451643
2.5973069e-05
0.00067867432
2.5262932e-05
0.00067302322
2.4594033e-05
0.00066755137
2.3965174e-05
0.00066224802
2.3371905e-05
0.00065710322
2.2811963e-05
0.00065210787
2.2282484e-05
0.00064725364
2.178037e-05
0.00064253273
2.1304036e-05
0.00063793796
2.085063e-05
0.0006334626
2.0419548e-05
0.00062910047
2.0008745e-05
0.00062484571
1.9617188e-05
0.00062069282
1.9243424e-05
0.00061663683
1.8886353e-05
0.0006126731
1.8544828e-05
0.00060879727
1.821762e-05
0.00060500522
1.7903723e-05
0.0006012931
1.7602129e-05
0.00059765733
1.7312255e-05
0.00059409453
1.7033447e-05
0.00059060145
1.6765723e-05
0.00058717494
1.6509143e-05
0.00058381192
1.6264172e-05
0.00058050936
1.6030801e-05
0.00057726418
1.5809151e-05
0.00057407336
1.5598888e-05
0.00057093384
1.5400065e-05
0.00056784259
1.5212712e-05
0.00056479645
1.5037845e-05
0.00056179209
1.4876969e-05
0.00055882575
1.4733323e-05
0.00055589309
1.4611042e-05
0.00055298883
1.4516466e-05
0.00055010643
1.4457784e-05
0.00054723764
1.4445829e-05
0.00054437203
1.4493746e-05
0.00054149619
1.4619027e-05
0.00053859374
1.483911e-05
0.0005356428
1.5183803e-05
0.00053261931
1.5665179e-05
0.00052948622
1.6350551e-05
0.00052621339
1.7204613e-05
0.0005227295
1.8436462e-05
0.00051900756
1.9839164e-05
0.00051487519
2.2138982e-05
0.00051044517
2.4033256e-05
0.00050459753
2.9749344e-05
2.6034201e-05
0.0010198858
6.2914881e-05
-0.0010180816
0.001023485
7.8633996e-05
0.0010279196
9.0779063e-05
0.0010322115
9.7964196e-05
0.0010358914
0.00010123755
0.0010388515
0.00010205404
0.0010411996
0.00010155933
0.0010430972
0.0001004521
0.0010446396
9.8968378e-05
0.0010458982
9.7249509e-05
0.0010469257
9.5414804e-05
0.001047756
9.353769e-05
0.0010484157
9.1674649e-05
0.0010489176
8.9858273e-05
0.0010492831
8.8172944e-05
0.0010495278
8.6655889e-05
0.0010496585
8.5278165e-05
0.0010496767
8.4100206e-05
0.0010495534
8.3156366e-05
0.0010492368
8.2417242e-05
0.001048634
8.1873549e-05
0.0010476258
8.1531093e-05
0.001045982
8.1340961e-05
0.0010433565
8.1241748e-05
0.0010394067
8.117986e-05
0.0010338163
8.1087535e-05
0.0010263859
8.0792826e-05
0.0010170596
8.0150682e-05
0.0010059042
7.9123399e-05
0.00099316847
7.7637452e-05
0.00097926992
7.5654884e-05
0.00096469833
7.3229736e-05
0.00094990819
7.0478287e-05
0.00093524573
6.7543353e-05
0.00092092881
6.4568598e-05
0.00090707361
6.1662501e-05
0.00089373638
5.8875215e-05
0.00088094022
5.6229925e-05
0.00086868804
5.3742298e-05
0.00085697031
5.1409626e-05
0.00084576894
4.9228192e-05
0.00083506096
4.7195898e-05
0.00082482184
4.5300253e-05
0.00081502605
4.3533362e-05
0.00080564779
4.1888854e-05
0.00079666224
4.0354791e-05
0.00078804514
3.8925959e-05
0.00077977359
3.7592976e-05
0.00077182621
3.6345546e-05
0.00076418251
3.5180454e-05
0.00075682362
3.4088664e-05
0.00074973187
3.3064818e-05
0.00074289085
3.2103953e-05
0.00073628547
3.1199411e-05
0.00072990147
3.0349174e-05
0.00072372571
2.954767e-05
0.0007177459
2.8791776e-05
0.0007119507
2.8077677e-05
0.0007063297
2.7401371e-05
0.00070087315
2.6760585e-05
0.00069557209
2.6151695e-05
0.00069041807
2.5573563e-05
0.00068540334
2.5023478e-05
0.00068052061
2.4499918e-05
0.00067576307
2.400096e-05
0.00067112439
2.3525031e-05
0.0006665987
2.3070519e-05
0.00066218051
2.2635813e-05
0.00065786464
2.2219592e-05
0.00065364626
2.1820516e-05
0.0006495208
2.143771e-05
0.00064548402
2.1070229e-05
0.00064153184
2.0717901e-05
0.00063766038
2.0380608e-05
0.00063386584
2.0058707e-05
0.00063014452
1.9752124e-05
0.0006264927
1.9460969e-05
0.00062290671
1.9184878e-05
0.00061938287
1.8923905e-05
0.0006159175
1.867808e-05
0.00061250684
1.8448511e-05
0.00060914693
1.8236873e-05
0.00060583345
1.8046801e-05
0.00060256149
1.7883006e-05
0.00059932521
1.7752745e-05
0.00059611752
1.7665477e-05
0.00059292954
1.7633805e-05
0.00058975021
1.7673076e-05
0.00058656533
1.780391e-05
0.00058335753
1.8046909e-05
0.00058010367
1.8437656e-05
0.0005767781
1.8990751e-05
0.00057334154
1.9787119e-05
0.00056976127
2.0784881e-05
0.00056596213
2.2235595e-05
0.00056191407
2.388723e-05
0.00055743752
2.6615533e-05
0.0005526525
2.8818274e-05
0.00054631656
3.6085287e-05
3.0659351e-05
0.0010553698
6.1226045e-05
-0.001053681
0.0010586297
7.5374142e-05
0.0010626974
8.6711326e-05
0.0010667369
9.3924661e-05
0.001070304
9.7670447e-05
0.0010732613
9.9096822e-05
0.001075659
9.9161554e-05
0.0010776151
9.8495981e-05
0.0010792127
9.7370823e-05
0.0010805168
9.594542e-05
0.0010815805
9.4351061e-05
0.0010824436
9.2674641e-05
0.0010831375
9.0980757e-05
0.0010836824
8.9313324e-05
0.0010841066
8.7748761e-05
0.0010844326
8.6329914e-05
0.0010846633
8.5047496e-05
0.0010848136
8.3949871e-05
0.0010849102
8.3059798e-05
0.0010849462
8.2381184e-05
0.0010849081
8.1911665e-05
0.0010847955
8.164371e-05
0.0010845703
8.1566143e-05
0.0010841646
8.1647426e-05
0.0010834769
8.1867628e-05
0.0010823571
8.2207317e-05
0.0010805279
8.2622022e-05
0.0010776252
8.3053314e-05
0.0010732885
8.3460125e-05
0.0010672214
8.3704532e-05
0.0010592634
8.3612876e-05
0.0010493915
8.3101699e-05
0.0010377738
8.2095957e-05
0.00102478
8.053719e-05
0.0010108969
7.8451713e-05
0.00099660388
7.5955474e-05
0.00098228256
7.3196544e-05
0.00096818257
7.0329906e-05
0.00095444473
6.7480147e-05
0.00094114406
6.4710294e-05
0.00092831839
6.2053861e-05
0.00091598247
5.9531817e-05
0.00090413641
5.7146308e-05
0.00089277014
5.4899637e-05
0.00088186759
5.27914e-05
0.00087140992
5.0812463e-05
0.00086137601
4.8959875e-05
0.00085174417
4.7224809e-05
0.00084249294
4.5596781e-05
0.00083360078
4.407261e-05
0.00082504727
4.2642171e-05
0.00081681283
4.1299265e-05
0.00080887889
4.0037885e-05
0.00080122817
3.885013e-05
0.00079384413
3.7733217e-05
0.0007867114
3.6680401e-05
0.00077981549
3.5687684e-05
0.00077314289
3.4750275e-05
0.00076668106
3.3863208e-05
0.00076041821
3.3023429e-05
0.00075434349
3.2226417e-05
0.00074844665
3.1470404e-05
0.00074271821
3.0751918e-05
0.00073714931
3.0068813e-05
0.00073173169
2.9418585e-05
0.00072645758
2.8799145e-05
0.00072131974
2.8208359e-05
0.00071631141
2.7644134e-05
0.00071142626
2.7104747e-05
0.00070665831
2.6588466e-05
0.00070200195
2.609407e-05
0.00069745192
2.562026e-05
0.00069300323
2.5166585e-05
0.00068865115
2.4732689e-05
0.00068439109
2.4318775e-05
0.00068021856
2.3924649e-05
0.00067612915
2.355038e-05
0.00067211847
2.319556e-05
0.00066818213
2.2860239e-05
0.00066431577
2.2544439e-05
0.00066051494
2.2249349e-05
0.00065677501
2.1976796e-05
0.00065309103
2.1730786e-05
0.00064945745
2.1516579e-05
0.00064586786
2.1342336e-05
0.00064231457
2.1218775e-05
0.00063878808
2.1160288e-05
0.00063527668
2.1184475e-05
0.00063176541
2.1315181e-05
0.00062823599
2.1576337e-05
0.00062466408
2.2009564e-05
0.00062102249
2.2632337e-05
0.00061726989
2.3539722e-05
0.00061337106
2.468371e-05
0.0006092474
2.6359259e-05
0.00060486576
2.8268868e-05
0.0006000403
3.1440986e-05
0.00059489839
3.396019e-05
0.00058807917
4.2904506e-05
3.5589206e-05
0.0010919814
5.9632401e-05
-0.0010903878
0.0010949521
7.2403452e-05
0.001098694
8.2969439e-05
0.0011024927
9.0125936e-05
0.0011059331
9.4230056e-05
0.0011088634
9.6166547e-05
0.0011112944
9.6730575e-05
0.0011133071
9.648329e-05
0.0011149686
9.5709313e-05
0.0011163341
9.4579874e-05
0.0011174522
9.3233026e-05
0.0011183616
9.1765166e-05
0.0011190947
9.0247658e-05
0.0011196754
8.8732689e-05
0.0011201321
8.7291991e-05
0.0011204894
8.597261e-05
0.0011207587
8.4778255e-05
0.0011209576
8.3750986e-05
0.0011211009
8.2916475e-05
0.0011211998
8.2282296e-05
0.0011212634
8.1848042e-05
0.0011212985
8.1608642e-05
0.0011213059
8.1558693e-05
0.0011212776
8.1675776e-05
0.0011211988
8.1946366e-05
0.001121045
8.2361155e-05
0.0011207684
8.2898601e-05
0.0011202847
8.3537041e-05
0.0011194777
8.4267076e-05
0.0011181254
8.5056862e-05
0.0011158842
8.585412e-05
0.0011123729
8.6612965e-05
0.0011072313
8.7237578e-05
0.0011002142
8.755429e-05
0.0010912379
8.7428024e-05
0.0010804143
8.6779037e-05
0.0010680802
8.5530645e-05
0.0010547192
8.3690858e-05
0.0010408252
8.1374208e-05
0.0010267977
7.873783e-05
0.0010129018
7.594974e-05
0.00099929155
7.3142038e-05
0.00098605384
7.0384025e-05
0.00097323642
6.7717056e-05
0.00096086253
6.5165288e-05
0.00094893939
6.2735606e-05
0.00093746287
6.0436393e-05
0.00092642245
5.8265227e-05
0.0009158037
5.6215534e-05
0.00090558919
5.4287116e-05