/*--------------------------------*- C++ -*----------------------------------*\
| =========                 |                                                 |
| \\      /  F ield         | OpenFOAM: The Open Source CFD Toolbox           |
|  \\    /   O peration     | Version:  2206                                  |
|   \\  /    A nd           | Website:  www.openfoam.com                      |
|    \\/     M anipulation  |                                                 |
\*---------------------------------------------------------------------------*/
FoamFile
{
    version     2.0;
    format      ascii;
    arch        "LSB;label=32;scalar=64";
    class       volVectorField;
    location    "400";
    object      U;
}
// * * * * * * * * * * * * * * * * * * * * * * * * * * * * * * * * * * * * * //

dimensions      [0 1 -1 0 0 0 0];

internalField   nonuniform List<vector> 
7480
(
(0.86067813 0.014731894 5.8426305e-16)
(0.74495432 0.025616725 0)
(0.62905146 0.027277635 0)
(0.52562066 0.019503367 0)
(0.44982895 0.009408175 0)
(0.39751567 0.0037515057 0)
(0.35974388 0.0017183895 0)
(0.33060378 0.001208116 0)
(0.30689371 0.0010840737 0)
(0.28700775 0.00096687468 0)
(0.27017478 0.00081831644 0)
(0.25591483 0.0006708002 0)
(0.24382347 0.00054252856 0)
(0.23354763 0.00043768676 0)
(0.22478839 0.00035418294 0)
(0.21729168 0.00028685598 0)
(0.21085983 0.00023260164 0)
(0.20533061 0.00018169069 0)
(0.2005304 0.00030284628 -1.7334373e-17)
(0.19638055 0.00022147425 -7.2584224e-18)
(0.19271467 0.0001186709 0)
(0.18945424 8.9111486e-05 0)
(0.18651816 7.7472358e-05 0)
(0.18384475 6.8634839e-05 0)
(0.18139234 6.1142545e-05 0)
(0.17912417 5.4831197e-05 0)
(0.17701563 4.9489141e-05 0)
(0.17504229 4.5158952e-05 0)
(0.17318226 4.1750233e-05 0)
(0.1714173 3.8823254e-05 0)
(0.16973717 3.6102777e-05 0)
(0.16813407 3.3666291e-05 0)
(0.16659962 3.1501994e-05 0)
(0.16512718 2.9562032e-05 0)
(0.16370925 2.7820057e-05 0)
(0.16234271 2.6328731e-05 0)
(0.16101636 2.5025412e-05 0)
(0.15972902 2.3770565e-05 0)
(0.15847715 2.2635635e-05 0)
(0.1572567 2.1604102e-05 0)
(0.15606485 2.0650643e-05 0)
(0.15489887 1.9780342e-05 0)
(0.15375667 1.8941733e-05 0)
(0.15263703 1.8145534e-05 0)
(0.1515381 1.7403537e-05 0)
(0.1504589 1.6686473e-05 0)
(0.14939799 1.6023779e-05 0)
(0.14835365 1.5400899e-05 0)
(0.14732504 1.4796391e-05 0)
(0.14631118 1.4231193e-05 0)
(0.14531128 1.3680023e-05 0)
(0.14432489 1.3150055e-05 0)
(0.14335138 1.2643775e-05 0)
(0.1423904 1.215075e-05 0)
(0.14144139 1.1684953e-05 0)
(0.14050389 1.1232133e-05 0)
(0.13957761 1.0799418e-05 0)
(0.13866198 1.0386871e-05 0)
(0.13775657 9.9894949e-06 0)
(0.13686101 9.6082214e-06 0)
(0.13597525 9.2355873e-06 0)
(0.13509913 8.8789836e-06 0)
(0.1342324 8.5342605e-06 0)
(0.13337486 8.203087e-06 0)
(0.13252633 7.88342e-06 0)
(0.13168666 7.576371e-06 0)
(0.13085557 7.281763e-06 0)
(0.13003289 6.9977222e-06 0)
(0.1292185 6.7237495e-06 0)
(0.12841232 6.4592154e-06 0)
(0.12761426 6.2049849e-06 0)
(0.12682417 5.9600373e-06 0)
(0.12604192 5.7250502e-06 0)
(0.12526735 5.4996413e-06 0)
(0.12450015 5.2848886e-06 0)
(0.12374 5.0794603e-06 0)
(0.12298657 4.8832779e-06 0)
(0.12223962 4.6948257e-06 0)
(0.12149888 4.5143746e-06 0)
(0.12076413 4.3410391e-06 0)
(0.12003506 4.1758785e-06 0)
(0.11931128 4.0188236e-06 0)
(0.11859215 3.8717985e-06 0)
(0.11787678 3.7356324e-06 0)
(0.11716386 3.6125885e-06 0)
(0.11645157 3.5049184e-06 0)
(0.11573748 3.4147606e-06 0)
(0.11501827 3.3460056e-06 0)
(0.11428989 3.299869e-06 0)
(0.11354675 3.2830304e-06 0)
(0.11278301 3.2914844e-06 0)
(0.11198923 3.3423322e-06 0)
(0.11115976 3.4061149e-06 0)
(0.1102755 3.5526888e-06 0)
(0.10934178 3.6362557e-06 0)
(0.10830487 3.9717258e-06 0)
(0.10722173 3.9332664e-06 -1.8234374e-21)
(0.10590309 1.0057704e-05 6.0443233e-20)
(0.10471816 -4.2783649e-07 -4.8273671e-19)
(0.10244687 1.8260318e-05 -2.0432399e-18)
(0.9574466 0.02477336 0)
(0.94355257 0.032437509 0)
(0.91255111 0.032602765 0)
(0.86092157 0.028822159 0)
(0.79799304 0.022977717 0)
(0.734874 0.017319751 0)
(0.67789869 0.012910261 0)
(0.62908565 0.0098335381 0)
(0.58803715 0.0077478177 0)
(0.55351404 0.0062556024 0)
(0.52429252 0.0051191042 0)
(0.49938917 0.0042186249 0)
(0.47805006 0.003487977 0)
(0.4596955 0.0028901563 0)
(0.44385771 0.0023994243 0)
(0.43016375 0.0019948456 0)
(0.41828936 0.0016632849 0)
(0.40794739 0.0013942545 0)
(0.39887519 0.0011765369 0)
(0.39087613 0.00098988995 0)
(0.38376647 0.00085103408 0)
(0.37739384 0.00074336439 0)
(0.37163091 0.00065340115 0)
(0.3663777 0.00057869401 0)
(0.36155679 0.00051682842 0)
(0.35710051 0.00046483383 0)
(0.35296204 0.00042046867 0)
(0.34909484 0.00038286731 0)
(0.34546084 0.00035114023 0)
(0.34202814 0.00032365441 0)
(0.33877466 0.00029912666 0)
(0.33568205 0.00027726914 0)
(0.33273295 0.00025777732 0)
(0.32991303 0.0002403341 0)
(0.32720783 0.00022460802 0)
(0.32460959 0.0002107408 0)
(0.32209859 0.00019842992 0)
(0.31967157 0.00018703222 0)
(0.31732018 0.00017670315 0)
(0.31503634 0.00016729619 0)
(0.31281422 0.00015865405 0)
(0.31064845 0.00015072421 0)
(0.30853442 0.00014331942 0)
(0.3064688 0.00013640515 0)
(0.30444776 0.00012996882 0)
(0.30246875 0.0001239132 0)
(0.30052857 0.00011829064 0)
(0.298624 0.00011303891 0)
(0.29675287 0.00010807264 0)
(0.29491309 0.00010341538 0)
(0.29310279 9.8988623e-05 0)
(0.29132064 9.4786313e-05 0)
(0.28956517 9.0800266e-05 0)
(0.28783533 8.6995613e-05 0)
(0.28612986 8.3394418e-05 0)
(0.28444771 7.9954248e-05 0)
(0.28278797 7.6683355e-05 0)
(0.28114952 7.3577704e-05 0)
(0.27953135 7.0615953e-05 0)
(0.2779327 6.778709e-05 0)
(0.27635313 6.5065373e-05 0)
(0.2747922 6.2464472e-05 0)
(0.27324928 5.9972958e-05 0)
(0.27172385 5.7588629e-05 0)
(0.27021546 5.530257e-05 0)
(0.26872368 5.3115009e-05 0)
(0.26724794 5.1022897e-05 0)
(0.26578778 4.9016501e-05 0)
(0.26434291 4.7089795e-05 0)
(0.26291306 4.523862e-05 0)
(0.26149794 4.3463064e-05 0)
(0.26009724 4.1758961e-05 0)
(0.25871064 4.0126243e-05 0)
(0.25733779 3.8564184e-05 0)
(0.25597811 3.7075284e-05 0)
(0.25463101 3.5655003e-05 0)
(0.25329586 3.4300357e-05 0)
(0.25197213 3.3005121e-05 0)
(0.25065931 3.1767534e-05 0)
(0.24935691 3.0584437e-05 0)
(0.24806435 2.945842e-05 0)
(0.24678087 2.839122e-05 0)
(0.24550537 2.7391048e-05 0)
(0.24423625 2.6465005e-05 0)
(0.24297133 2.562564e-05 0)
(0.24170746 2.4887017e-05 0)
(0.24044051 2.4265476e-05 0)
(0.2391648 2.3781497e-05 0)
(0.23787339 2.3454794e-05 0)
(0.23655667 2.3310197e-05 0)
(0.23520447 2.3368439e-05 0)
(0.23380047 2.3654331e-05 0)
(0.23233435 2.4185182e-05 0)
(0.23077305 2.4999925e-05 0)
(0.22912374 2.6082696e-05 0)
(0.22729409 2.7665681e-05 0)
(0.22537602 2.953226e-05 3.2765957e-21)
(0.22304646 3.2931429e-05 0)
(0.22092024 2.6564164e-05 0)
(0.21686566 4.8761228e-05 0)
(0.96593902 0.026117241 0)
(0.97082978 0.035011148 0)
(0.97587523 0.038641944 0)
(0.97473007 0.037550992 0)
(0.96013126 0.034344709 0)
(0.93193924 0.030003128 0)
(0.89520153 0.025300123 0)
(0.85510959 0.020893088 0)
(0.8149491 0.017153744 0)
(0.77665272 0.014089943 0)
(0.74125611 0.011609901 0)
(0.70921221 0.0096069622 0)
(0.68057684 0.0079822452 0)
(0.65516359 0.0066587637 0)
(0.63266136 0.0055779269 0)
(0.61273946 0.0046911807 0)
(0.5950756 0.0039621955 0)
(0.57937198 0.0033624046 0)
(0.56536075 0.0028666415 0)
(0.55281858 0.0024609859 0)
(0.54154283 0.0021313494 0)
(0.53135493 0.001861529 0)
(0.522103 0.0016387538 0)
(0.51365682 0.0014532684 0)
(0.50590613 0.0012978751 0)
(0.49875522 0.0011666421 0)
(0.4921227 0.0010544113 0)
(0.48594449 0.00095811708 0)
(0.48016578 0.00087557429 0)
(0.47474044 0.00080369284 0)
(0.46962886 0.00074001447 0)
(0.46479735 0.00068349318 0)
(0.46021617 0.00063318923 0)
(0.45586009 0.00058822402 0)
(0.45170667 0.00054776367 0)
(0.44773878 0.0005119647 0)
(0.44393022 0.00048003454 0)
(0.4402726 0.00045071642 0)
(0.43675001 0.00042418983 0)
(0.43334998 0.00040004967 0)
(0.43006254 0.0003779238 0)
(0.4268784 0.0003576463 0)
(0.42378913 0.00033885115 0)
(0.42078791 0.00032140842 0)
(0.41786789 0.00030522889 0)
(0.41502375 0.00029011435 0)
(0.4122498 0.0002761076 0)
(0.40954074 0.00026306511 0)
(0.4068924 0.00025081205 0)
(0.40430088 0.00023935 0)
(0.40176261 0.00022853012 0)
(0.39927464 0.00021831559 0)
(0.39683408 0.00020867003 0)
(0.39443856 0.00019951884 0)
(0.39208569 0.00019087772 0)
(0.38977339 0.00018266721 0)
(0.38749971 0.00017488841 0)
(0.38526261 0.00016752268 0)
(0.38306034 0.00016052251 0)
(0.3808914 0.00015385768 0)
(0.3787546 0.0001474789 0)
(0.37664879 0.00014140043 0)
(0.37457274 0.00013559804 0)
(0.37252535 0.00013006047 0)
(0.37050563 0.00012476766 0)
(0.36851266 0.00011971538 0)
(0.3665454 0.00011489379 0)
(0.36460297 0.00011028149 0)
(0.36268465 0.00010586379 0)
(0.36078978 0.00010163011 0)
(0.35891772 9.7577e-05 0)
(0.35706784 9.3694785e-05 0)
(0.3552395 8.9980844e-05 0)
(0.35343203 8.64329e-05 0)
(0.35164455 8.3053747e-05 0)
(0.34987615 7.9834368e-05 0)
(0.34812587 7.6767485e-05 0)
(0.34639284 7.3840629e-05 0)
(0.3446762 7.1048433e-05 0)
(0.34297511 6.8384164e-05 0)
(0.34128863 6.5851143e-05 0)
(0.33961567 6.3452762e-05 0)
(0.33795471 6.1204266e-05 0)
(0.33630372 5.9120555e-05 0)
(0.33465991 5.7227003e-05 0)
(0.33301944 5.5552963e-05 0)
(0.33137725 5.4133747e-05 0)
(0.32972644 5.3011675e-05 0)
(0.32805858 5.2232742e-05 0)
(0.32636193 5.1845477e-05 0)
(0.32462409 5.1909586e-05 0)
(0.32282481 5.2455342e-05 0)
(0.3209514 5.3585239e-05 0)
(0.31896179 5.526479e-05 0)
(0.31686513 5.7744956e-05 0)
(0.31454182 6.0988894e-05 0)
(0.31210786 6.5675996e-05 2.4560507e-21)
(0.3091473 7.1336018e-05 0)
(0.30641629 6.8588926e-05 0)
(0.30124882 9.3310979e-05 -1.1087363e-19)
(0.96848948 0.024281729 0)
(0.97408062 0.032423969 0)
(0.9821121 0.036268876 0)
(0.98868308 0.036609317 0)
(0.99219197 0.03487294 0)
(0.99182292 0.032393121 0)
(0.98563252 0.029755183 0)
(0.97278964 0.027122217 0)
(0.95345459 0.024444606 0)
(0.92958019 0.021594197 0)
(0.90292408 0.018772816 0)
(0.87488298 0.016142776 0)
(0.84662108 0.013798669 0)
(0.81904367 0.011766844 0)
(0.79279627 0.010024919 0)
(0.76827598 0.0085418398 0)
(0.74566207 0.0072911977 0)
(0.72496514 0.0062447629 0)
(0.70608995 0.0053771799 0)
(0.68889551 0.0046575963 0)
(0.67322383 0.0040596922 0)
(0.65891994 0.003562938 0)
(0.64583959 0.0031464752 0)
(0.63384752 0.0027940043 0)
(0.62281852 0.0024948821 0)
(0.61264019 0.0022399767 0)
(0.60320852 0.0020209628 0)
(0.59444019 0.0018319501 0)
(0.58626319 0.0016685053 0)
(0.57861342 0.0015257062 0)
(0.57143394 0.0013995741 0)
(0.56467535 0.0012879538 0)
(0.55829406 0.0011888908 0)
(0.55225146 0.0011005159 0)
(0.54651591 0.0010212041 0)
(0.54105838 0.00095057206 0)
(0.53585347 0.0008874081 0)
(0.53087794 0.00082990937 0)
(0.52611166 0.00077788929 0)
(0.52153621 0.00073065053 0)
(0.51713598 0.00068748713 0)
(0.5128967 0.0006480283 0)
(0.50880529 0.00061166427 0)
(0.50485058 0.00057809607 0)
(0.50102199 0.00054708814 0)
(0.49731059 0.00051828421 0)
(0.49370783 0.00049165799 0)
(0.49020579 0.00046694615 0)
(0.48679778 0.00044385093 0)
(0.48347771 0.00042231761 0)
(0.48023982 0.00040210664 0)
(0.47707917 0.00038312418 0)
(0.47399102 0.00036528005 0)
(0.4709713 0.00034843742 0)
(0.46801626 0.00033258298 0)
(0.46512242 0.00031759079 0)
(0.46228653 0.00030343928 0)
(0.45950546 0.00029007786 0)
(0.45677652 0.00027742128 0)
(0.45409729 0.00026541313 0)
(0.45146558 0.00025397543 0)
(0.44887935 0.00024311191 0)
(0.44633655 0.00023277771 0)
(0.44383539 0.00022294477 0)
(0.44137418 0.00021357636 0)
(0.43895135 0.00020465797 0)
(0.43656529 0.00019616703 0)
(0.43421462 0.0001880663 0)
(0.43189808 0.00018032893 0)
(0.42961451 0.00017293395 0)
(0.42736281 0.00016587012 0)
(0.42514194 0.00015911925 0)
(0.42295087 0.00015267345 0)
(0.42078854 0.00014652672 0)
(0.41865372 0.00014067957 0)
(0.41654515 0.00013511698 0)
(0.41446153 0.00012982582 0)
(0.41240162 0.00012478613 0)
(0.41036417 0.00011998707 0)
(0.40834796 0.00011541694 0)
(0.4063517 0.00011107814 0)
(0.40437388 0.00010697484 0)
(0.40241267 0.00010312856 0)
(0.40046562 9.9562149e-05 0)
(0.39852953 9.6314401e-05 0)
(0.39660006 9.3431288e-05 0)
(0.39467159 9.0969592e-05 0)
(0.39273649 8.899578e-05 0)
(0.39078541 8.7587572e-05 0)
(0.38880541 8.6818898e-05 0)
(0.3867827 8.6801641e-05 0)
(0.3846947 8.7563098e-05 0)
(0.38252705 8.9335475e-05 0)
(0.38023233 9.1949109e-05 0)
(0.37781968 9.6096261e-05 0)
(0.37515397 0.00010119789 0)
(0.37236166 0.0001094739 1.9206207e-21)
(0.36897674 0.00011768685 0)
(0.36581946 0.0001233705 0)
(0.35989919 0.00014179206 8.4017128e-20)
(0.97032606 0.023188176 0)
(0.9751895 0.030410597 0)
(0.98256785 0.034199686 0)
(0.98964513 0.034745954 0)
(0.99473433 0.033500238 0)
(0.99779134 0.031632019 0)
(1.0002066 0.029736876 0)
(1.000059 0.027978641 0)
(0.99844997 0.026272738 0)
(0.99375566 0.024524567 0)
(0.98525246 0.022725178 0)
(0.97275255 0.020851121 0)
(0.95679735 0.018867908 0)
(0.93821992 0.016860023 0)
(0.91773343 0.014924454 0)
(0.89603457 0.013123545 0)
(0.87383126 0.011501382 0)
(0.85175323 0.010057819 0)
(0.83031454 0.0087905228 0)
(0.80988056 0.0076885925 0)
(0.7906591 0.0067419488 0)
(0.77272222 0.0059390722 0)
(0.7560506 0.0052591482 0)
(0.74057933 0.0046804413 0)
(0.72622524 0.0041854832 0)
(0.71290085 0.0037596431 0)
(0.70051643 0.0033904174 0)
(0.68898588 0.0030688964 0)
(0.67822834 0.002788747 0)
(0.66816833 0.0025430034 0)
(0.65873884 0.0023259203 0)
(0.64987952 0.0021338358 0)
(0.64153535 0.0019634187 0)
(0.63365667 0.0018115098 0)
(0.62620154 0.0016755045 0)
(0.61912949 0.0015541448 0)
(0.61241179 0.0014453518 0)
(0.60601393 0.0013467924 0)
(0.59990927 0.001257791 0)
(0.59407313 0.001177025 0)
(0.58848396 0.0011034199 0)
(0.58312168 0.0010363116 0)
(0.57796794 0.00097473835 0)
(0.5730068 0.00091813574 0)
(0.56822336 0.00086605938 0)
(0.56360416 0.00081789976 0)
(0.55913779 0.00077346344 0)
(0.55481339 0.00073232778 0)
(0.5506216 0.00069404106 0)
(0.54655367 0.00065846195 0)
(0.54260126 0.00062522774 0)
(0.5387571 0.00059414935 0)
(0.53501435 0.00056505289 0)
(0.53136698 0.00053771219 0)
(0.52780952 0.00051206035 0)
(0.52433676 0.00048790689 0)
(0.52094397 0.00046518322 0)
(0.51762676 0.0004437847 0)
(0.51438139 0.00042357658 0)
(0.51120426 0.00040447042 0)
(0.508092 0.00038634965 0)
(0.5050415 0.00036919306 0)
(0.50204981 0.00035292471 0)
(0.49911427 0.00033749063 0)
(0.49623238 0.00032282982 0)
(0.49340181 0.00030890977 0)
(0.49062032 0.00029568777 0)
(0.4878859 0.00028310597 0)
(0.48519669 0.00027112089 0)
(0.48255093 0.000259696 0)
(0.479947 0.00024880709 0)
(0.47738337 0.00023842378 0)
(0.47485855 0.00022852975 0)
(0.47237102 0.00021911179 0)
(0.46991916 0.00021016463 0)
(0.46750135 0.00020166523 0)
(0.4651159 0.00019359286 0)
(0.46276116 0.00018591847 0)
(0.4604355 0.0001786238 0)
(0.45813729 0.00017169038 0)
(0.45586481 0.00016511767 0)
(0.45361621 0.00015890913 0)
(0.45138926 0.00015309118 0)
(0.44918113 0.00014769397 0)
(0.44698826 0.0001427695 0)
(0.44480591 0.00013838085 0)
(0.442628 0.0001346077 0)
(0.44044635 0.00013154234 0)
(0.43825097 0.00012929812 0)
(0.43602805 0.00012797646 0)
(0.43376276 0.00012775121 0)
(0.43143094 0.00012864343 0)
(0.42901667 0.00013104627 0)
(0.42646916 0.00013461901 0)
(0.42379608 0.00014061106 0)
(0.42085361 0.00014773288 0)
(0.41777061 0.00016015916 1.6173561e-21)
(0.41405613 0.00017095165 5.0324994e-20)
(0.41055693 0.00018886133 0)
(0.40404884 0.00019445061 0)
(0.97206733 0.022388815 0)
(0.97629955 0.028826093 0)
(0.98266873 0.032419416 0)
(0.98888598 0.033185083 0)
(0.99385986 0.032363244 0)
(0.99756347 0.030845394 0)
(1.0001471 0.029189874 0)
(1.0019632 0.027631678 0)
(1.0032012 0.026111732 0)
(1.0038917 0.024650563 0)
(1.0037437 0.023263884 0)
(1.0025148 0.02192433 0)
(0.99957256 0.020601168 0)
(0.99428231 0.019281095 0)
(0.98635577 0.017965001 0)
(0.97566221 0.016603034 0)
(0.96259227 0.015191442 0)
(0.9474514 0.0137955 0)
(0.93061667 0.012449719 0)
(0.9125598 0.011182476 0)
(0.8938354 0.01001397 0)
(0.87497916 0.0089517967 0)
(0.8564511 0.0079967976 0)
(0.83858531 0.0071480772 0)
(0.8215779 0.0064034081 0)
(0.80550915 0.0057561963 0)
(0.79038552 0.0051938646 0)
(0.77617772 0.0047027848 0)
(0.7628392 0.0042722418 0)
(0.75031552 0.0038920646 0)
(0.73854977 0.0035545176 0)
(0.72748385 0.003254748 0)
(0.7170607 0.0029881894 0)
(0.70722722 0.0027502639 0)
(0.69793521 0.0025372856 0)
(0.68913709 0.0023467691 0)
(0.6807949 0.0021756856 0)
(0.67287032 0.0020211744 0)
(0.66532861 0.0018816932 0)
(0.65813891 0.0017552633 0)
(0.6512739 0.0016402609 0)
(0.644708 0.0015355966 0)
(0.63841767 0.0014398603 0)
(0.63238207 0.0013521157 0)
(0.62658198 0.0012716203 0)
(0.62099949 0.0011974466 0)
(0.61561937 0.0011291534 0)
(0.61042737 0.0010660873 0)
(0.60541095 0.0010075868 0)
(0.60055844 0.00095337317 0)
(0.59585877 0.00090291816 0)
(0.59130226 0.00085590313 0)
(0.58687972 0.00081204056 0)
(0.5825829 0.00077098198 0)
(0.57840429 0.00073258303 0)
(0.57433659 0.0006965587 0)
(0.57037353 0.00066276004 0)
(0.56650933 0.00063101026 0)
(0.56273891 0.00060111279 0)
(0.55905728 0.00057293464 0)
(0.5554598 0.00054630699 0)
(0.5519422 0.00052116858 0)
(0.5485005 0.00049739956 0)
(0.54513107 0.00047491146 0)
(0.54183046 0.00045361072 0)
(0.53859544 0.00043343514 0)
(0.53542307 0.00041431304 0)
(0.53231063 0.00039616113 0)
(0.52925552 0.00037891354 0)
(0.52625536 0.00036251162 0)
(0.52330792 0.00034691249 0)
(0.52041113 0.00033206958 0)
(0.51756294 0.00031795437 0)
(0.51476129 0.00030454154 0)
(0.51200418 0.00029181583 0)
(0.50928954 0.00027974369 0)
(0.50661529 0.00026829474 0)
(0.50397935 0.00025742896 0)
(0.50137965 0.00024711853 0)
(0.49881413 0.00023733611 0)
(0.49628066 0.00022807604 0)
(0.49377696 0.0002193391 0)
(0.49130041 0.00021115486 0)
(0.48884782 0.0002035596 0)
(0.48641528 0.00019661775 0)
(0.48399765 0.00019040943 0)
(0.48158847 0.00018503798 0)
(0.47917914 0.00018062277 0)
(0.47675913 0.00017731577 0)
(0.47431397 0.00017524832 0)
(0.471828 0.00017466374 0)
(0.46927589 0.00017557748 0)
(0.46664024 0.00017856507 0)
(0.46386802 0.00018309728 0)
(0.46096466 0.00019105336 0)
(0.45778163 0.00020033624 0)
(0.45444596 0.00021732829 0)
(0.45045578 0.0002308017 0)
(0.44666651 0.00026397557 1.6845196e-19)
(0.43966803 0.00025173991 0)
(0.9738038 0.021632879 0)
(0.97742563 0.027386686 0)
(0.98297963 0.030808471 0)
(0.98851201 0.031770545 0)
(0.99305559 0.031243982 0)
(0.99654421 0.030004807 0)
(0.99916931 0.028566202 0)
(1.0012349 0.027148363 0)
(1.0029066 0.025745313 0)
(1.004151 0.024385911 0)
(1.0050537 0.023087107 0)
(1.0056508 0.021849572 0)
(1.0059204 0.020679672 0)
(1.005703 0.019588316 0)
(1.0048077 0.018561228 0)
(1.0030524 0.017580513 0)
(0.99985649 0.016639127 0)
(0.99487166 0.015721428 0)
(0.98783608 0.014807833 0)
(0.97865476 0.013856434 0)
(0.96744351 0.012867739 0)
(0.95435622 0.011873826 0)
(0.93966006 0.010893553 0)
(0.92376552 0.0099475097 0)
(0.90717781 0.0090494733 0)
(0.89039248 0.0082112389 0)
(0.8738248 0.0074427969 0)
(0.85776487 0.0067493396 0)
(0.84237314 0.0061327221 0)
(0.82771449 0.0055872087 0)
(0.81380153 0.0051029984 0)
(0.80062127 0.0046716715 0)
(0.78814667 0.0042859797 0)
(0.77634256 0.0039398299 0)
(0.76516945 0.0036289011 0)
(0.75458371 0.0033498613 0)
(0.74454528 0.0030986684 0)
(0.73501544 0.0028718014 0)
(0.72595629 0.0026669286 0)
(0.71733254 0.0024812627 0)
(0.70911238 0.0023125356 0)
(0.70126601 0.0021591323 0)
(0.69376562 0.002019083 0)
(0.68658602 0.0018909846 0)
(0.67970396 0.0017737156 0)
(0.67309775 0.0016659402 0)
(0.66674791 0.00156688 0)
(0.66063648 0.0014755875 0)
(0.65474741 0.0013911327 0)
(0.64906591 0.0013130505 0)
(0.64357812 0.0012405989 0)
(0.63827169 0.001173281 0)
(0.63313499 0.0011106544 0)
(0.62815746 0.001052217 0)
(0.62332938 0.00099771478 0)
(0.61864147 0.00094674301 0)
(0.61408558 0.0008990458 0)
(0.6096542 0.00085434574 0)
(0.60534059 0.00081236361 0)
(0.60113831 0.00077290542 0)
(0.5970414 0.00073573419 0)
(0.59304431 0.00070073134 0)
(0.58914197 0.00066772038 0)
(0.58532962 0.00063656945 0)
(0.58160268 0.0006071398 0)
(0.57795701 0.00057932474 0)
(0.57438888 0.0005530156 0)
(0.57089474 0.00052809854 0)
(0.56747119 0.00050447798 0)
(0.56411512 0.00048206627 0)
(0.56082361 0.00046079525 0)
(0.55759396 0.00044059613 0)
(0.55442351 0.0004214231 0)
(0.5513097 0.00040323411 0)
(0.54824999 0.00038599934 0)
(0.54524187 0.00036967144 0)
(0.54228281 0.00035420775 0)
(0.53937028 0.00033955493 0)
(0.53650173 0.00032567327 0)
(0.53367466 0.00031252418 0)
(0.53088648 0.00030009448 0)
(0.52813448 0.00028837993 0)
(0.52541564 0.00027741113 0)
(0.52272636 0.00026722877 0)
(0.52006238 0.0002579085 0)
(0.51741822 0.00024954679 0)
(0.51478704 0.00024227082 0)
(0.51215989 0.00023622777 0)
(0.50952579 0.00023161044 0)
(0.50686977 0.00022858254 0)
(0.50417543 0.00022746266 0)
(0.50141658 0.00022826339 0)
(0.49857445 0.00023175786 0)
(0.49559446 0.00023722139 0)
(0.4924795 0.0002472094 0)
(0.48907868 0.00025876007 0)
(0.4855151 0.00028062088 0)
(0.48128405 0.00029689411 0)
(0.4772413 0.0003478688 1.5044476e-19)
(0.46981886 0.0003137138 0)
(0.97553306 0.020966384 0)
(0.97864512 0.026059524 0)
(0.98346091 0.029305828 0)
(0.98843376 0.030447666 0)
(0.992657 0.030187372 0)
(0.99596496 0.029202501 0)
(0.99851041 0.027954444 0)
(1.0005248 0.026663666 0)
(1.0021756 0.025366055 0)
(1.0035207 0.02409229 0)
(1.0046129 0.022862424 0)
(1.0054704 0.021684838 0)
(1.0061025 0.020567113 0)
(1.0065153 0.019514846 0)
(1.00685 0.018537321 0)
(1.0068466 0.017639394 0)
(1.0066152 0.016814413 0)
(1.0060003 0.016056886 0)
(1.0048602 0.015359454 0)
(1.0029364 0.014704983 0)
(0.99982056 0.014075117 0)
(0.99520231 0.013459188 0)
(0.98878132 0.01281852 0)
(0.98047561 0.012121437 0)
(0.97027621 0.011379727 0)
(0.95829187 0.010609122 0)
(0.94478846 0.0098282564 0)
(0.93019478 0.0090604474 0)
(0.91500355 0.0083198063 0)
(0.89967573 0.0076208286 0)
(0.88456577 0.006974447 0)
(0.86989672 0.0063877185 0)
(0.85578206 0.005860878 0)
(0.84226879 0.0053880355 0)
(0.8293706 0.0049622779 0)
(0.81708117 0.0045781578 0)
(0.80538263 0.004230456 0)
(0.79424978 0.0039152542 0)
(0.78365226 0.0036298481 0)
(0.77355841 0.0033707868 0)
(0.76393744 0.0031352016 0)
(0.75475883 0.0029209409 0)
(0.74599316 0.0027254401 0)
(0.73761293 0.0025467819 0)
(0.72959209 0.0023833911 0)
(0.72190618 0.0022334764 0)
(0.71453252 0.0020958793 0)
(0.70744989 0.0019692818 0)
(0.70063911 0.0018524182 0)
(0.69408233 0.0017445712 0)
(0.68776288 0.0016447281 0)
(0.68166564 0.001552171 0)
(0.67577649 0.0014662625 0)
(0.67008258 0.0013863095 0)
(0.66457196 0.0013119166 0)
(0.65923346 0.0012425237 0)
(0.65405682 0.0011777364 0)
(0.6490326 0.0011171556 0)
(0.64415224 0.0010603968 0)
(0.63940774 0.0010071801 0)
(0.6347917 0.00095717983 0)
(0.63029723 0.0009102045 0)
(0.62591794 0.0008660043 0)
(0.62164791 0.00082438969 0)
(0.61748146 0.00078516661 0)
(0.6134134 0.00074817255 0)
(0.60943904 0.00071324951 0)
(0.60555391 0.00068024362 0)
(0.60175379 0.00064902195 0)
(0.59803474 0.00061946004 0)
(0.5943931 0.00059145742 0)
(0.59082541 0.00056491654 0)
(0.58732843 0.00053976839 0)
(0.58389896 0.00051594798 0)
(0.58053395 0.0004934058 0)
(0.57723037 0.00047207714 0)
(0.57398519 0.0004519037 0)
(0.57079538 0.00043281599 0)
(0.56765794 0.00041475973 0)
(0.56456985 0.00039768249 0)
(0.56152807 0.00038156078 0)
(0.55852941 0.00036638274 0)
(0.55557042 0.00035217749 0)
(0.55264712 0.000338988 0)
(0.54975484 0.00032689939 0)
(0.54688778 0.0003160234 0)
(0.54403877 0.00030651059 0)
(0.54119851 0.00029853633 0)
(0.53835568 0.00029233577 0)
(0.53549487 0.00028810728 0)
(0.5325991 0.00028624958 0)
(0.52964149 0.00028677613 0)
(0.52660205 0.00029066943 0)
(0.52342512 0.00029700793 0)
(0.52011097 0.00030905448 0)
(0.51650792 0.00032294634 0)
(0.51273407 0.00034990192 0)
(0.50828669 0.00036905495 -1.7779014e-20)
(0.50401826 0.00044008626 0)
(0.49622132 0.00038039731 -2.4648781e-20)
(0.97716127 0.020367587 0)
(0.97988773 0.02487913 0)
(0.98406995 0.027904547 0)
(0.98852035 0.029157446 0)
(0.99245133 0.02914053 0)
(0.99563033 0.028405126 0)
(0.9981301 0.027348311 0)
(1.0001206 0.026188258 0)
(1.0017435 0.024990055 0)
(1.0030718 0.023792377 0)
(1.0041565 0.022623196 0)
(1.0050382 0.021497372 0)
(1.0057456 0.020425258 0)
(1.0062988 0.019410238 0)
(1.0067113 0.018466746 0)
(1.0069964 0.017599139 0)
(1.0071732 0.016794335 0)
(1.0072507 0.016061063 0)
(1.0072055 0.01540331 0)
(1.0070094 0.014808472 0)
(1.0065937 0.014266933 0)
(1.0058481 0.013774363 0)
(1.0046511 0.013318044 0)
(1.0026802 0.012880679 0)
(0.99959598 0.012444969 0)
(0.99507877 0.01199408 0)
(0.98884086 0.011494173 0)
(0.98079117 0.010925871 0)
(0.97091497 0.010308164 0)
(0.95935691 0.009655291 0)
(0.94645366 0.0089895014 0)
(0.93267016 0.0083282316 0)
(0.91848292 0.0076892245 0)
(0.90428637 0.0070875183 0)
(0.89034787 0.0065328391 0)
(0.8768166 0.0060288615 0)
(0.86376564 0.0055721472 0)
(0.85122863 0.0051570193 0)
(0.83921609 0.0047792237 0)
(0.82772331 0.0044345463 0)
(0.81673604 0.0041199057 0)
(0.80623379 0.0038329721 0)
(0.79619328 0.0035707613 0)
(0.78659036 0.0033309571 0)
(0.77740019 0.0031115776 0)
(0.76859837 0.0029103763 0)
(0.76016134 0.00272581 0)
(0.75206633 0.0025561551 0)
(0.74429219 0.002399767 0)
(0.73681885 0.0022556292 0)
(0.72962736 0.0021224113 0)
(0.72270028 0.0019991305 0)
(0.71602121 0.0018849059 0)
(0.70957513 0.0017788151 0)
(0.70334799 0.001680283 0)
(0.69732663 0.0015885643 0)
(0.6914989 0.0015031073 0)
(0.68585343 0.001423363 0)
(0.68037986 0.0013488113 0)
(0.67506851 0.0012790589 0)
(0.66991045 0.0012136707 0)
(0.66489733 0.0011523637 0)
(0.66002138 0.0010947979 0)
(0.65527543 0.0010407111 0)
(0.65065272 0.00098983841 0)
(0.64614694 0.00094194806 0)
(0.64175224 0.00089682211 0)
(0.63746321 0.00085425609 0)
(0.63327473 0.00081406965 0)
(0.62918201 0.00077609366 0)
(0.62518053 0.00074018748 0)
(0.6212661 0.00070621643 0)
(0.61743473 0.00067408043 0)
(0.61368261 0.00064368583 0)
(0.61000608 0.00061495821 0)
(0.60640155 0.00058781047 0)
(0.60286546 0.00056216473 0)
(0.59939427 0.00053793202 0)
(0.59598445 0.00051504042 0)
(0.59263249 0.00049342067 0)
(0.58933482 0.00047303599 0)
(0.58608779 0.00045386392 0)
(0.58288747 0.00043592922 0)
(0.57972948 0.00041927458 0)
(0.57660876 0.00040399243 0)
(0.57351915 0.00039020814 0)
(0.57045319 0.00037809473 0)
(0.56740127 0.00036785569 0)
(0.56435174 0.0003597695 0)
(0.56128888 0.00035407126 0)
(0.55819522 0.00035124389 0)
(0.55504335 0.00035130604 0)
(0.5518122 0.00035545906 0)
(0.54844542 0.00036258632 0)
(0.54494072 0.00037668001 0)
(0.54114668 0.00039295264 0)
(0.53717594 0.00042516927 5.9419992e-22)
(0.53253066 0.00044723165 0)
(0.52805865 0.00054039765 1.2980495e-19)
(0.51992629 0.00045184316 0)
(0.97866072 0.019810971 0)
(0.9810809 0.023821244 0)
(0.98473684 0.026628043 0)
(0.98871362 0.027938496 0)
(0.99234903 0.028110073 0)
(0.99538878 0.027590531 0)
(0.99784424 0.026717382 0)
(0.99982963 0.02569433 0)
(1.0014551 0.024601726 0)
(1.0027871 0.023485618 0)
(1.0038738 0.02238032 0)
(1.0047575 0.021306005 0)
(1.0054721 0.020275858 0)
(1.0060418 0.019296353 0)
(1.0064848 0.018382163 0)
(1.006827 0.017537173 0)
(1.0070843 0.016753874 0)
(1.0072573 0.016038556 0)
(1.007362 0.015390789 0)
(1.0074348 0.014805275 0)
(1.007427 0.014278461 0)
(1.0073628 0.013806149 0)
(1.0072163 0.013380607 0)
(1.0069413 0.012992462 0)
(1.0064601 0.012634584 0)
(1.0056595 0.012300215 0)
(1.0043724 0.011978253 0)
(1.0022492 0.011656306 0)
(0.99896533 0.011320585 0)
(0.99417238 0.010943619 0)
(0.98767193 0.010497735 0)
(0.9793663 0.0099899944 0)
(0.9693121 0.0094333091 0)
(0.95776871 0.0088471297 0)
(0.94516503 0.0082524521 0)
(0.93197712 0.0076673159 0)
(0.9186192 0.0071082894 0)
(0.90538277 0.0065864805 0)
(0.89243834 0.0061073356 0)
(0.8798762 0.0056691742 0)
(0.86774407 0.0052678012 0)
(0.85606425 0.0048998225 0)
(0.84484204 0.004561849 0)
(0.83407169 0.0042515715 0)
(0.82374023 0.0039669571 0)
(0.81383101 0.0037055096 0)
(0.80432527 0.0034654419 0)
(0.79520278 0.0032446997 0)
(0.78644349 0.00304129 0)
(0.77802736 0.0028539017 0)
(0.76993478 0.0026808663 0)
(0.76214721 0.0025209116 0)
(0.75464687 0.0023728806 0)
(0.74741719 0.0022355893 0)
(0.74044248 0.0021082518 0)
(0.73370791 0.0019899073 0)
(0.72719966 0.0018798217 0)
(0.72090471 0.0017772708 0)
(0.714811 0.0016815737 0)
(0.70890725 0.0015921988 0)
(0.70318297 0.0015085779 0)
(0.6976284 0.0014303175 0)
(0.69223436 0.0013569686 0)
(0.68699238 0.0012881747 0)
(0.68189452 0.0012235852 0)
(0.67693334 0.00116289 0)
(0.67210189 0.0011057983 0)
(0.6673937 0.0010520401 0)
(0.66280268 0.0010013772 0)
(0.65832314 0.00095358667 0)
(0.65394969 0.00090847904 0)
(0.64967731 0.00086587394 0)
(0.64550126 0.00082563195 0)
(0.64141703 0.00078762351 0)
(0.6374203 0.00075174302 0)
(0.6335069 0.0007178756 0)
(0.62967268 0.00068591907 0)
(0.62591357 0.00065576105 0)
(0.62222549 0.00062730849 0)
(0.61860439 0.00060047198 0)
(0.6150462 0.00057519814 0)
(0.61154672 0.00055145055 0)
(0.60810158 0.00052924641 0)
(0.60470593 0.00050862513 0)
(0.60135432 0.00048968381 0)
(0.59804024 0.00047255936 0)
(0.59475592 0.00045744586 0)
(0.59149149 0.00044457423 0)
(0.58823503 0.00043426682 0)
(0.58497055 0.00042679709 0)
(0.58168019 0.00042273569 0)
(0.5783362 0.0004221109 0)
(0.57491657 0.00042635078 0)
(0.57136454 0.00043414751 0)
(0.56767545 0.00045023795 0)
(0.56369888 0.00046889438 0)
(0.55954187 0.00050648554 0)
(0.55471318 0.00053143594 0)
(0.55005571 0.00064868559 0)
(0.54162005 0.00052811695 0)
(0.98003708 0.019287258 0)
(0.98220074 0.022860302 0)
(0.98541428 0.02545869 0)
(0.98897221 0.026797044 0)
(0.99232136 0.027117155 0)
(0.99520529 0.026779141 0)
(0.99759596 0.026071152 0)
(0.99956564 0.025179763 0)
(1.0011963 0.024192996 0)
(1.0025427 0.023162018 0)
(1.0036467 0.022124826 0)
(1.0045471 0.021105363 0)
(1.0052767 0.02011944 0)
(1.0058605 0.019176702 0)
(1.0063197 0.018290911 0)
(1.0066792 0.01746789 0)
(1.0069571 0.016703626 0)
(1.0071638 0.016003178 0)
(1.0073135 0.015366872 0)
(1.0074196 0.014791213 0)
(1.00749 0.014271851 0)
(1.0075332 0.013803937 0)
(1.0075525 0.013382768 0)
(1.0075451 0.013001201 0)
(1.0075011 0.012654302 0)
(1.007403 0.012338296 0)
(1.0072226 0.012047878 0)
(1.0069035 0.011776447 0)
(1.0063506 0.011519695 0)