# Region        : all region0
# Cells         : 13056
# Volume        : 2.33333000e+00
# Time          	min(U)
1               	(2.59207499e-01 -7.87575273e-11 -8.24987888e-16)
2               	(1.25685505e-01 -8.82858102e-08 -3.17714209e-17)
3               	(8.64052869e-02 -2.22727853e-07 -3.24284168e-16)
4               	(6.82972710e-02 -4.14157426e-07 -1.33329548e-17)
5               	(5.74027303e-02 -5.93663879e-07 -1.88252818e-17)
6               	(4.98660361e-02 -1.05562916e-06 -2.44834297e-17)
7               	(4.42237477e-02 -1.68621178e-06 -3.02039749e-17)
8               	(3.97830154e-02 -2.47958696e-06 -3.07113712e-17)
9               	(3.61650905e-02 -3.36753714e-06 -2.95487483e-17)
10              	(3.31418869e-02 -4.21492339e-06 -3.29137978e-17)
11              	(3.05662078e-02 -4.89866824e-06 -3.65157504e-17)
12              	(2.83379758e-02 -5.41590816e-06 -4.04181298e-17)
13              	(2.63863146e-02 -5.65515392e-06 -4.43952602e-17)
14              	(2.46593488e-02 -5.60541909e-06 -4.85343890e-17)
15              	(2.31180659e-02 -5.37528184e-06 -5.27620737e-17)
16              	(2.17324515e-02 -4.94161908e-06 -5.69751962e-17)
17              	(2.04789621e-02 -4.34371294e-06 -6.11059619e-17)
18              	(1.93388196e-02 -3.77360625e-06 -6.52170447e-17)
19              	(1.82968274e-02 -3.26897462e-06 -6.93185086e-17)
20              	(1.73405298e-02 -3.07725710e-06 -7.33681932e-17)
21              	(1.64596017e-02 -2.79394308e-06 -7.72521952e-17)
22              	(1.56453976e-02 -2.52145884e-06 -8.10603810e-17)
23              	(1.48906127e-02 -2.17740713e-06 -8.48396800e-17)
24              	(1.41890243e-02 -1.86167700e-06 -8.86167465e-17)
25              	(1.35352926e-02 -1.56774626e-06 -9.23909666e-17)
26              	(1.29248039e-02 -1.28256091e-06 -9.61742092e-17)
27              	(1.23535471e-02 -1.02704358e-06 -9.99096686e-17)
28              	(1.18180154e-02 -8.08053100e-07 -1.03607308e-16)
29              	(1.13151263e-02 -6.26029175e-07 -1.07257374e-16)
30              	(1.08421573e-02 -4.77740347e-07 -1.10939488e-16)
31              	(1.03950620e-02 -3.58484098e-07 -1.14518800e-16)
32              	(9.97275354e-03 -2.63978194e-07 -1.18026345e-16)
33              	(9.57367861e-03 -1.89837933e-07 -1.21408972e-16)
34              	(9.19611338e-03 -1.32196993e-07 -1.24705936e-16)
35              	(8.83841435e-03 -8.78199923e-08 -1.27929128e-16)
36              	(8.49872927e-03 -5.47418789e-08 -1.31093664e-16)
37              	(8.17618953e-03 -3.16753064e-08 -1.34229150e-16)
38              	(7.86963245e-03 -1.52842527e-08 -1.37299893e-16)
39              	(7.57799895e-03 -5.43529010e-09 -1.40226262e-16)
40              	(7.30032199e-03 -7.59790617e-10 -1.43175808e-16)
41              	(7.03571649e-03 -1.46702700e-10 -1.45808519e-16)
42              	(6.78337067e-03 1.08232848e-15 -1.48455418e-16)
43              	(6.54253840e-03 1.89180172e-15 -1.51021808e-16)
44              	(6.31253257e-03 2.79542330e-15 -1.53521678e-16)
45              	(6.09271921e-03 3.84603021e-15 -1.56022542e-16)
46              	(5.88251241e-03 5.07134887e-15 -1.58446886e-16)
47              	(5.68136969e-03 6.50263661e-15 -1.60841698e-16)
48              	(5.48878804e-03 8.01571456e-15 -1.63163434e-16)
49              	(5.30430028e-03 9.58186236e-15 -1.65370919e-16)
50              	(5.12747194e-03 1.14119393e-14 -1.67314680e-16)
51              	(4.95789834e-03 1.35643092e-14 -1.69429041e-16)
52              	(4.79520210e-03 1.60483482e-14 -1.71460336e-16)
53              	(4.63903082e-03 1.89129028e-14 -1.73445554e-16)
54              	(4.48905502e-03 2.21909447e-14 -1.75435985e-16)
55              	(4.34496634e-03 2.57935204e-14 -1.77394928e-16)
56              	(4.20647578e-03 2.94926013e-14 -1.57581269e-16)
57              	(4.07331228e-03 3.36707941e-14 -1.56851770e-16)
58              	(3.94522127e-03 3.83922405e-14 -1.56225225e-16)
59              	(3.82196348e-03 4.36953482e-14 -1.55540181e-16)
60              	(3.70331379e-03 4.95925060e-14 -1.54775460e-16)
61              	(3.58906019e-03 5.61487318e-14 -1.53940657e-16)
62              	(3.47900284e-03 6.33829414e-14 -1.53007595e-16)
63              	(3.37295322e-03 7.13530105e-14 -1.52272386e-16)
64              	(3.27073335e-03 8.00545590e-14 -1.51421815e-16)
65              	(3.17217505e-03 8.95405425e-14 -1.50409624e-16)
66              	(3.07711927e-03 9.98163164e-14 -1.49274407e-16)
67              	(2.98541551e-03 1.10927338e-13 -1.48111597e-16)
68              	(2.89692125e-03 1.22870396e-13 -1.47268314e-16)
69              	(2.81150142e-03 1.35680637e-13 -1.46384007e-16)
70              	(2.72902794e-03 1.49365853e-13 -1.45523350e-16)
71              	(2.64937927e-03 1.63932679e-13 -1.44723239e-16)
72              	(2.57244000e-03 1.79390255e-13 -1.44004568e-16)
73              	(2.49810049e-03 1.95748313e-13 -1.43358110e-16)
74              	(2.42625650e-03 2.13001988e-13 -1.42616885e-16)
75              	(2.35680889e-03 2.31164500e-13 -1.41802440e-16)
76              	(2.28966329e-03 2.50211442e-13 -1.40993114e-16)
77              	(2.22472984e-03 2.70170175e-13 -1.40258184e-16)
78              	(2.16192294e-03 2.90986933e-13 -1.39530164e-16)
79              	(2.10116097e-03 3.12705843e-13 -1.38750054e-16)
80              	(2.04236610e-03 3.35253189e-13 -1.37966335e-16)
81              	(1.98546406e-03 3.58679891e-13 -1.37242348e-16)
82              	(1.93038396e-03 3.82906190e-13 -1.36405912e-16)
83              	(1.87705808e-03 4.07609848e-13 -1.35570494e-16)
84              	(1.82542173e-03 4.32334137e-13 -1.34844994e-16)
85              	(1.77541306e-03 4.57722804e-13 -1.34186285e-16)
86              	(1.72697291e-03 4.83753809e-13 -1.33499945e-16)
87              	(1.68004471e-03 5.10401980e-13 -1.32795730e-16)
88              	(1.63457428e-03 5.37635947e-13 -1.32105524e-16)
89              	(1.59050978e-03 5.65429941e-13 -1.31418023e-16)
90              	(1.54780153e-03 5.93753361e-13 -1.30707846e-16)
91              	(1.50640192e-03 6.22578815e-13 -1.30014901e-16)
92              	(1.46626532e-03 6.51882606e-13 -1.29368759e-16)
93              	(1.42734799e-03 6.81620566e-13 -1.28699236e-16)
94              	(1.38960796e-03 7.11769897e-13 -1.27975342e-16)
95              	(1.35300493e-03 7.42298900e-13 -1.27275422e-16)
96              	(1.31750026e-03 7.73175913e-13 -1.26555835e-16)
97              	(1.28305682e-03 8.04346705e-13 -1.25831849e-16)
98              	(1.24963895e-03 8.35836467e-13 -1.25143165e-16)
99              	(1.21721239e-03 8.67521035e-13 -1.24559424e-16)
100             	(1.18574420e-03 8.99488571e-13 -1.23990305e-16)
101             	(1.15520273e-03 9.31567094e-13 -1.23411527e-16)
102             	(1.12555754e-03 9.63848222e-13 -1.22853338e-16)
103             	(1.09677934e-03 9.96197332e-13 -1.22294931e-16)
104             	(1.06883995e-03 1.02862991e-12 -1.21746775e-16)
105             	(1.04171225e-03 1.06107877e-12 -1.21180204e-16)
106             	(1.01537013e-03 1.09351673e-12 -1.20651382e-16)
107             	(9.89788468e-04 1.12587715e-12 -1.20116662e-16)
108             	(9.64943042e-04 1.15813326e-12 -1.19581749e-16)
109             	(9.40810538e-04 1.19021536e-12 -1.19161561e-16)
110             	(9.17368487e-04 1.22208027e-12 -1.18738601e-16)
111             	(8.94595243e-04 1.25364778e-12 -1.18273072e-16)
112             	(8.72469940e-04 1.28484149e-12 -1.17755079e-16)
113             	(8.50972470e-04 1.31559604e-12 -1.17317852e-16)
114             	(8.30083450e-04 1.34581410e-12 -1.16907917e-16)
115             	(8.09784194e-04 -1.06332441e-08 -1.16524000e-16)
116             	(7.90056689e-04 1.40422471e-12 -1.16123151e-16)
117             	(7.70883571e-04 1.43218089e-12 -1.15731635e-16)
118             	(7.52248099e-04 1.45915723e-12 -1.15337475e-16)
119             	(7.34134140e-04 1.48504570e-12 -1.14956563e-16)
120             	(7.16526143e-04 1.50904842e-12 -1.14595012e-16)
121             	(6.99409125e-04 1.53174916e-12 -1.14246717e-16)
122             	(6.82768649e-04 1.55264060e-12 -1.13901719e-16)
123             	(6.66590810e-04 1.57138660e-12 -1.13565462e-16)
124             	(6.50862218e-04 1.58828171e-12 -1.13201676e-16)
125             	(6.35569982e-04 1.60260544e-12 -1.12825399e-16)
126             	(6.20701694e-04 1.61429517e-12 -1.12514573e-16)
127             	(6.06245418e-04 1.62294544e-12 -1.12230947e-16)
128             	(5.92189669e-04 1.62839707e-12 -1.11949204e-16)
129             	(5.78523402e-04 1.63037920e-12 -1.11672019e-16)
130             	(5.65235997e-04 1.62879446e-12 -1.11399215e-16)
131             	(5.52317239e-04 1.62336424e-12 -1.11138334e-16)
132             	(5.39757305e-04 1.61404438e-12 -1.10880485e-16)
133             	(5.27546746e-04 1.60075929e-12 -1.10625793e-16)
134             	(5.15676469e-04 1.58355448e-12 -1.10379471e-16)
135             	(5.04137721e-04 1.56238816e-12 -1.10139808e-16)
136             	(4.92922076e-04 1.53755651e-12 -1.09969927e-16)
137             	(4.82021399e-04 -1.76907071e-06 -1.09831315e-16)
138             	(4.71427844e-04 -5.44126939e-06 -1.09653583e-16)
139             	(4.61133835e-04 -9.14413513e-06 -1.09462409e-16)
140             	(4.51132038e-04 -1.33094528e-05 -1.09262935e-16)
141             	(4.41415358e-04 -1.77282089e-05 -1.09064545e-16)
142             	(4.31976913e-04 -2.17924992e-05 -1.08871013e-16)
143             	(4.22810024e-04 -2.58608761e-05 -1.08683327e-16)
144             	(4.13908197e-04 -3.02452447e-05 -1.08501101e-16)
145             	(4.05265111e-04 -3.36143287e-05 -1.08323851e-16)
146             	(3.96874607e-04 -3.77813873e-05 -1.08152298e-16)
147             	(3.88730674e-04 -4.16241649e-05 -1.07986635e-16)
148             	(3.80827443e-04 -4.49758938e-05 -1.07826304e-16)
149             	(3.73159172e-04 -4.95202362e-05 -1.07665174e-16)
150             	(3.65720243e-04 -5.30214190e-05 -1.07498823e-16)
151             	(3.58505154e-04 -5.70284994e-05 -1.07356957e-16)
152             	(3.51508511e-04 -6.19290738e-05 -1.07220958e-16)
153             	(3.44725022e-04 -6.58057800e-05 -1.07086572e-16)
154             	(3.38149496e-04 -7.02568427e-05 -1.06956422e-16)
155             	(3.31776837e-04 -7.54018545e-05 -1.06829788e-16)
156             	(3.25602038e-04 -7.98077256e-05 -1.06706429e-16)
157             	(3.19620182e-04 -8.56079366e-05 -1.06585583e-16)
158             	(3.13826439e-04 -9.13815027e-05 -1.06466700e-16)
159             	(3.08216062e-04 -9.63148481e-05 -1.06352445e-16)
160             	(3.02784387e-04 -1.03015374e-04 -1.06242169e-16)
161             	(2.97526831e-04 -1.09705548e-04 -1.06135254e-16)
162             	(2.92438891e-04 -1.15452587e-04 -1.06031445e-16)
163             	(2.87516144e-04 -1.21004019e-04 -1.05930799e-16)
164             	(2.82754243e-04 -1.29244206e-04 -1.05833203e-16)
165             	(2.78148923e-04 -1.36475495e-04 -1.05738620e-16)
166             	(2.73695991e-04 -1.42489567e-04 -1.05643358e-16)
167             	(2.69391334e-04 -1.48749366e-04 -1.05543533e-16)
168             	(2.65230915e-04 -1.57055412e-04 -1.05449152e-16)
169             	(2.61210772e-04 -1.64654109e-04 -1.05363373e-16)
170             	(2.57327020e-04 -1.71449111e-04 -1.05283683e-16)
171             	(2.53575846e-04 -1.77608334e-04 -1.05208762e-16)
172             	(2.49953516e-04 -1.86291961e-04 -1.05136575e-16)
173             	(2.46456367e-04 -1.94270433e-04 -1.05065605e-16)
174             	(2.43080814e-04 -2.01427152e-04 -1.04996911e-16)
175             	(2.39823341e-04 -2.07963121e-04 -1.04930220e-16)
176             	(2.36680510e-04 -2.16770525e-04 -1.04865376e-16)
177             	(2.33648952e-04 -2.25294410e-04 -1.04802333e-16)
178             	(2.30725374e-04 -2.32906764e-04 -1.04741045e-16)
179             	(2.27906553e-04 -2.39552069e-04 -1.04681514e-16)
180             	(2.25189337e-04 -2.46082617e-04 -1.04623717e-16)
181             	(2.22570646e-04 -2.55370078e-04 -1.04567717e-16)
182             	(2.20047470e-04 -2.64403259e-04 -1.04513483e-16)
183             	(2.17616868e-04 -2.72701820e-04 -1.04460840e-16)
184             	(2.15275971e-04 -2.80156441e-04 -1.04409855e-16)
185             	(2.13021974e-04 -2.86653083e-04 -1.04360479e-16)
186             	(2.10852143e-04 -2.92306197e-04 -1.04312584e-16)
187             	(2.08763809e-04 -3.01677036e-04 -1.04266168e-16)
188             	(2.06754371e-04 -3.10788607e-04 -1.04221178e-16)
189             	(2.04821292e-04 -3.19340606e-04 -1.04177614e-16)
190             	(2.02962099e-04 -3.27260359e-04 -1.04135385e-16)
191             	(2.01174385e-04 -3.34511635e-04 -1.04096038e-16)
192             	(1.99455804e-04 -3.40976243e-04 -1.04060219e-16)
193             	(1.97804072e-04 -3.46787254e-04 -1.04024678e-16)
194             	(1.96216967e-04 -3.54878536e-04 -1.03989872e-16)
195             	(1.94692326e-04 -3.64010146e-04 -1.03955891e-16)
196             	(1.93228045e-04 -3.72619621e-04 -1.03922683e-16)
197             	(1.91822080e-04 -3.80799957e-04 -1.03890232e-16)
198             	(1.90472442e-04 -3.88516172e-04 -1.03858564e-16)
199             	(1.89177200e-04 -3.95701741e-04 -1.03827819e-16)
200             	(1.87934476e-04 -4.02316216e-04 -1.03806004e-16)
201             	(1.86742447e-04 -4.08566344e-04 -1.03781483e-16)
202             	(1.85599344e-04 -4.14448090e-04 -1.03752901e-16)
203             	(1.84503449e-04 -4.22206948e-04 -1.03725889e-16)
204             	(1.83453095e-04 -4.30721733e-04 -1.03699800e-16)
205             	(1.82446666e-04 -4.38823750e-04 -1.03674928e-16)
206             	(1.81482593e-04 -4.46625301e-04 -1.03651044e-16)
207             	(1.80449493e-04 -4.54215153e-04 -1.03627981e-16)
208             	(1.79261376e-04 -4.61569920e-04 -1.03605698e-16)
209             	(1.78123275e-04 -4.68598856e-04 -1.03584117e-16)
210             	(1.77014428e-04 -4.75296049e-04 -1.03563189e-16)
211             	(1.75920741e-04 -4.81707953e-04 -1.03542932e-16)
212             	(1.74872756e-04 -4.87803413e-04 -1.03523293e-16)
213             	(1.73869314e-04 -4.93505369e-04 -1.03504401e-16)
214             	(1.72875137e-04 -4.98852237e-04 -1.03486101e-16)
215             	(1.71906153e-04 -5.06683872e-04 -1.03468192e-16)
216             	(1.70977738e-04 -5.14259362e-04 -1.03450873e-16)
217             	(1.70088854e-04 -5.21573321e-04 -1.03434097e-16)
218             	(1.69211926e-04 -5.28672649e-04 -1.03417817e-16)
219             	(1.68349592e-04 -5.35576186e-04 -1.03402039e-16)
220             	(1.67523152e-04 -5.42318729e-04 -1.03386735e-16)
221             	(1.66731666e-04 -5.48907150e-04 -1.03371901e-16)
222             	(1.65974168e-04 -5.55359645e-04 -1.03357500e-16)
223             	(1.65203066e-04 -5.61698372e-04 -1.03343540e-16)
224             	(1.64463646e-04 -5.67879969e-04 -1.03329978e-16)
225             	(1.63755062e-04 -5.73843991e-04 -1.03316802e-16)
226             	(1.63076482e-04 -5.79526444e-04 -1.03304046e-16)
227             	(1.62426570e-04 -5.84880680e-04 -1.03291661e-16)
228             	(1.61761510e-04 -5.89896656e-04 -1.03279633e-16)
229             	(1.61123615e-04 -5.94591321e-04 -1.03267945e-16)
230             	(1.60512140e-04 -5.99000878e-04 -1.03256614e-16)
231             	(1.59926349e-04 -6.03163820e-04 -1.03245598e-16)
232             	(1.59365524e-04 -6.08634530e-04 -1.03234912e-16)
233             	(1.58810372e-04 -6.14852688e-04 -1.03224530e-16)
234             	(1.58256035e-04 -6.20897809e-04 -1.03214439e-16)
235             	(1.57724282e-04 -6.26820417e-04 -1.03204641e-16)
236             	(1.57214471e-04 -6.32623136e-04 -1.03195118e-16)
237             	(1.56725974e-04 -6.38306781e-04 -1.03185858e-16)
238             	(1.56258175e-04 -6.43872415e-04 -1.03176868e-16)
239             	(1.55807318e-04 -6.49321103e-04 -1.03168105e-16)
240             	(1.55341078e-04 -6.54663681e-04 -1.03159584e-16)
241             	(1.54893551e-04 -6.59903427e-04 -1.03151291e-16)
242             	(1.54464190e-04 -6.65034826e-04 -1.03143243e-16)
243             	(1.54052462e-04 -6.70060647e-04 -1.03135403e-16)
244             	(1.53657844e-04 -6.74995028e-04 -1.03127755e-16)
245             	(1.53279825e-04 -6.79818826e-04 -1.03120317e-16)
246             	(1.52917906e-04 -6.84522561e-04 -1.03113056e-16)
247             	(1.52551059e-04 -6.89115846e-04 -1.03105983e-16)
248             	(1.52185567e-04 -6.93579656e-04 -1.03099109e-16)
249             	(1.51834640e-04 -6.97883507e-04 -1.03092405e-16)
250             	(1.51497837e-04 -7.02006566e-04 -1.03085879e-16)
251             	(1.51174728e-04 -7.05942001e-04 -1.03079512e-16)
252             	(1.50864892e-04 -7.09694559e-04 -1.03073321e-16)
253             	(1.50567921e-04 -7.13277921e-04 -1.03067281e-16)
254             	(1.50283412e-04 -7.16708002e-04 -1.03061381e-16)
255             	(1.50010975e-04 -7.20004123e-04 -1.03055624e-16)
256             	(1.49731073e-04 -7.23187938e-04 -1.03050028e-16)
257             	(1.49451834e-04 -7.26264554e-04 -1.03044561e-16)
258             	(1.49183556e-04 -7.29235975e-04 -1.03039228e-16)
259             	(1.48925898e-04 -7.32101869e-04 -1.03034006e-16)
260             	(1.48678527e-04 -7.34862516e-04 -1.03028940e-16)
261             	(1.48441119e-04 -7.37521115e-04 -1.03023987e-16)
262             	(1.48213356e-04 -7.40085985e-04 -1.03019136e-16)
263             	(1.47994930e-04 -7.43003403e-04 -1.03014428e-16)
264             	(1.47785540e-04 -7.46715211e-04 -1.03009882e-16)
265             	(1.47584892e-04 -7.50298937e-04 -1.03005553e-16)
266             	(1.47392718e-04 -7.53828680e-04 -1.03000526e-16)
267             	(1.47194072e-04 -7.57259734e-04 -1.02996881e-16)
268             	(1.46993279e-04 -7.60614580e-04 -1.02992802e-16)
269             	(1.46800225e-04 -7.63896115e-04 -1.02988820e-16)
270             	(1.46614661e-04 -7.67105666e-04 -1.02984894e-16)
271             	(1.46436346e-04 -7.70244575e-04 -1.02981019e-16)
272             	(1.46265043e-04 -7.73313756e-04 -1.02977202e-16)
273             	(1.46100523e-04 -7.76314666e-04 -1.02973456e-16)
274             	(1.45942564e-04 -7.79248641e-04 -1.02969784e-16)
275             	(1.45790948e-04 -7.82116777e-04 -1.02966168e-16)
276             	(1.45645464e-04 -7.84920359e-04 -1.02962620e-16)
277             	(1.45505907e-04 -7.87660918e-04 -1.02959114e-16)
278             	(1.45372077e-04 -7.90339504e-04 -1.02955657e-16)
279             	(1.45243780e-04 -7.92957293e-04 -1.02952263e-16)
280             	(1.45120828e-04 -7.95516063e-04 -1.02948899e-16)
281             	(1.44998045e-04 -7.98016248e-04 -1.02945607e-16)
282             	(1.44866154e-04 -8.00458992e-04 -1.02942351e-16)
283             	(1.44739222e-04 -8.02844677e-04 -1.02939140e-16)
284             	(1.44617083e-04 -8.05175964e-04 -1.02935971e-16)
285             	(1.44499579e-04 -8.07453764e-04 -1.02932848e-16)
286             	(1.44386556e-04 -8.09679271e-04 -1.02929748e-16)
287             	(1.44277864e-04 -8.11853246e-04 -1.02926701e-16)
288             	(1.44173357e-04 -8.13976520e-04 -1.02923640e-16)
289             	(1.44072895e-04 -8.16050625e-04 -1.02920673e-16)
290             	(1.43976340e-04 -8.18076316e-04 -1.02917741e-16)
291             	(1.43883560e-04 -8.20057772e-04 -1.02914849e-16)
292             	(1.43794425e-04 -8.21992961e-04 -1.02912002e-16)
293             	(1.43708810e-04 -8.23883058e-04 -1.02909191e-16)
294             	(1.43626594e-04 -8.25729647e-04 -1.02906426e-16)
295             	(1.43547660e-04 -8.27535196e-04 -1.02903696e-16)
296             	(1.43471893e-04 -8.29300978e-04 -1.02900998e-16)
297             	(1.43399182e-04 -8.31027069e-04 -1.02898343e-16)
298             	(1.43329421e-04 -8.32714037e-04 -1.02895715e-16)
299             	(1.43262505e-04 -8.34362703e-04 -1.02893123e-16)
300             	(1.43198333e-04 -8.35973646e-04 -1.02890571e-16)
301             	(1.43136807e-04 -8.37547285e-04 -1.02888029e-16)
302             	(1.43067430e-04 -8.39085160e-04 -1.02885537e-16)
303             	(1.42998191e-04 -8.40587776e-04 -1.02883049e-16)
304             	(1.42931486e-04 -8.42057330e-04 -1.02880523e-16)
305             	(1.42867228e-04 -8.43486874e-04 -1.02878391e-16)
306             	(1.42805335e-04 -8.44885326e-04 -1.02875905e-16)
307             	(1.42745726e-04 -8.46251975e-04 -1.02873532e-16)
308             	(1.42688323e-04 -8.47587127e-04 -1.02871173e-16)
309             	(1.42633049e-04 -8.48891060e-04 -1.02868847e-16)
310             	(1.42579831e-04 -8.50164426e-04 -1.02866549e-16)
311             	(1.42528599e-04 -8.51407879e-04 -1.02864272e-16)
312             	(1.42479282e-04 -8.52622108e-04 -1.02862019e-16)
313             	(1.42431815e-04 -8.53807764e-04 -1.02859778e-16)
314             	(1.42386132e-04 -8.54965572e-04 -1.02857551e-16)
315             	(1.42342170e-04 -8.56093211e-04 -1.02855334e-16)
316             	(1.42299870e-04 -8.57190079e-04 -1.02853129e-16)
317             	(1.42259172e-04 -8.58260926e-04 -1.02850934e-16)
318             	(1.42220018e-04 -8.59306699e-04 -1.02848754e-16)
319             	(1.42182355e-04 -8.60327902e-04 -1.02846595e-16)
320             	(1.42146128e-04 -8.61325162e-04 -1.02844430e-16)
321             	(1.42111286e-04 -8.62299070e-04 -1.02842309e-16)
322             	(1.42077779e-04 -8.63250054e-04 -1.02840188e-16)
323             	(1.42045558e-04 -8.64178963e-04 -1.02838085e-16)
324             	(1.42014577e-04 -8.65086148e-04 -1.02836001e-16)
325             	(1.41984789e-04 -8.65972141e-04 -1.02833929e-16)
326             	(1.41956153e-04 -8.66837982e-04 -1.02831869e-16)
327             	(1.41928624e-04 -8.67684060e-04 -1.02829824e-16)
328             	(1.41902162e-04 -8.68510056e-04 -1.02827798e-16)
329             	(1.41876728e-04 -8.69316636e-04 -1.02825778e-16)
330             	(1.41852283e-04 -8.70104432e-04 -1.02823769e-16)
331             	(1.41828789e-04 -8.70873860e-04 -1.02821769e-16)
332             	(1.41806212e-04 -8.71625357e-04 -1.02819788e-16)
333             	(1.41784515e-04 -8.72359425e-04 -1.02817814e-16)
334             	(1.41763667e-04 -8.73076554e-04 -1.02815841e-16)
335             	(1.41743634e-04 -8.73776993e-04 -1.02813882e-16)
336             	(1.41724386e-04 -8.74461414e-04 -1.02811933e-16)
337             	(1.41705891e-04 -8.75129943e-04 -1.02809989e-16)
338             	(1.41688121e-04 -8.75782997e-04 -1.02808044e-16)
339             	(1.41671048e-04 -8.76420885e-04 -1.02806095e-16)
340             	(1.41650034e-04 -8.77044127e-04 -1.02804163e-16)
341             	(1.41628403e-04 -8.77652929e-04 -1.02802237e-16)
342             	(1.41607496e-04 -8.78247674e-04 -1.02800319e-16)
343             	(1.41587288e-04 -8.78828678e-04 -1.02798409e-16)
344             	(1.41567754e-04 -8.79396294e-04 -1.02796508e-16)
345             	(1.41548869e-04 -8.79950848e-04 -1.02794609e-16)
346             	(1.41530611e-04 -8.80492644e-04 -1.02792721e-16)
347             	(1.41512957e-04 -8.81022000e-04 -1.02790840e-16)
348             	(1.41495886e-04 -8.81539266e-04 -1.02788975e-16)
349             	(1.41479376e-04 -8.82044676e-04 -1.02787109e-16)
350             	(1.41463408e-04 -8.82538555e-04 -1.02785247e-16)
351             	(1.41447961e-04 -8.83021155e-04 -1.02783383e-16)
352             	(1.41433017e-04 -8.83492829e-04 -1.02781526e-16)
353             	(1.41418557e-04 -8.83953808e-04 -1.02779669e-16)
354             	(1.41404564e-04 -8.84404382e-04 -1.02777823e-16)
355             	(1.41391020e-04 -8.84844799e-04 -1.02775989e-16)
356             	(1.41377910e-04 -8.85275343e-04 -1.02774150e-16)
357             	(1.41365216e-04 -8.85696246e-04 -1.02772315e-16)
358             	(1.41352925e-04 -8.86107765e-04 -1.02770490e-16)
359             	(1.41341020e-04 -8.86510103e-04 -1.02768673e-16)
360             	(1.41329488e-04 -8.86903498e-04 -1.02766852e-16)
361             	(1.41318314e-04 -8.87288181e-04 -1.02765040e-16)
362             	(1.41307486e-04 -8.87664364e-04 -1.02763228e-16)
363             	(1.41296991e-04 -8.88032266e-04 -1.02761426e-16)
364             	(1.41286815e-04 -8.88392086e-04 -1.02759625e-16)
365             	(1.41276947e-04 -8.88744031e-04 -1.02757824e-16)
366             	(1.41267376e-04 -8.89088288e-04 -1.02756022e-16)
367             	(1.41258090e-04 -8.89425064e-04 -1.02754238e-16)
368             	(1.41249079e-04 -8.89754538e-04 -1.02752448e-16)
369             	(1.41240331e-04 -8.90076892e-04 -1.02750670e-16)
370             	(1.41231838e-04 -8.90392306e-04 -1.02748895e-16)
371             	(1.41223588e-04 -8.90700952e-04 -1.02747123e-16)
372             	(1.41215574e-04 -8.91002995e-04 -1.02745350e-16)
373             	(1.41207786e-04 -8.91298602e-04 -1.02743586e-16)
374             	(1.41200215e-04 -8.91587936e-04 -1.02741824e-16)
375             	(1.41192853e-04 -8.91871151e-04 -1.02740072e-16)
376             	(1.41185691e-04 -8.92148400e-04 -1.02738316e-16)
377             	(1.41178723e-04 -8.92419839e-04 -1.02736569e-16)
378             	(1.41171941e-04 -8.92685605e-04 -1.02734815e-16)
379             	(1.41165336e-04 -8.92945840e-04 -1.02733074e-16)
380             	(1.41158903e-04 -8.93200689e-04 -1.02731328e-16)
381             	(1.41152635e-04 -8.93450281e-04 -1.02729591e-16)
382             	(1.41146525e-04 -8.93694747e-04 -1.02727852e-16)
383             	(1.41140567e-04 -8.93934208e-04 -1.02726123e-16)
384             	(1.41134755e-04 -8.94168792e-04 -1.02724393e-16)
385             	(1.41129083e-04 -8.94398627e-04 -1.02722659e-16)
386             	(1.41123545e-04 -8.94623824e-04 -1.02720932e-16)
387             	(1.41118137e-04 -8.94844500e-04 -1.02719206e-16)
388             	(1.41112853e-04 -8.95060767e-04 -1.02717481e-16)
389             	(1.41107688e-04 -8.95272733e-04 -1.02715758e-16)
390             	(1.41102637e-04 -8.95480507e-04 -1.02714035e-16)
391             	(1.41097696e-04 -8.95684191e-04 -1.02712315e-16)
392             	(1.41092860e-04 -8.95883887e-04 -1.02710594e-16)
393             	(1.41088125e-04 -8.96079696e-04 -1.02708873e-16)
394             	(1.41083487e-04 -8.96271711e-04 -1.02707157e-16)
395             	(1.41078942e-04 -8.96460032e-04 -1.02705435e-16)
396             	(1.41074485e-04 -8.96644747e-04 -1.02703718e-16)
397             	(1.41070115e-04 -8.96825947e-04 -1.02702000e-16)
398             	(1.41065826e-04 -8.97003715e-04 -1.02700285e-16)
399             	(1.41061615e-04 -8.97178136e-04 -1.02698573e-16)
400             	(1.41057480e-04 -8.97349302e-04 -1.02696854e-16)
401             	(1.41053417e-04 -8.97517282e-04 -1.02695140e-16)
402             	(1.41049423e-04 -8.97682161e-04 -1.02693427e-16)
403             	(1.41045495e-04 -8.97844023e-04 -1.02691712e-16)
404             	(1.41041631e-04 -8.98002935e-04 -1.02689998e-16)
405             	(1.41037827e-04 -8.98158970e-04 -1.02688289e-16)
406             	(1.41034082e-04 -8.98312212e-04 -1.02686575e-16)
407             	(1.41030392e-04 -8.98462724e-04 -1.02684865e-16)
408             	(1.41026755e-04 -8.98610578e-04 -1.02683151e-16)
409             	(1.41023170e-04 -8.98755839e-04 -1.02681440e-16)
410             	(1.41019633e-04 -8.98898565e-04 -1.02679729e-16)
411             	(1.41016143e-04 -8.99038818e-04 -1.02678019e-16)
412             	(1.41012698e-04 -8.99176635e-04 -1.02676323e-16)
413             	(1.41009296e-04 -8.99312122e-04 -1.02674607e-16)
414             	(1.41005934e-04 -8.99445317e-04 -1.02672899e-16)
415             	(1.41002612e-04 -8.99576276e-04 -1.02671192e-16)
416             	(1.40999327e-04 -8.99705086e-04 -1.02669471e-16)
417             	(1.40996078e-04 -8.99831751e-04 -1.02667773e-16)
418             	(1.40992863e-04 -8.99956343e-04 -1.02666071e-16)
419             	(1.40989680e-04 -9.00078916e-04 -1.02664365e-16)
420             	(1.40986530e-04 -9.00199520e-04 -1.02662659e-16)
421             	(1.40983409e-04 -9.00318243e-04 -1.02660942e-16)
422             	(1.40980316e-04 -9.00435047e-04 -1.02659239e-16)
423             	(1.40977251e-04 -9.00550034e-04 -1.02657535e-16)
424             	(1.40974212e-04 -9.00663207e-04 -1.02655836e-16)
425             	(1.40971198e-04 -9.00774680e-04 -1.02654135e-16)
426             	(1.40968207e-04 -9.00884463e-04 -1.02652431e-16)
427             	(1.40965240e-04 -9.00992603e-04 -1.02650724e-16)
428             	(1.40962294e-04 -9.01099126e-04 -1.02649026e-16)
429             	(1.40959368e-04 -9.01204079e-04 -1.02647323e-16)
430             	(1.40956463e-04 -9.01307536e-04 -1.02645624e-16)
431             	(1.40953576e-04 -9.01409465e-04 -1.02643928e-16)
432             	(1.40950708e-04 -9.01509920e-04 -1.02642216e-16)
433             	(1.40947856e-04 -9.01608979e-04 -1.02640517e-16)
434             	(1.40945021e-04 -9.01706654e-04 -1.02638781e-16)
435             	(1.40942202e-04 -9.01802978e-04 -1.02636907e-16)
436             	(1.40939398e-04 -9.01897986e-04 -1.02635119e-16)
437             	(1.40936608e-04 -9.01991711e-04 -1.02633383e-16)
438             	(1.40933831e-04 -9.02084185e-04 -1.02631664e-16)
439             	(1.40931068e-04 -9.02175439e-04 -1.02629941e-16)
440             	(1.40928317e-04 -9.02265505e-04 -1.02628225e-16)
441             	(1.40925578e-04 -9.02354419e-04 -1.02626499e-16)
442             	(1.40922850e-04 -9.02442198e-04 -1.02624783e-16)
443             	(1.40920133e-04 -9.02528873e-04 -1.02623067e-16)
444             	(1.40917426e-04 -9.02614478e-04 -1.02621361e-16)
445             	(1.40914728e-04 -9.02699028e-04 -1.02619645e-16)
446             	(1.40912040e-04 -9.02782561e-04 -1.02617930e-16)
447             	(1.40909361e-04 -9.02865117e-04 -1.02616213e-16)
448             	(1.40906691e-04 -9.02946671e-04 -1.02614491e-16)
449             	(1.40904028e-04 -9.03027259e-04 -1.02612792e-16)
450             	(1.40901374e-04 -9.03106947e-04 -1.02611086e-16)
451             	(1.40898726e-04 -9.03185737e-04 -1.02609362e-16)
452             	(1.40896086e-04 -9.03263646e-04 -1.02607645e-16)
453             	(1.40893452e-04 -9.03340742e-04 -1.02605910e-16)
454             	(1.40890825e-04 -9.03416956e-04 -1.02604190e-16)