/*--------------------------------*- C++ -*----------------------------------*\
| =========                 |                                                 |
| \\      /  F ield         | OpenFOAM: The Open Source CFD Toolbox           |
|  \\    /   O peration     | Version:  2206                                  |
|   \\  /    A nd           | Website:  www.openfoam.com                      |
|    \\/     M anipulation  |                                                 |
\*---------------------------------------------------------------------------*/
FoamFile
{
    version     2.0;
    format      ascii;
    arch        "LSB;label=32;scalar=64";
    class       volScalarField;
    location    "200";
    object      epsilon;
}
// * * * * * * * * * * * * * * * * * * * * * * * * * * * * * * * * * * * * * //

dimensions      [0 2 -3 0 0 0 0];

internalField   nonuniform List<scalar> 
7480
(
5.768595
15.512782
18.075623
15.969503
12.84092
10.336716
8.6484088
7.4950609
6.6476453
5.9833781
5.4451791
5.0042041
4.6414987
4.3420501
4.0935603
3.8857407
3.7110209
3.5636538
3.4383375
3.3312323
3.2384172
3.1569016
3.0842623
3.0187446
2.9591429
2.9044343
2.853943
2.8069775
2.7629387
2.7213348
2.681885
2.6443854
2.6086246
2.5744245
2.5415816
2.5100279
2.4794632
2.4498546
2.4211302
2.3931845
2.3659404
2.3393337
2.3133138
2.2878501
2.2628998
2.2384394
2.2144359
2.1908529
2.1676716
2.1448724
2.1224323
2.1003238
2.0785007
2.0569039
2.03546
2.0140914
1.9927226
1.971279
1.9497035
1.9279484
1.9059723
1.8837296
1.8611675
1.8382223
1.8148156
1.7908596
1.7662587
1.7409134
1.7147252
1.6876046
1.6594788
1.6303032
1.6000701
1.5688233
1.5366579
1.5037328
1.4702909
1.4366388
1.403157
1.3703034
1.3385659
1.3084031
1.2801765
1.254091
1.2301689
1.2082648
1.1881144
1.1693997
1.1518083
1.1350737
1.1189942
1.1034252
1.0882783
1.0734727
1.0589907
1.0446944
1.0307206
1.0164058
1.004231
0.98321668
0.34495165
1.5963583
2.8376474
3.2953131
3.170175
2.8608294
2.5588153
2.3136822
2.1142467
1.9436344
1.7950383
1.6666603
1.5570729
1.4640952
1.3852667
1.3178797
1.2601473
1.2107072
1.1682372
1.1314358
1.0992022
1.0706204
1.0449575
1.0216777
1.0004171
0.98085853
0.96278839
0.94596311
0.93017451
0.91526345
0.90113491
0.88771745
0.87493809
0.86273187
0.85102136
0.8397898
0.82891978
0.81840658
0.80822709
0.79834159
0.78871945
0.779339
0.77018241
0.76123623
0.75248513
0.74392036
0.73552861
0.72729738
0.71921866
0.71128592
0.70349145
0.69582434
0.68826861
0.68080279
0.67340097
0.66603606
0.65868114
0.65131048
0.64390404
0.6364457
0.62892105
0.62131418
0.61360668
0.60577617
0.59779526
0.58963308
0.58125603
0.572629
0.56371715
0.55448863
0.54491768
0.53498849
0.52469891
0.51406549
0.50312525
0.49194001
0.4806008
0.46922347
0.45794791
0.44693306
0.43634041
0.42631321
0.41695617
0.40832017
0.40039813
0.39313293
0.3864343
0.38019916
0.3743291
0.36874154
0.36337428
0.35818312
0.35313984
0.34822082
0.34341632
0.338693
0.33407325
0.32939423
0.32532171
0.31844637
0.010279496
0.062742512
0.16256645
0.2805218
0.38409711
0.47510473
0.5587307
0.63024632
0.68576998
0.72677637
0.75495412
0.7710829
0.77651425
0.77350915
0.76466192
0.75236419
0.73827673
0.72338662
0.70827894
0.69327563
0.67858049
0.66432004
0.65054761
0.63731429
0.62465738
0.61256049
0.60107545
0.59012641
0.57966244
0.56964305
0.56005359
0.55087385
0.54207696
0.53363578
0.52551069
0.51770265
0.51014179
0.50283649
0.49577247
0.48892619
0.48227938
0.47581909
0.46953428
0.46341499
0.45745055
0.45163446
0.44595665
0.44040872
0.43498446
0.42967874
0.42448597
0.419398
0.41440416
0.40949046
0.40464053
0.39983748
0.39506431
0.39030507
0.38554702
0.38077966
0.37599317
0.37117662
0.36631769
0.36140167
0.35641096
0.3513259
0.34612514
0.34078627
0.3352869
0.32960621
0.32372691
0.31763757
0.31133522
0.3048284
0.29813938
0.29130733
0.28439016
0.27746328
0.27061782
0.26395432
0.25757118
0.25155127
0.24595011
0.24078884
0.23605437
0.23170629
0.22768788
0.22393793
0.22040008
0.21702824
0.21378818
0.21065593
0.20761565
0.20465502
0.20176658
0.19893627
0.19616674
0.19338665
0.1909251
0.18682561
0.00039722942
0.0025045331
0.008854276
0.018696948
0.031386817
0.046534775
0.06623179
0.090610422
0.12617119
0.16993695
0.21698249
0.26264652
0.30558523
0.34479966
0.37904843
0.40723976
0.42891397
0.44436334
0.45444631
0.46020946
0.46262764
0.46248857
0.46040669
0.45686785
0.45227367
0.44692569
0.4410856
0.43493409
0.42859551
0.42216884
0.41572963
0.40933473
0.40302365
0.39682512
0.3907465
0.38481756
0.37899413
0.37331839
0.36778324
0.36238587
0.35712305
0.35199198
0.34698969
0.3421128
0.33735654
0.33271836
0.32819237
0.32377427
0.31946053
0.31524803
0.31113311
0.30711001
0.30317118
0.29930647
0.29550402
0.2917517
0.28803732
0.2843497
0.28067976
0.2770198
0.27336236
0.269699
0.26602014
0.26231443
0.25856846
0.25476734
0.25089493
0.24693423
0.24286821
0.23868085
0.23435859
0.22989204
0.22527808
0.22052211
0.21564033
0.21066215
0.20563116
0.20060468
0.19565134
0.19084474
0.18625445
0.18193623
0.17792429
0.17422784
0.17083273
0.16770739
0.16481089
0.16210084
0.15953919
0.15709539
0.15474685
0.15247778
0.1502774
0.14813769
0.14605247
0.14401435
0.14202052
0.1400319
0.13825245
0.13531297
6.2913064e-05
0.00016006328
0.00052983178
0.0013824678
0.0028158832
0.0047393037
0.0071737487
0.01032702
0.014833063
0.021571579
0.031197057
0.04613352
0.066424538
0.090891463
0.11818175
0.14714323
0.17688421
0.20623193
0.23375789
0.25812487
0.27848618
0.29462795
0.30684183
0.31566483
0.32167221
0.32537004
0.32720306
0.32755473
0.32674855
0.32504538
0.3226525
0.3197374
0.31643367
0.31284732
0.3090579
0.30514375
0.30112835
0.297065
0.29298629
0.2889139
0.28486508
0.28085438
0.276893
0.27298932
0.2691488
0.26537753
0.26167643
0.25804684
0.25448979
0.25100618
0.24759603
0.24425714
0.24098536
0.2377742
0.23461558
0.23150099
0.22842195
0.22537075
0.22234119
0.21932805
0.21632613
0.2133292
0.21032988
0.20731921
0.20428646
0.20121969
0.19810584
0.19493116
0.1916818
0.18834464
0.18490844
0.18136524
0.1777121
0.17395303
0.17010104
0.16617992
0.16222487
0.15828198
0.15440539
0.15065161
0.14707233
0.14370722
0.14057888
0.13769119
0.13503143
0.13257507
0.13029172
0.12815052
0.12612412
0.12419052
0.12233334
0.12054093
0.118805
0.11711955
0.11547917
0.11387951
0.11231584
0.11076435
0.10936924
0.10706898
4.4498492e-05
5.2635008e-05
8.0406114e-05
0.0001505999
0.00029076022
0.00052570599
0.00087752236
0.0013660599
0.002024115
0.0029261776
0.0041735211
0.0060336485
0.0088309962
0.012892527
0.019085281
0.028413003
0.040924598
0.056639189
0.075063968
0.095660958
0.11770046
0.14013315
0.16169361
0.1812389
0.19804418
0.21187935
0.22288663
0.23138466
0.23772701
0.24224433
0.24523669
0.2469741
0.2476903
0.24758152
0.24680831
0.24551368
0.24379564
0.24174673
0.2394432
0.23694483
0.23429967
0.23154721
0.22871981
0.22584406
0.22294061
0.22002791
0.21711925
0.21422534
0.21135503
0.20851564
0.20571264
0.20294889
0.20022494
0.19753879
0.1948866
0.19226375
0.18966523
0.18708659
0.18452466
0.18197695
0.17944067
0.176912
0.17438583
0.17185546
0.16931254
0.16674748
0.16414964
0.16150767
0.15881007
0.15604585
0.15320547
0.15028209
0.147273
0.14418131
0.1410177
0.13780177
0.13456236
0.13133688
0.12816846
0.1251011
0.12217422
0.11941735
0.11684685
0.11446515
0.1122626
0.11022107
0.10831817
0.1065311
0.10483938
0.10322621
0.10167875
0.10018758
0.098745688
0.09734805
0.095989746
0.09466792
0.09337727
0.092101978
0.090954567
0.089057736
4.2586625e-05
4.4214769e-05
4.7817786e-05
5.6097458e-05
7.2877461e-05
0.00010251856
0.00015006642
0.00022161876
0.0003247264
0.00047053662
0.00067317471
0.00095762061
0.0013632232
0.0019394742
0.0027781911
0.00404676
0.0059436196
0.0086992933
0.013027286
0.019529031
0.02847741
0.040072344
0.053998898
0.069903121
0.08713262
0.1047477
0.12169547
0.13710398
0.15047596
0.16168531
0.17084107
0.17814702
0.18382578
0.18809712
0.1911697
0.19323978
0.19447068
0.19500452
0.19496485
0.1944557
0.19356382
0.19236173
0.19091009
0.18925993
0.18745309
0.18552538
0.1835061
0.18141931
0.1792851
0.1771203
0.17493853
0.17275008
0.17056183
0.16837751
0.16619839
0.16402429
0.1618545
0.15968846
0.1575263
0.15536859
0.15321547
0.15106591
0.14891744
0.14676594
0.1446054
0.14242858
0.14022706
0.13799168
0.13571295
0.13338168
0.13098981
0.12853139
0.12600388
0.1234096
0.12075711
0.11806227
0.11534833
0.11264522
0.10998694
0.1074078
0.10493844
0.10260207
0.10041218
0.09837215
0.096476376
0.094712699
0.093065248
0.091517159
0.090052643
0.088658225
0.087323105
0.086039066
0.084799729
0.083600526
0.082436839
0.081306556
0.08020437
0.07911882
0.078144524
0.076525301
4.169614e-05
4.2629971e-05
4.376164e-05
4.54062e-05
4.8255538e-05
5.3205426e-05
6.1274173e-05
7.3626233e-05
9.1645673e-05
0.00011720619
0.000152835
0.00020226661
0.00027128971
0.00036803472
0.00050449113
0.00070077195
0.00098704488
0.0013999948
0.0020170758
0.0029631254
0.0044064616
0.0065444242
0.010031846
0.015259928
0.022540082
0.031994933
0.043418143
0.056440847
0.070420432
0.084507524
0.097874811
0.10993554
0.12041683
0.12928706
0.13663728
0.14260608
0.14734457
0.15100735
0.15374441
0.15569238
0.15697212
0.15768928
0.15793526
0.15778882
0.15731688
0.15657682
0.15561742
0.15447981
0.15319876
0.15180377
0.15031943
0.14876576
0.14715817
0.14550786
0.14382265
0.14210797
0.14036814
0.13860711
0.13682902
0.13503809
0.13323797
0.13143101
0.12961786
0.12779727
0.12596609
0.12411957
0.12225167
0.1203554
0.11842326
0.11644781
0.11442235
0.11234176
0.11020366
0.10800951
0.10576583
0.10348487
0.10118473
0.098888563
0.096622542
0.094413255
0.092284947
0.090256998
0.088342256
0.08654643
0.084868473
0.0833018
0.081836027
0.080458896
0.079157994
0.077922015
0.076741383
0.075608482
0.074517217
0.073463195
0.072441981
0.071451811
0.070487621
0.069540309
0.068693916
0.067277748
4.0823155e-05
4.1596207e-05
4.2353222e-05
4.3089371e-05
4.3935777e-05
4.5101078e-05
4.6861847e-05
4.9542029e-05
5.3491602e-05
5.9108863e-05
6.687863e-05
7.7436984e-05
9.1697386e-05
0.00011097985
0.00013718153
0.00017321763
0.00022365346
0.00029476359
0.000396641
0.00054585217
0.00076878496
0.0010979627
0.0016091365
0.0024151373
0.0036640879
0.0056354439
0.0088270092
0.013562507
0.020115441
0.028438335
0.038343273
0.049398024
0.060947005
0.072270126
0.082789159
0.092176298
0.10032301
0.10724768
0.1130252
0.11775605
0.12155338
0.12453196
0.12679996
0.12845628
0.12958952
0.13027811
0.13059086
0.13058747
0.13031952
0.12983149
0.1291613
0.12834088
0.12739625
0.12634798
0.12521203
0.12400081
0.12272469
0.121393
0.12001464
0.1185982
0.11715148
0.11568081
0.11419057
0.11268297
0.11115814
0.10961423
0.10804785
0.10645442
0.10482857
0.1031647
0.10145751
0.09970277
0.097898246
0.096044619
0.094146389
0.092212386
0.090255827
0.088293718
0.086345453
0.084431295
0.082570784
0.080781111
0.079075774
0.077463596
0.075948227
0.074528274
0.073198115
0.071949246
0.07077182
0.069656046
0.068593096
0.067575639
0.066597665
0.065654806
0.064742738
0.063859818
0.063001332
0.062159383
0.061411519
0.060150942
3.9956089e-05
4.0603638e-05
4.1252959e-05
4.1835882e-05
4.2345675e-05
4.284218e-05
4.3417232e-05
4.4178785e-05
4.5238776e-05
4.6722842e-05
4.8776674e-05
5.1565655e-05
5.5290482e-05
6.0211226e-05
6.6676351e-05
7.5179214e-05
8.645353e-05
0.0001015572
0.00012206516
0.00015040175
0.0001905443
0.00024795846
0.00033223182
0.00045966268
0.00065458563
0.00095675724
0.0014433927
0.0022300963
0.0034598488
0.005535078
0.0087868861
0.013497169
0.019757477
0.027466051
0.036324831
0.045823076
0.055352145
0.064388975
0.072607863
0.079870878
0.086156441
0.091500046
0.095966597
0.099637584
0.10260005
0.10493911
0.10673487
0.10806086
0.10898318
0.10956068
0.10984499
0.10988085
0.1097062
0.10935236
0.10884483
0.10820431
0.10744831
0.10659239
0.10565102
0.10463786
0.1035655
0.10244488
0.10128475
0.10009143
0.098868813
0.097618503
0.096340178
0.095031987
0.093690983
0.092313582
0.090896085
0.089435296
0.087929257
0.086377991
0.084784146
0.083153365
0.081494376
0.079818636
0.078139624
0.076472345
0.074832756
0.073236845
0.071699441
0.070232778
0.068845114
0.067539888
0.066315728
0.065167359
0.06408705
0.063066173
0.06209641
0.061170561
0.06028261
0.059428131
0.058602869
0.057805171
0.057030716
0.056272119
0.055602782
0.054465998
3.9104263e-05
3.9647288e-05
4.0202205e-05
4.0714217e-05
4.1164648e-05
4.1558921e-05
4.1918866e-05
4.2275267e-05
4.2676139e-05
4.3174591e-05
4.3824486e-05
4.4685911e-05
4.5826825e-05
4.7320916e-05
4.9262594e-05
5.1770547e-05
5.5001707e-05
5.9168738e-05
6.4569098e-05
7.1626525e-05
8.099565e-05
9.3615896e-05
0.00011093759
0.00013534093
0.0001705895
0.00022256186
0.00030161361
0.00042582809
0.00062007694
0.00093850716
0.0014693354
0.0023286839
0.0037812738
0.0061589121
0.0097302781
0.014634559
0.020824144
0.028080394
0.035988088
0.044031762
0.051757514
0.058872862
0.065240919
0.070822869
0.075631431
0.079708833
0.083114696
0.085915711
0.088179175
0.089969999
0.091348654
0.092370057
0.093082773
0.093528626
0.09374298
0.093755482
0.093591465
0.093273387
0.092821849
0.092256145
0.091594177
0.090852041
0.090043456
0.089179432
0.088268224
0.087315426
0.086324289
0.085296129
0.084230769
0.083126971
0.081982904
0.080796647
0.079566772
0.078292895
0.076976113
0.07561926
0.074227062
0.072806065
0.071364605
0.069913223
0.068464993
0.067035193
0.065640195
0.064295584
0.063013977
0.061803292
0.060666063
0.059599952
0.058599131
0.057656007
0.056762692
0.055912077
0.055098107
0.054316274
0.053562365
0.052834649
0.052129199
0.051438729
0.050833859
0.049798791
3.8264644e-05
3.8725389e-05
3.9200321e-05
3.9647948e-05
4.0053405e-05
4.0415843e-05
4.0741426e-05
4.10391e-05
4.1321239e-05
4.1603989e-05
4.1906784e-05
4.2252557e-05
4.2668606e-05
4.3190886e-05
4.3854941e-05
4.4701563e-05
4.5779973e-05
4.715121e-05
4.8894925e-05
5.1107522e-05
5.3928899e-05
5.7554694e-05
6.2262591e-05
6.8469718e-05
7.6814834e-05
8.8267257e-05
0.00010436816
0.00012780378
0.00016256484
0.0002158364
0.00030080739
0.0004373312
0.00066405443
0.0010515363
0.0016981535
0.002805574
0.0046723994
0.0075469942
0.011571211
0.01672405
0.022825678
0.029518198
0.03636027
0.042969248
0.049099483
0.054630951
0.059521951
0.063774619
0.067418167
0.070497788
0.073065645
0.075175504
0.076879375
0.078225174
0.079255617
0.080007999
0.080514946
0.080805595
0.080906674
0.080843197
0.080638573
0.080314318
0.079889492
0.079380271
0.078799785
0.078158142
0.077462679
0.076718356
0.07592819
0.075093674
0.074215195
0.07329245
0.072324892
0.071312108
0.070254085
0.069151371
0.068005298
0.066818204
0.065593987
0.064339334
0.063064827
0.061785153
0.060518087
0.059282242
0.058094202
0.056966024
0.055903901
0.054908304
0.053975275
0.053098274
0.052269884
0.05148312
0.050731917
0.050011687
0.049318254
0.048649772
0.048002706
0.047369617
0.046819137
0.045870077
3.7435507e-05
3.7831269e-05
3.8241695e-05
3.8634659e-05
3.8997602e-05
3.9328863e-05
3.9631979e-05
3.9911921e-05
4.0173386e-05
4.042094e-05
4.0659864e-05
4.0896931e-05
4.1140872e-05
4.1403674e-05
4.1699854e-05
4.2046361e-05
4.2462749e-05
4.2971889e-05
4.3599842e-05
4.4384913e-05
4.5370356e-05
4.6610869e-05
4.8178751e-05
5.0175036e-05
5.2737061e-05
5.6060533e-05
6.0436853e-05
6.6332894e-05
7.4451533e-05
8.5906179e-05
0.00010265723
0.00012781949
0.00016678484
0.00022981374
0.00033334753
0.00050831096
0.00081473763
0.0013390353
0.0022575335
0.0038329018
0.0062912515
0.0097525628
0.014201203
0.019468179
0.025227186
0.031097901
0.036767224
0.042040305
0.046820372
0.051070764
0.054790974
0.058003551
0.060743768
0.063052038
0.064969501
0.066535386
0.067786017
0.068754939
0.069473529
0.069971558
0.070277328
0.070417446
0.070416223
0.070295127
0.070072444
0.069763175
0.069379182
0.068929514
0.068420814
0.067857718
0.067243234
0.066579084
0.065866031
0.065104122
0.064292801
0.06343098
0.062517328
0.06155074
0.060531374
0.059462548
0.058352547
0.057215326
0.056069662
0.054936665
0.053836385
0.052784642
0.051791102
0.050859019
0.049986388
0.049167847
0.048396582
0.04766583
0.046969579
0.046303198
0.045662558
0.045045691
0.044449443
0.043866088
0.043362708
0.04248833
3.6616992e-05
3.6960872e-05
3.7319151e-05
3.7666856e-05
3.7993137e-05
3.8295451e-05
3.8575796e-05
3.8837788e-05
3.9084821e-05
3.9319488e-05
3.9543809e-05
3.9759729e-05
3.9969565e-05
4.0176434e-05
4.0384684e-05
4.0600134e-05
4.0830083e-05
4.1083496e-05
4.1370789e-05
4.1705505e-05
4.2104071e-05
4.2586137e-05
4.3175788e-05
4.3902191e-05
4.4808516e-05
4.5954363e-05
4.7415053e-05
4.9299254e-05
5.176386e-05
5.5025684e-05
5.9441467e-05
6.5570484e-05
7.4293561e-05
8.7165538e-05
0.00010675815
0.0001374869
0.00018802805
0.00027269879
0.00041906344
0.00068178242
0.0011399666
0.0019662051
0.0033911709
0.00561799
0.0087283191
0.012696867
0.017345742
0.022369391
0.027443942
0.032322726
0.036859095
0.040980038
0.044657372
0.047891145
0.050698654
0.05310597
0.05514295
0.056840742
0.058230727
0.059344209
0.06021213
0.060864622
0.061330228
0.06163513
0.061802541
0.061852381
0.061801235
0.06166254
0.061446915
0.061162515
0.060815363
0.060409634
0.05994788
0.059431159
0.058859028
0.05822952
0.057539471
0.05678517
0.055963751
0.05507562
0.054126842
0.053130352
0.052105352
0.05107477
0.050061499
0.049084702
0.048157331
0.047285443
0.046469137
0.045704436
0.044985316
0.044305389
0.0436588
0.043040934
0.04244774
0.04187714
0.041326359
0.040787314
0.04032577
0.039517882
3.5810275e-05
3.6112342e-05
3.6428107e-05
3.6738118e-05
3.7033151e-05
3.7310115e-05
3.7569712e-05
3.7814336e-05
3.8046559e-05
3.8268474e-05
3.8481621e-05
3.868714e-05
3.888597e-05
3.9079014e-05
3.9267373e-05
3.9452602e-05
3.9636829e-05
3.9822913e-05
4.0014546e-05
4.0216465e-05
4.0434701e-05
4.0676737e-05
4.0951823e-05
4.1270921e-05
4.1648179e-05
4.2102542e-05
4.2658172e-05
4.3345898e-05
4.4208453e-05
4.5315076e-05
4.6754204e-05
4.8656504e-05
5.1208611e-05
5.4700085e-05
5.9604977e-05
6.667188e-05
7.7242128e-05
9.357369e-05
0.00011961626
0.00016335805
0.00023800544
0.00037069639
0.0006147117
0.0010460407
0.0018480613
0.0032229674
0.0053362159
0.0082392256
0.011875654
0.016047071
0.020469861
0.024879044
0.029090073
0.032997108
0.036546623
0.039717631
0.042510111
0.044936749
0.047017771
0.0487782
0.050246078
0.051451094
0.052423217
0.05319142
0.05378263
0.054220994
0.054527506
0.054719941
0.054813011
0.054818612
0.054746085
0.054602432
0.054392456
0.054118794
0.053781802
0.053379454
0.052907648
0.052360971
0.051734305
0.051025614
0.050238818
0.049385485
0.048484587
0.047560076
0.04663697
0.045737269
0.04487698
0.04406498
0.043303646
0.04259063
0.041920935
0.041288745
0.040688494
0.040115676
0.039566364
0.039038403
0.038529399
0.038030903
0.037607454
0.03686019
3.5017084e-05
3.5285148e-05
3.5565994e-05
3.5844382e-05
3.6112595e-05
3.6367368e-05
3.6608506e-05
3.6837416e-05
3.7055889e-05
3.7265522e-05
3.7467588e-05
3.7663063e-05
3.7852695e-05
3.8037055e-05
3.821662e-05
3.8391891e-05
3.8563451e-05
3.873205e-05
3.8898733e-05
3.9064922e-05
3.9232523e-05
3.9404042e-05
3.9582746e-05
3.9772735e-05
3.9979138e-05
4.0208533e-05
4.0469428e-05
4.0772578e-05
4.1131623e-05
4.1566502e-05
4.210395e-05
4.2778984e-05
4.3645402e-05
4.4786191e-05
4.631556e-05
4.8404493e-05
5.1306609e-05
5.5449713e-05
6.1515322e-05
7.0760693e-05
8.5296493e-05
0.0001089737
0.00014978555
0.0002206511
0.00035119789
0.00059456768
0.0010412543
0.0018746538
0.0032723323
0.0053531263
0.0081375497
0.011526958
0.015304478
0.019217803
0.023061748
0.026703944
0.030068573
0.033116231
0.035832091
0.038218153
0.04028762
0.042061161
0.043563992
0.044823483
0.04586722
0.046721541
0.047410559
0.047955637
0.048375202
0.048684771
0.048897069
0.049022134
0.049067371
0.049037489
0.048934304
0.048756534
0.048500058
0.048158707
0.047725941
0.04719783
0.04657629
0.045871221
0.045100704
0.044288877
0.043462079
0.042644542
0.041855014
0.041105149
0.040399759
0.039738373
0.039117291
0.038531491
0.037975868
0.037446136
0.036938566
0.036450973
0.035981356
0.035520929
0.035133005
0.034442281
3.423938e-05
3.4479548e-05
3.473151e-05
3.4983213e-05
3.5228272e-05
3.5463493e-05
3.5688128e-05
3.5902864e-05
3.6108865e-05
3.6307274e-05
3.6499066e-05
3.6685039e-05
3.6865838e-05
3.7041967e-05
3.7213823e-05
3.7381748e-05
3.7546032e-05
3.7706941e-05
3.7864781e-05
3.8019939e-05
3.8172928e-05
3.8324446e-05
3.8475442e-05
3.8627199e-05
3.8781401e-05
3.8940251e-05
3.9106643e-05
3.9284355e-05
3.9478202e-05
3.9694579e-05
3.9942199e-05
4.0232372e-05
4.0580841e-05
4.1010883e-05
4.1555019e-05
4.2256324e-05
4.3194847e-05
4.447676e-05
4.6261511e-05
4.8794215e-05
5.2482809e-05
5.7991043e-05
6.6598406e-05
8.0380429e-05
0.00010353492
0.00014427193
0.00021743632
0.00035711121
0.0006181988
0.0011190109
0.0020306685
0.0035062417
0.0056124146
0.008327766
0.011509071
0.014937446
0.018403393
0.021755687
0.024900538
0.027784414
0.03038179
0.032687139
0.034708527
0.036462769
0.03797172
0.039259413
0.040350004
0.041266388
0.0420294
0.042657392
0.043166056
0.043568332
0.043874319
0.044091109
0.04422249
0.044268639
0.044226281
0.04408943
0.043851001
0.043505816
0.043054055
0.042503773
0.041871587
0.041181001
0.040458815
0.039730797
0.039018
0.038334716
0.037688281
0.037080329
0.036508722
0.035969481
0.035458152
0.034970816
0.034504024
0.034055637
0.033624066
0.033200255
0.032846215
0.032209365
3.3479125e-05
3.3696214e-05
3.3924123e-05
3.4153194e-05
3.4378181e-05
3.459611e-05
3.4805916e-05
3.5007789e-05
3.5202422e-05
3.5390586e-05
3.5572993e-05
3.5750258e-05
3.5922903e-05
3.6091353e-05
3.6255958e-05
3.6417018e-05
3.6574777e-05
3.6729432e-05
3.6881149e-05
3.703009e-05
3.7176416e-05
3.732031e-05
3.7462001e-05
3.7601803e-05
3.7740146e-05
3.787763e-05
3.8015089e-05
3.8153665e-05
3.8294905e-05
3.8440869e-05
3.8594362e-05
3.8759141e-05
3.8940247e-05
3.9144703e-05
3.938252e-05
3.9666717e-05
4.0018366e-05
4.0468052e-05
4.1056413e-05
4.1857652e-05
4.2977613e-05
4.4572752e-05
4.6895546e-05
5.0353243e-05
5.5660084e-05
6.4158352e-05
7.8127852e-05
0.00010254869
0.0001462703
0.00022859601
0.00038888152
0.00069391301
0.0012889291
0.0023276101
0.0039155848
0.0060789841
0.0087383558
0.011716932
0.014814395
0.017870156
0.020778488
0.02347652
0.02593174
0.028133305
0.030084953
0.031799518
0.033294894
0.034591128
0.035708457
0.036666062
0.037481303
0.038169241
0.038742286
0.039209848
0.03957792
0.03984863
0.040020264
0.040087868
0.04004469
0.039885036
0.039607769
0.039219112
0.038733803
0.038173988
0.037566073
0.036936577
0.036308303
0.035697907
0.035115232
0.03456418
0.034044419
0.03355326
0.033087115
0.03264259
0.032216634
0.031807233
0.031413247
0.031025445
0.030704396
0.030119906
3.2738137e-05
3.2935984e-05
3.3143732e-05
3.3353521e-05
3.3561055e-05
3.3763653e-05
3.3960106e-05
3.4150269e-05
3.4334485e-05
3.451324e-05
3.4687026e-05
3.4856301e-05
3.5021466e-05
3.5182866e-05
3.534079e-05
3.5495492e-05
3.5647185e-05
3.5796043e-05
3.5942209e-05
3.6085804e-05
3.6226925e-05
3.636565e-05
3.6502041e-05
3.6636159e-05
3.6768069e-05
3.689787e-05
3.7025714e-05
3.7151835e-05
3.7276594e-05
3.7400524e-05
3.7524391e-05
3.7649288e-05
3.7776742e-05
3.7908872e-05
3.8048709e-05
3.8200388e-05
3.8369844e-05
3.8566041e-05
3.880099e-05
3.9094109e-05
3.9475119e-05
3.998409e-05
4.0695964e-05
4.1717812e-05
4.3215254e-05
4.5455661e-05
4.887583e-05
5.4317367e-05
6.3243702e-05
7.8503496e-05
0.00010611087
0.0001569893
0.00025766321
0.00045332679
0.00084527008
0.001578827
0.0027803655
0.0045056133
0.0067240918
0.0093007391
0.01205303
0.014819996
0.017490222
0.019995653
0.022299392
0.024386514
0.026256724
0.027918702
0.029386093
0.030674729
0.031800773
0.032779481
0.033624336
0.034346363
0.034953487
0.035449889
0.035835821
0.036108014
0.036260827
0.036288808
0.036190073
0.035969227
0.035638944
0.035219452
0.034735976
0.034214967
0.033680304
0.033150582
0.032638001
0.032148789
0.031684606
0.031244286
0.030825321
0.030425022
0.030040859
0.02967105
0.029314949
0.028963268
0.028674941
0.028142261
3.2017994e-05
3.2199681e-05
3.239043e-05
3.2583723e-05
3.2776045e-05
3.2965037e-05
3.3149456e-05
3.3328946e-05
3.35036e-05
3.3673682e-05
3.383951e-05
3.4001408e-05
3.4159675e-05
3.4314579e-05
3.4466353e-05
3.4615203e-05
3.4761306e-05
3.4904811e-05
3.504584e-05
3.5184498e-05
3.5320868e-05
3.5455005e-05
3.5586945e-05
3.5716699e-05
3.5844257e-05
3.5969597e-05
3.6092691e-05
3.6213516e-05
3.6332069e-05
3.6448386e-05
3.6562563e-05
3.6674788e-05
3.6785384e-05
3.6894858e-05
3.7003988e-05
3.7113928e-05
3.7226339e-05
3.7343724e-05
3.746967e-05
3.7609448e-05
3.7771376e-05
3.7966935e-05
3.8215339e-05
3.8546558e-05
3.9001568e-05
3.9661931e-05
4.0639264e-05
4.2119411e-05
4.4399543e-05
4.7999321e-05
5.3942071e-05
6.3965364e-05
8.2019873e-05
0.00011531118
0.00018069294
0.00031214353
0.00057656022
0.0011021117
0.0020201496
0.0034046518
0.0052597959
0.0074877906
0.009927863
0.012425122
0.014867407
0.017184563
0.019337055
0.021306666
0.023089285
0.024689445
0.026116506
0.027382003
0.028497796
0.029474726
0.030321535
0.0310439
0.031643941
0.032120336
0.032469102
0.032685706
0.032768143
0.03271982
0.032551402
0.032280871
0.03193163
0.031529266
0.031097979
0.030657735
0.030222778
0.02980159
0.029397918
0.029012304
0.028643522
0.028289766
0.027949168
0.027620297
0.027303053
0.026988236
0.026732902
0.026252306
3.1319993e-05
3.1488018e-05
3.166435e-05
3.1843479e-05
3.2022518e-05
3.2199426e-05
3.2373003e-05
3.2542768e-05
3.2708641e-05
3.2870721e-05
3.3029187e-05
3.3184252e-05
3.3336129e-05
3.3485019e-05
3.3631103e-05
3.3774544e-05
3.3915485e-05
3.4054048e-05
3.4190336e-05
3.4324433e-05
3.445641e-05
3.4586313e-05
3.4714167e-05
3.4839976e-05
3.4963719e-05
3.5085355e-05
3.5204823e-05
3.5322046e-05
3.5436937e-05
3.5549401e-05
3.5659349e-05
3.57667e-05
3.5871403e-05
3.5973453e-05
3.6072912e-05
3.6169954e-05
3.6264902e-05
3.6358305e-05
3.6451057e-05
3.6544511e-05
3.6640826e-05
3.6743226e-05
3.6856668e-05
3.6989304e-05
3.7152427e-05
3.736649e-05
3.7662335e-05
3.8087774e-05
3.8730415e-05
3.9717089e-05
4.1266337e-05
4.372409e-05
4.7787793e-05
5.4671361e-05
6.6926001e-05
8.9794083e-05
0.00013407445
0.00022562313
0.0004095653
0.00079415547
0.0015049463
0.0026300811
0.0041934615
0.0061270681
0.0082926218
0.010545665
0.01277699
0.014916416
0.016922819
0.018775192
0.020465836
0.021995242
0.023368458
0.024592502
0.025674438
0.026619816
0.027431692
0.028110329
0.028653487
0.029057965
0.029322208
0.029448938
0.029447099
0.029332355
0.029125856
0.028851633
0.028533433
0.028191909
0.027842874
0.027496831
0.027159592
0.026833509
0.026518802
0.02621472
0.025920198
0.025634278
0.025357467
0.025080814
0.024859222
0.024431702
3.0645126e-05
3.0801531e-05
3.0965574e-05
3.1132499e-05
3.1299921e-05
3.1466096e-05
3.162991e-05
3.1790822e-05
3.1948638e-05
3.2103337e-05
3.225499e-05
3.2403719e-05
3.2549666e-05
3.2692972e-05
3.2833774e-05
3.2972196e-05
3.310835e-05
3.3242334e-05
3.3374229e-05
3.3504105e-05
3.3632016e-05
3.3757999e-05
3.3882071e-05
3.400423e-05
3.4124455e-05
3.4242701e-05
3.4358907e-05
3.4472991e-05
3.4584854e-05
3.4694382e-05
3.4801447e-05
3.4905909e-05
3.5007624e-05
3.5106447e-05
3.5202241e-05
3.5294887e-05
3.5384301e-05
3.5470451e-05
3.5553395e-05
3.563332e-05
3.5710615e-05
3.5785986e-05
3.5860583e-05
3.5936386e-05
3.6016404e-05
3.6105629e-05
3.6212255e-05
3.6348716e-05
3.6537404e-05
3.6811157e-05
3.7230761e-05
3.7891087e-05
3.8953308e-05
4.066954e-05
4.3516265e-05
4.8412007e-05
5.7048438e-05
7.3397973e-05
0.0001047426
0.00017040662
0.00030550356
0.0005947156
0.0011559498
0.0020843698
0.0034161447
0.005105724
0.0070351804
0.0090720514
0.011112115
0.013086378
0.014952744
0.016687771
0.018280365
0.019727013
0.021028324
0.02218638
0.023202924
0.024078412
0.024811673
0.025400731
0.025844757
0.026146253
0.026312854
0.026358073
0.02630062
0.026162458
0.025966158
0.025732319
0.025477707
0.025214453
0.024950258
0.024689282
0.024433285
0.024182707
0.023937416
0.02369705
0.023462787
0.023226096
0.023039423
0.022666602
2.9994093e-05
3.0140559e-05
3.0294075e-05
3.0450451e-05
3.0607698e-05
3.0764341e-05
3.0919373e-05
3.1072238e-05
3.1222672e-05
3.137057e-05
3.1515921e-05
3.1658776e-05
3.1799216e-05
3.1937334e-05
3.2073224e-05
3.2206979e-05
3.2338682e-05
3.2468409e-05
3.2596223e-05
3.2722178e-05
3.2846314e-05
3.2968657e-05
3.3089219e-05
3.3207991e-05
3.332495e-05
3.344005e-05
3.3553233e-05
3.3664418e-05
3.377351e-05
3.3880397e-05
3.3984952e-05
3.4087031e-05
3.4186477e-05
3.4283121e-05
3.4376784e-05
3.4467279e-05
3.4554418e-05
3.4638013e-05
3.4717889e-05
3.4793898e-05
3.486593e-05
3.4933955e-05
3.4998055e-05
3.505851e-05
3.5115897e-05
3.5171262e-05
3.5226494e-05
3.5284637e-05
3.5351092e-05
3.5434305e-05
3.5549212e-05
3.5720802e-05
3.5987987e-05
3.6427379e-05
3.715484e-05
3.8371517e-05
4.0409872e-05
4.3985188e-05
5.0308492e-05
6.2339583e-05
8.5633331e-05
0.00013463535
0.0002381386
0.000462953
0.00091761553
0.0016983832
0.0028488621
0.0043395003
0.0060691539
0.0079169609
0.0097844319
0.011604356
0.013334021
0.014947795
0.016431357
0.017777197
0.018981392
0.020041594
0.020955793
0.021722214
0.022340435
0.022812882
0.023146235
0.023352155
0.02344696
0.023450247
0.023382829
0.023264518
0.023112331
0.022939479
0.022755213
0.022565367
0.02237324
0.022180537
0.02198816
0.021796449
0.021607313
0.021412815
0.021262605
0.020946672
2.9367315e-05
2.9505238e-05
2.9649694e-05
2.9796922e-05
2.9945247e-05
3.0093425e-05
3.0240565e-05
3.0386128e-05
3.052981e-05
3.067145e-05
3.081098e-05
3.0948393e-05
3.1083722e-05
3.1217018e-05
3.134834e-05
3.1477752e-05
3.1605313e-05
3.1731077e-05
3.1855092e-05
3.1977396e-05
3.2098017e-05
3.2216974e-05
3.2334268e-05
3.2449887e-05
3.2563805e-05
3.2675976e-05
3.2786342e-05
3.2894825e-05
3.3001335e-05
3.3105764e-05
3.3207992e-05
3.3307882e-05
3.3405282e-05
3.3500027e-05
3.3591939e-05
3.3680826e-05
3.3766484e-05
3.3848698e-05
3.3927243e-05
3.400189e-05
3.4072406e-05
3.4138568e-05
3.420017e-05
3.4257042e-05
3.4309084e-05
3.43563e-05
3.4398896e-05
3.4437375e-05
3.4472787e-05
3.4507022e-05
3.4543428e-05
3.4588087e-05
3.4650468e-05
3.4749217e-05
3.4913171e-05
3.5198148e-05
3.5692973e-05
3.6560089e-05
3.804958e-05
4.0710456e-05
4.5497851e-05
5.4666145e-05
7.2694689e-05
0.00011076757
0.00019302408
0.00037418356
0.00075342172
0.0014246817
0.0024351415
0.0037653415
0.0053266459
0.0070082359
0.0087172679
0.010388531
0.011978978
0.013461077
0.014817568
0.016037765