/*--------------------------------*- C++ -*----------------------------------*\
| =========                 |                                                 |
| \\      /  F ield         | OpenFOAM: The Open Source CFD Toolbox           |
|  \\    /   O peration     | Version:  2206                                  |
|   \\  /    A nd           | Website:  www.openfoam.com                      |
|    \\/     M anipulation  |                                                 |
\*---------------------------------------------------------------------------*/
FoamFile
{
    version     2.0;
    format      ascii;
    arch        "LSB;label=32;scalar=64";
    class       volScalarField;
    location    "200";
    object      k;
}
// * * * * * * * * * * * * * * * * * * * * * * * * * * * * * * * * * * * * * //

dimensions      [0 2 -2 0 0 0 0];

internalField   nonuniform List<scalar> 
7480
(
0.03215903
0.062189292
0.068862812
0.063404034
0.054826051
0.047443674
0.042125762
0.038291935
0.035348361
0.032952512
0.030945619
0.029251484
0.027820412
0.026610607
0.025585419
0.024711993
0.023965564
0.023326838
0.022776724
0.022301239
0.021885058
0.021516251
0.02118492
0.020883835
0.020608041
0.02035325
0.020116678
0.019895371
0.019686731
0.019488606
0.019299804
0.019119477
0.018946715
0.018780753
0.018620685
0.018466249
0.018316037
0.018169934
0.018027632
0.017888647
0.017752631
0.017619293
0.017488406
0.017359842
0.017233408
0.017109003
0.01698648
0.016865669
0.01674649
0.016628861
0.016512685
0.016397844
0.016284127
0.016171249
0.016058844
0.015946514
0.015833859
0.015720476
0.015606045
0.015490295
0.015372988
0.015253863
0.015132618
0.015008888
0.014882221
0.014752104
0.014617963
0.01447919
0.014335158
0.014185269
0.014028991
0.013865923
0.013695848
0.013518821
0.013335192
0.013145661
0.012951427
0.012754123
0.012555849
0.012359252
0.012167307
0.011982962
0.011808723
0.011646243
0.011496079
0.01135771
0.011229782
0.011110493
0.010997977
0.010890586
0.010787039
0.010686404
0.010588107
0.010491625
0.010396848
0.01030288
0.010210637
0.010115709
0.010034665
0.0098939634
0.0025134582
0.0095410716
0.016637641
0.020675871
0.021725005
0.021450856
0.020809918
0.020155743
0.019516753
0.018882156
0.01826842
0.017699924
0.017190675
0.016742818
0.01635304
0.01600834
0.015707982
0.015450455
0.015229939
0.015038658
0.01486961
0.014716982
0.014576416
0.014445319
0.014322575
0.014206641
0.01409734
0.013992591
0.01389102
0.013791867
0.013695176
0.013600894
0.013508776
0.013418604
0.013329786
0.013242785
0.013156003
0.013070231
0.012985408
0.012901216
0.012817499
0.012734213
0.012651359
0.012568939
0.012486907
0.012405327
0.012324123
0.012243259
0.012162755
0.012082634
0.012002908
0.011923506
0.01184428
0.011764988
0.011685308
0.011604916
0.011523478
0.011440691
0.011356341
0.011270274
0.011182357
0.011092414
0.011000224
0.010905494
0.010807841
0.010706821
0.010601937
0.01049266
0.010378451
0.010258807
0.010133306
0.010001669
0.0098638261
0.0097199919
0.0095707283
0.0094169954
0.0092602025
0.0091021618
0.008945005
0.0087910462
0.0086425297
0.0085013485
0.0083688053
0.008245471
0.0081311819
0.0080251753
0.0079263132
0.007833328
0.0077450243
0.0076604031
0.0075787051
0.0074993874
0.0074220796
0.0073465012
0.0072724545
0.0071996676
0.0071280621
0.007056224
0.0069922446
0.0068842006
0.00020450689
0.00055575376
0.0012940882
0.0026217708
0.0042031748
0.0058168954
0.0072710669
0.0085051593
0.0095672341
0.010491706
0.011283685
0.011938436
0.012460432
0.012867387
0.013182987
0.013435562
0.013640325
0.013805693
0.013937754
0.014041209
0.014120164
0.014177934
0.014216712
0.014240064
0.014250903
0.014250405
0.01424374
0.014228851
0.01420676
0.01417815
0.014144651
0.014107068
0.014065942
0.014021752
0.013974281
0.013925008
0.01387171
0.013816778
0.013759927
0.013701095
0.013640412
0.013578077
0.013514296
0.013449243
0.013383015
0.013315854
0.013247746
0.013178783
0.013109093
0.013038802
0.012968019
0.012896735
0.012824856
0.012752156
0.012678314
0.012603007
0.012525896
0.01244668
0.012365175
0.012281272
0.01219488
0.012105852
0.012013988
0.011918996
0.01182047
0.011717933
0.011610843
0.011498613
0.011380644
0.011256367
0.011125306
0.010987142
0.010841795
0.010689514
0.010530957
0.01036726
0.010200069
0.010031499
0.0098640135
0.0097001978
0.0095424496
0.0093926747
0.0092520584
0.0091209808
0.0089990855
0.0088854718
0.0087789432
0.0086782454
0.0085822402
0.0084899998
0.0084008236
0.0083142128
0.0082298039
0.0081473485
0.0080665853
0.0079874002
0.0079093758
0.0078318962
0.0077614526
0.0076443825
0.00014201353
0.00015314681
0.0001844975
0.00026719245
0.00043655474
0.00068535995
0.0011442644
0.0017868076
0.0026139426
0.0035350961
0.0044922543
0.005470371
0.0064570803
0.0074296714
0.0083568442
0.0092102224
0.009972032
0.010637406
0.011211839
0.011705122
0.012127254
0.012486945
0.012792317
0.013049993
0.013266535
0.013446828
0.013596534
0.013720126
0.013820838
0.013902295
0.013967018
0.014017334
0.014055208
0.014082488
0.014099909
0.014109982
0.014108886
0.01410262
0.014089437
0.014070376
0.014046025
0.014016941
0.013983632
0.013946542
0.013906011
0.013862537
0.013816201
0.013767321
0.013716176
0.013663037
0.013608148
0.013551607
0.013493423
0.013433431
0.013371352
0.013306906
0.013239781
0.013169709
0.01309656
0.01302029
0.012940874
0.012858223
0.012772183
0.012682499
0.012588781
0.012490557
0.012387282
0.012278354
0.012163154
0.01204109
0.011911663
0.011774538
0.011629634
0.011477213
0.011317979
0.011153148
0.010984461
0.010814149
0.01064478
0.010479
0.010319211
0.010167271
0.010024296
0.0098906036
0.0097658134
0.0096490499
0.0095391818
0.0094350398
0.0093355688
0.0092399071
0.0091473949
0.0090575547
0.0089700222
0.0088845573
0.008800866
0.0087189053
0.0086381084
0.0085582648
0.0084849883
0.0083642208
0.00014160962
0.00014289308
0.00014399305
0.00014607408
0.00015265394
0.00016636892
0.00019864694
0.00026589713
0.00037646181
0.00058336254
0.00090456494
0.0013468481
0.0019187628
0.0025871371
0.0033425466
0.0041769251
0.0050729738
0.0060006995
0.0069221138
0.0078004965
0.008609877
0.0093383537
0.0099854078
0.010555987
0.011056613
0.011493473
0.011873174
0.012202365
0.01248767
0.012734424
0.012947136
0.013129945
0.01328641
0.013419527
0.013532086
0.013627445
0.013705566
0.013769609
0.013821027
0.013860849
0.013890225
0.013910311
0.013922076
0.01392637
0.013923903
0.013915657
0.013901855
0.013883045
0.013859686
0.013832276
0.013801269
0.013766923
0.013729382
0.013688611
0.013644451
0.013596709
0.013545127
0.013489501
0.01342978
0.013366015
0.013298278
0.013226565
0.013150802
0.013070807
0.012986227
0.01289663
0.012801496
0.012700236
0.012592234
0.012476901
0.012353732
0.012222388
0.012082788
0.011935203
0.011780353
0.01161948
0.011454349
0.011287199
0.011120585
0.010957097
0.010799063
0.010648271
0.010505802
0.010371998
0.010246567
0.010128762
0.0100176
0.0099120462
0.0098111481
0.00971411
0.0096203029
0.0095292577
0.009440601
0.0093540898
0.0092694063
0.0091865505
0.0091048669
0.0090244227
0.0089502618
0.0088284147
0.00014152762
0.0001431899
0.00014431167
0.00014434279
0.0001442112
0.00014372001
0.00014392823
0.00014554812
0.00015086174
0.00016479293
0.00019490659
0.00025024975
0.00034020115
0.00049664761
0.00073512093
0.0010758985
0.0015283456
0.002085911
0.002748674
0.0035098168
0.0043494366
0.0052341141
0.0061232163
0.0069794811
0.0077775971
0.0085058783
0.0091624981
0.0097502971
0.010273814
0.010738121
0.011148601
0.011510712
0.011829551
0.01210969
0.012355247
0.012570565
0.012758189
0.012921299
0.013062649
0.013184512
0.013288878
0.013377462
0.013451843
0.013513466
0.013563455
0.013603073
0.013633352
0.013655208
0.013669522
0.013677046
0.013678431
0.01367415
0.013664562
0.013649832
0.013629975
0.013604937
0.013574531
0.013538647
0.013497385
0.013450912
0.013399389
0.013342928
0.013281556
0.013215194
0.01314358
0.013066355
0.012983052
0.012893121
0.012795974
0.012691035
0.012577809
0.012455956
0.012325388
0.012186366
0.012039592
0.011886276
0.011728135
0.011567331
0.011406312
0.011247549
0.01109327
0.01094522
0.010804519
0.010671634
0.010546463
0.01042848
0.010316904
0.010210861
0.010109505
0.010012093
0.0099180119
0.0098267836
0.0097380164
0.0096514545
0.0095667593
0.0094839549
0.0094023331
0.0093221481
0.0092481164
0.0091264471
0.00014083575
0.00014265478
0.00014406193
0.00014489184
0.0001448059
0.00014447413
0.00014395926
0.00014333229
0.00014267109
0.00014205404
0.00014247153
0.00014474333
0.00015065173
0.00016386272
0.00018956837
0.00023536432
0.00030910594
0.00043647492
0.00063691051
0.00093071218
0.0013343742
0.0018484667
0.00247464
0.0032036338
0.0040111746
0.0048603335
0.0057102596
0.0065271382
0.00729044
0.0079918527
0.0086302381
0.0092074357
0.0097265434
0.01019153
0.010606817
0.010977208
0.011306731
0.011599307
0.011858674
0.012088177
0.012290797
0.012469177
0.012625694
0.012762517
0.012881505
0.012984432
0.013072884
0.013148278
0.013211919
0.013264979
0.013308478
0.01334331
0.013370067
0.013389147
0.013400742
0.013404887
0.013401678
0.013391247
0.013373778
0.013349554
0.013318889
0.013282045
0.013239203
0.013190447
0.013135595
0.013074409
0.013006503
0.012931393
0.012848538
0.012757398
0.012657493
0.012548485
0.012430269
0.012303073
0.012167542
0.012024799
0.011876443
0.011724484
0.011571196
0.011418894
0.011269708
0.011125389
0.010987176
0.010855762
0.010731327
0.010613632
0.010502142
0.01039616
0.010294942
0.010197785
0.010104074
0.010013311
0.0099250773
0.0098390951
0.0097550071
0.0096728469
0.0095918789
0.009512472
0.0094392
0.0093184799
0.00014013785
0.00014168146
0.00014304687
0.00014401551
0.00014447256
0.00014447645
0.000144291
0.00014385934
0.00014326932
0.0001426047
0.00014192702
0.00014129095
0.00014068645
0.00014052417
0.00014117981
0.00014381452
0.00014966432
0.00016178968
0.00018493827
0.00022627863
0.00029449794
0.00041387471
0.00060668822
0.00089335416
0.0012906663
0.001802421
0.0024272473
0.0031496842
0.0039390098
0.0047554463
0.0055613738
0.0063302539
0.0070483387
0.0077107223
0.0083167185
0.0088677671
0.0093664631
0.0098162276
0.010220866
0.010584165
0.010909759
0.01120106
0.011461217
0.011693144
0.01189946
0.012082585
0.012244736
0.012387919
0.012513974
0.012624572
0.012721198
0.012805154
0.01287745
0.012938829
0.012989784
0.01303061
0.013061576
0.013082994
0.013095234
0.013098756
0.013094062
0.013081629
0.013061816
0.013034794
0.013000667
0.012959301
0.012910422
0.012853642
0.012788496
0.012714494
0.012631185
0.012538235
0.012435515
0.012323196
0.01220183
0.012072403
0.011936335
0.011795426
0.011651727
0.011507378
0.011364428
0.011224681
0.011089573
0.010960103
0.010836806
0.010719788
0.010608791
0.010503307
0.010402692
0.010306275
0.01021343
0.010123626
0.010036413
0.0099514859
0.0098684699
0.0097873971
0.009707523
0.0096292729
0.0095572125
0.0094380139
0.0001396175
0.00014082348
0.00014195044
0.00014281498
0.00014337179
0.00014364281
0.00014367358
0.00014352362
0.00014323127
0.00014282886
0.00014232994
0.00014172565
0.00014108522
0.0001404537
0.00013981903
0.00013928834
0.00013876251
0.00013885799
0.00013984769
0.00014275117
0.00014887994
0.0001613073
0.00018523091
0.00022788559
0.00030202435
0.00043161696
0.0006405501
0.00095116889
0.0013739658
0.0019125927
0.002558435
0.0032866611
0.0040602342
0.004840468
0.0055974428
0.0063138217
0.0069818813
0.0075989531
0.008164878
0.0086811414
0.009150336
0.0095755636
0.0099600499
0.010307032
0.01061963
0.010900802
0.011153338
0.011379829
0.011582676
0.011764096
0.011926099
0.012070473
0.012198713
0.01231199
0.012411179
0.0124969
0.012569675
0.012630035
0.012678564
0.012715934
0.012742863
0.012760052
0.012768092
0.012767394
0.012758241
0.012740692
0.012714635
0.01267981
0.012635856
0.012582358
0.012518909
0.012445184
0.012361026
0.012266531
0.01216213
0.012048633
0.011927237
0.011799483
0.011667172
0.011532255
0.011396721
0.011262469
0.011131186
0.011004238
0.010882573
0.010766682
0.010656615
0.010552065
0.010452493
0.010357256
0.010265714
0.010177302
0.010091532
0.010008072
0.0099265277
0.0098469222
0.0097685165
0.0096917464
0.009621263
0.009504075
0.00013926606
0.00014019415
0.00014107529
0.00014176966
0.00014225005
0.00014253673
0.00014265866
0.00014264694
0.00014252531
0.00014231063
0.00014201447
0.00014163831
0.00014119299
0.00014069067
0.00014012463
0.0001395127
0.00013889556
0.00013828835
0.00013772706
0.00013725931
0.00013701308
0.00013730072
0.00013871982
0.00014227723
0.00014971734
0.00016463166
0.00019337655
0.00024388533
0.00033669082
0.00049617114
0.00074644545
0.0011056417
0.0015799184
0.0021652245
0.0028410316
0.0035728411
0.0043222895
0.005058296
0.0057617803
0.0064233485
0.0070389736
0.0076074275
0.0081293274
0.0086065353
0.0090415422
0.0094371091
0.0097961198
0.010121448
0.010415877
0.010682068
0.010922511
0.011139485
0.011334987
0.011510671
0.01166785
0.011807533
0.011930555
0.01203771
0.012129826
0.012207809
0.012272622
0.012325221
0.012366461
0.012397032
0.01241745
0.01242801
0.0124288
0.012419732
0.012400582
0.012371035
0.01233075
0.012279423
0.012216869
0.012143105
0.012058422
0.011963426
0.01185906
0.011746582
0.011627522
0.011503642
0.011376876
0.011249244
0.011122722
0.01099908
0.010879716
0.01076554
0.010656932
0.010553808
0.010455744
0.010362137
0.010272331
0.010185731
0.010101812
0.01002021
0.0099405163
0.0098627385
0.0097861534
0.0097111721
0.009642592
0.0095278757
0.000139045
0.00013975783
0.00014043985
0.00014098154
0.00014135901
0.00014158891
0.00014169886
0.00014171358
0.00014165039
0.00014151989
0.00014132868
0.00014108021
0.00014077675
0.00014042117
0.00014001405
0.00013955543
0.00013905397
0.00013851161
0.00013792073
0.00013732604
0.00013674233
0.00013617902
0.000135683
0.0001353317
0.0001353378
0.00013607721
0.00013835455
0.0001433302
0.00015368831
0.00017450715
0.00021327965
0.00028499268
0.00041418423
0.00062667107
0.00094403844
0.001374593
0.0019169328
0.0025527757
0.0032490601
0.0039682161
0.0046795522
0.0053639235
0.0060114008
0.0066172232
0.0071795008
0.0076983019
0.0081749879
0.0086116159
0.009010609
0.0093745851
0.0097061946
0.010008013
0.010282422
0.010531509
0.010757022
0.010960374
0.011142748
0.011305225
0.011448894
0.011574911
0.01168449
0.011778864
0.011859181
0.011926436
0.011981432
0.012024737
0.012056686
0.012077405
0.012086842
0.01208482
0.012071086
0.012045375
0.012007488
0.011957364
0.011895148
0.011821234
0.011736298
0.011641301
0.011537497
0.011426453
0.011310053
0.011190445
0.011069901
0.010950611
0.010834444
0.010722749
0.010616266
0.010515156
0.010419133
0.010327645
0.010240037
0.010155686
0.010074035
0.0099946923
0.0099172346
0.0098416498
0.0097672401
0.0096943643
0.0096280031
0.0095162217
0.00013892615
0.00013947164
0.00013999664
0.00014041568
0.00014070531
0.00014087507
0.00014094697
0.00014094291
0.00014087923
0.00014076612
0.00014060936
0.00014041211
0.00014017592
0.00013990144
0.00013958893
0.00013923797
0.00013884876
0.00013842195
0.00013795458
0.00013745089
0.00013691656
0.00013634984
0.00013576127
0.000135188
0.00013462945
0.00013412677
0.00013372951
0.00013360784
0.00013404068
0.00013564373
0.0001394536
0.00014752251
0.00016412545
0.00019638126
0.00025683095
0.00036975785
0.00056164456
0.00085539893
0.0012607449
0.0017769443
0.002385763
0.0030542954
0.0037460382
0.0044319579
0.0050941201
0.0057229246
0.0063134586
0.0068636138
0.007373231
0.007843403
0.0082759255
0.0086729797
0.0090368767
0.0093698401
0.0096738748
0.0099507027
0.010201803
0.010428523
0.010632185
0.010814173
0.010975945
0.011119001
0.01124479
0.011354629
0.011449641
0.011530708
0.011598453
0.011653255
0.011695281
0.011724521
0.011740843
0.011744051
0.011733947
0.011710409
0.011673444
0.011623239
0.01156021
0.011485024
0.011398659
0.011302487
0.011198335
0.011088464
0.01097543
0.010861836
0.010750021
0.010641791
0.010538268
0.010439887
0.01034653
0.010257721
0.010172823
0.010091199
0.010012268
0.0099356128
0.0098607995
0.0097877947
0.0097159334
0.0096455014
0.0095816818
0.009473319
0.00013888175
0.00013929705
0.00013969858
0.00014002015
0.00014023958
0.00014036043
0.00014039802
0.00014036981
0.00014029021
0.00014016933
0.00014001361
0.00013982696
0.00013961166
0.00013936874
0.0001390985
0.00013880083
0.00013847514
0.00013812082
0.00013773671
0.00013732173
0.00013687584
0.00013639844
0.00013588887
0.00013535286
0.00013479251
0.00013420552
0.00013363359
0.00013307657
0.00013256981
0.00013215822
0.00013198177
0.00013228886
0.00013358724
0.0001368405
0.00014380694
0.00015843297
0.00018762553
0.00024353202
0.00035029459
0.00053508683
0.00082054081
0.0012167661
0.00172161
0.002314805
0.0029626166
0.0036301147
0.0042910587
0.004929633
0.0055371537
0.0061090331
0.0066433419
0.0071399589
0.0075998242
0.0080244114
0.0084153958
0.0087744236
0.0091030275
0.0094026545
0.0096747473
0.0099208264
0.01014252
0.010341545
0.010519619
0.010678369
0.010819249
0.010943474
0.011051988
0.011145464
0.01122432
0.011288757
0.011338797
0.011374341
0.011395224
0.011401284
0.011392416
0.011368622
0.011330074
0.011277168
0.011210617
0.011131598
0.011041864
0.010943763
0.0108401
0.01073386
0.010627838
0.010524301
0.010424771
0.010329991
0.010240046
0.010154569
0.010072969
0.0099946099
0.0099189003
0.0098454035
0.0097736804
0.0097036763
0.0096347659
0.0095671477
0.0095062114
0.0094017853
0.00013889626
0.00013920897
0.00013951226
0.00013975529
0.00013991793
0.00013999966
0.00014001032
0.0001399629
0.00013986906
0.00013973769
0.00013957511
0.00013938563
0.00013917221
0.00013893663
0.00013867989
0.00013840248
0.00013810435
0.00013778506
0.00013744392
0.00013707992
0.00013669201
0.00013627914
0.00013583997
0.00013537382
0.00013488088
0.00013435879
0.00013381281
0.00013324605
0.00013265638
0.00013207801
0.00013151949
0.00013101186
0.00013059796
0.00013041209
0.00013068398
0.00013188921
0.00013496677
0.00014163081
0.0001558565
0.0001845955
0.00024122958
0.00035017326
0.00053955235
0.00083008542
0.0012309828
0.0017365308
0.0023226687
0.0029547344
0.0036003763
0.0042370838
0.0048516567
0.0054367055
0.0059883062
0.0065048265
0.0069860401
0.0074324532
0.0078449374
0.0082245585
0.0085725379
0.0088902833
0.0091794033
0.0094416854
0.0096790114
0.0098932481
0.010086142
0.010259234
0.010413796
0.010550817
0.010670998
0.01077478
0.010862377
0.010933819
0.010989008
0.011027775
0.011049935
0.011055341
0.011043957
0.011015939
0.010971759
0.010912402
0.010839531
0.010755539
0.010663431
0.010566523
0.010468035
0.010370682
0.010276403
0.010186282
0.010100643
0.010019272
0.0099416516
0.0098671745
0.0097952536
0.0097254432
0.0096573057
0.0095907672
0.0095252493
0.0094608542
0.0094031711
0.0093032439
0.00013895577
0.00013918747
0.00013941231
0.00013959159
0.00013970766
0.00013975742
0.00013974671
0.00013968484
0.00013958088
0.00013944217
0.00013927422
0.00013908115
0.00013886599
0.00013863086
0.00013837722
0.00013810606
0.0001378179
0.00013751283
0.00013719065
0.00013685091
0.00013649291
0.00013611576
0.00013571839
0.0001352996
0.00013485838
0.00013439331
0.00013390351
0.0001333891
0.00013284827
0.0001322853
0.00013170431
0.00013110549
0.00013051812
0.00012995485
0.00012944759
0.00012903922
0.00012887154
0.00012917653
0.00013045338
0.00013366081
0.00014069188
0.00015588943
0.00018658995
0.00024899291
0.00036832732
0.00057350144
0.00088143618
0.0012985996
0.0018134697
0.00239746
0.0030161771
0.0036413345
0.0042546949
0.0048456158
0.0054079239
0.0059382159
0.0064348635
0.0068973069
0.0073256865
0.0077206879
0.0080834535
0.0084155083
0.0087186462
0.008994793
0.0092458666
0.0094736556
0.0096797265
0.0098653698
0.010031579
0.010179056
0.010308228
0.010419289
0.010512237
0.010586936
0.01064316
0.010680657
0.010699228
0.010698834
0.01067974
0.010642751
0.010589424
0.010522155
0.010444084
0.010358798
0.010269885
0.010180488
0.010092966
0.01000877
0.0099285078
0.0098521581
0.0097793181
0.0097094377
0.0096419551
0.0095764296
0.009512434
0.0094498802
0.0093882441
0.0093275276
0.0092735025
0.0091786902
0.00013904908
0.00013921654
0.0001393786
0.000139506
0.00013958362
0.00013960692
0.00013957885
0.00013950589
0.00013939493
0.00013925186
0.00013908132
0.00013888693
0.00013867146
0.00013843701
0.00013818511
0.00013791694
0.00013763331
0.00013733464
0.00013702113
0.00013669274
0.00013634921
0.00013599007
0.00013561468
0.0001352222
0.00013481167
0.00013438201
0.00013393202
0.00013346065
0.00013296661
0.00013244909
0.00013190829
0.00013134318
0.0001307578
0.00013015682
0.00012954168
0.00012894301
0.0001283727
0.00012786868
0.00012747265
0.00012735788
0.00012776742
0.00012928563
0.00013293822
0.00014105459
0.00015873469
0.00019422746
0.00026810069
0.00040753529
0.00063857249
0.00097508485
0.0014174124
0.0019464317
0.0025299278
0.0031359934
0.0037415165
0.0043322107
0.004899376
0.0054376826
0.0059440777
0.006417082
0.0068563486
0.0072623992
0.0076363945
0.007979919
0.0082947762
0.0085828063
0.0088457405
0.009085097
0.009302122
0.0094977625
0.0096726675
0.0098272057
0.0099615007
0.010075478
0.010168914
0.010241496
0.010292917
0.010322992
0.010331824
0.010320062
0.010289148
0.01024144
0.010180149
0.010109055
0.010032052
0.0099526662
0.0098736701
0.0097968994
0.0097232841
0.0096530396
0.0095859201
0.009521468
0.0094591719
0.0093986138
0.0093393893
0.0092814033
0.0092241943
0.0091676652
0.0091177439
0.0090287247
0.0001391675
0.00013928374
0.0001393954
0.00013948046
0.00013952621
0.00013952743
0.00013948503
0.00013940334
0.00013928749
0.0001391421
0.00013897103
0.00013877734
0.0001385635
0.00013833139
0.00013808249
0.00013781792
0.00013753854
0.00013724492
0.00013693741
0.00013661619
0.00013628126
0.00013593244
0.00013556942
0.0001351917
0.00013479868
0.0001343896
0.00013396356
0.00013351962
0.00013305669
0.00013257364
0.0001320695
0.00013154319
0.00013099407
0.00013042257
0.00012982804
0.00012921531
0.00012858949
0.00012795264
0.00012734196
0.00012676541
0.0001262695
0.00012591619
0.00012588707
0.0001264932
0.00012846332
0.00013297495
0.00014313847
0.00016506041
0.00021059568
0.00030357658
0.00047337108
0.00074077534
0.0011151515
0.0015875929
0.0021312431
0.0027130534
0.0033057205
0.0038911299
0.004457941
0.0049990178
0.0055101259
0.0059891235
0.0064353549
0.0068492113
0.0072317687
0.0075844838
0.0079089498
0.00820671
0.0084791324
0.0087273321
0.008952135
0.0091540699
0.009333386
0.0094900884
0.0096239849
0.0097347442
0.0098219992
0.0098854749
0.009925162
0.0099415866
0.0099360799
0.0099109328
0.0098693663
0.0098152735
0.0097527793
0.0096857366
0.0096173032
0.0095497067
0.0094842281
0.0094213623
0.0093610648
0.0093030082
0.0092467622
0.0091919527
0.0091382137
0.0090854531
0.0090332812
0.0089815088
0.0089361831
0.0088537075
0.00013930422
0.00013937942
0.00013945047
0.00013950087
0.00013952011
0.00013950278
0.00013944843
0.00013935974
0.00013924041
0.00013909404
0.00013892374
0.00013873211
0.00013852126
0.00013829287
0.00013804827
0.00013778851
0.00013751438
0.00013722645
0.00013692512
0.00013661063
0.00013628307
0.00013594241
0.00013558851
0.00013522108
0.00013483973
0.00013444396
0.00013403318
0.00013360668
0.00013316366
0.00013270323
0.00013222446
0.00013172632
0.00013120777
0.00013066797
0.00013010599
0.00012952145
0.0001289152
0.00012828666
0.00012764254
0.00012698828
0.00012632673
0.00012570156
0.00012512479
0.00012464387
0.00012436372
0.00012448809
0.00012544313
0.00012811342
0.00013422821
0.00014805106
0.00017710195
0.00023963367
0.00036271911
0.00057385338
0.00088840251
0.0013068498
0.0018093036
0.0023637274
0.0029397534
0.0035157148
0.0040778105
0.0046173876
0.0051292992
0.0056108895
0.0060612001
0.0064803802
0.0068692353
0.0072288824
0.0075605029
0.0078651738
0.0081437644
0.0083968811
0.0086248528
0.0088277462
0.0090054032
0.0091574953
0.0092836319
0.009383495
0.0094570128
0.0095046292
0.009527584
0.0095280868
0.0095093196
0.0094752164
0.0094300494
0.0093779288
0.0093223541
0.0092659334
0.0092103151
0.0091563095
0.0091041154
0.0090535761
0.0090043754
0.0089562089
0.0089087671
0.0088619745
0.0088155238
0.0087691452
0.008728958
0.0086538576
0.00013945386
0.00013949603
0.00013953425
0.00013955622
0.00013955333
0.00013952034
0.00013945591
0.00013936151
0.00013923969
0.00013909319
0.00013892447
0.00013873569
0.00013852866
0.00013830485
0.00013806543
0.00013781135
0.00013754334
0.00013726192
0.00013696746
0.00013666022
0.00013634031
0.00013600775
0.00013566243
0.00013530419
0.00013493273
0.0001345477
0.00013414865
0.00013373508
0.00013330638
0.00013286189
0.00013240088
0.00013192252
0.00013142595
0.00013091024
0.00013037445
0.00012981761
0.00012923906
0.00012863796
0.00012801435
0.0001273696
0.00012670329
0.00012602385
0.00012533753
0.00012465703
0.00012401913
0.0001234503
0.00012300461
0.00012284131
0.00012322767
0.00012479475
0.00012862631
0.00013755486
0.00015735248
0.00019999073
0.00028949329
0.00045634005
0.00072055009
0.0010902487
0.001552743
0.0020785132
0.0026354367
0.0031989587
0.0037531807
0.004288216
0.0047981718
0.0052798963
0.0057320258
0.0061542909
0.0065470221
0.0069108013
0.0072462296
0.0075537813
0.0078337269
0.0080861077
0.0083107514
0.0085073141
0.0086753861
0.0088146315
0.0089249545
0.0090067575
0.0090612181
0.0090904687
0.0090976235
0.0090865971
0.0090617302
0.0090273117
0.008987123
0.0089441214
0.0089003233
0.0088568775
0.0088142626
0.0087725319
0.0087315185
0.008691016
0.0086507934
0.0086108074
0.0085708451
0.0085305737
0.0084961242
0.0084293205
0.00013961214
0.00013962764
0.00013963923
0.00013963782
0.00013961643
0.00013957017
0.00013949719
0.00013939804
0.00013927442
0.00013912831
0.00013896164
0.00013877617
0.00013857341
0.00013835463
0.00013812087
0.00013787297
0.00013761158
0.00013733718
0.00013705012
0.00013675061
0.00013643878
0.00013611465
0.00013577813
0.00013542908
0.00013506726
0.00013469237
0.00013430405
0.00013390188
0.00013348536
0.00013305398
0.00013260713
0.00013214417
0.00013166438
0.00013116701
0.00013065124
0.0001301162
0.00012956102
0.00012898479
0.00012838664
0.00012776612
0.0001271225
0.00012645627
0.00012576907
0.00012506297
0.00012434666
0.00012362597
0.0001229327
0.00012228913
0.00012174563
0.00012138644
0.00012141984
0.00012226693
0.00012479533
0.00013079348
0.00014473317
0.00017462459
0.00024120806
0.00037353519
0.00059688351
0.00092462199
0.0013504315
0.0018481108
0.0023849647
0.0029343727
0.0034787836
0.0040073081
0.0045133708
0.0049932446
0.0054449949
0.0058677375
0.0062611377
0.0066250784
0.006959456
0.0072640709
0.0075385917
0.0077825665
0.0079955141
0.0081770612
0.0083270958
0.0084460046
0.0085349332
0.0085959555
0.008632111
0.0086472551
0.0086457305
0.0086319255
0.0086098308
0.0085827036
0.0085529077
0.0085219381
0.0084905789
0.0084591281
0.0084276026
0.008395924
0.0083639635
0.0083317289
0.0082991151
0.0082657482
0.0082376993
0.0081802132
0.00013977568
0.00013976956
0.0001397595
0.00013973885
0.00013970197
0.00013964444
0.00013956415
0.00013946103
0.00013933608
0.00013919068
0.00013902629
0.00013884432
0.00013864603
0.00013843248
0.00013820458
0.00013796306
0.00013770851
0.00013744136
0.00013716191
0.00013687038
0.00013656687
0.00013625138
0.00013592385
0.00013558414
0.00013523203
0.00013486724
0.00013448945
0.00013409828
0.00013369329
0.00013327402
0.00013283996
0.00013239055
0.00013192518
0.00013144322
0.00013094398
0.0001304267
0.00012989062
0.00012933491
0.0001287587
0.00012816117
0.00012754146
0.00012689881
0.00012623287
0.0001255434
0.00012483158
0.00012409852
0.00012335078
0.0001225971
0.00012184348
0.0001211421
0.00012051281
0.00012001911
0.00011981965
0.00012020961
0.00012189574
0.00012606141
0.00013610319
0.00015860778
0.00020947214
0.00031589203
0.00050696402
0.00079967509
0.001193059
0.0016644429
0.0021814566
0.0027161845
0.0032498019
0.0037705251
0.0042710483
0.0047469259
0.00519547
0.005615003
0.0060043793
0.0063626946
0.0066891343
0.0069829128
0.0072433221
0.0074698523
0.0076623237
0.0078210934
0.0079472876
0.0080429436
0.0081110363
0.0081553469
0.0081801725
0.0081899304
0.0081887434
0.0081801029
0.0081666794
0.0081503012
0.0081320693
0.0081125515
0.0080919789
0.0080704308
0.0080479052
0.0080244818
0.0080001774
0.0079746039
0.0079536896
0.0079066503
0.00013994182
0.00013991812
0.00013989043
0.00013985391
0.00013980406
0.00013973696
0.00013965041
0.00013954391
0.00013941796
0.00013927344
0.00013911143
0.000138933
0.00013873919
0.00013853088
0.00013830884
0.00013807372
0.00013782602
0.00013756613
0.00013729433
0.00013701079
0.00013671561
0.00013640879
0.00013609027
0.0001357599
0.00013541749
0.00013506276
0.00013469541
0.00013431509
0.00013392138
0.00013351386
0.00013309206
0.00013265546
0.00013220352
0.00013173567
0.0001312513
0.00013074974
0.00013023032
0.0001296923
0.00012913493
0.00012855738
0.00012795885
0.00012733846
0.00012669541
0.00012602893
0.00012533849
0.0001246237
0.00012388501
0.00012312467
0.00012234331
0.00012155259
0.00012076064
0.00011999603
0.00011929222
0.00011870228
0.000118331
0.00011841409
0.00011948704
0.00012254046
0.00013013633
0.00014777307
0.00018789569
0.0002756824
0.0004420207
0.00070648591
0.0010724087
0.0015203818
0.0020188434
0.0025391521
0.0030614825
0.0035731719
0.0040660748
0.0045348716
0.0049759692
0.005386794
0.0057653764
0.0061101228
0.0064197596
0.0066934011
0.0069306412
0.0071317161
0.0072976963
0.0074305827
0.0075333006
0.0076095601
0.0076635899
0.0076997829
0.0077223208
0.0077348544
0.0077403014
0.0077407895
0.0077377282
0.0077319667
0.0077239731
0.0077140098
0.0077022258
0.0076887938
0.0076738666
0.0076570733
0.0076441045
0.007608758
0.00014010847
0.00014007044
0.00014002836
0.00013997876
0.00013991804
0.00013984281
0.00013975089
0.00013964152
0.0001395148
0.00013937124
0.00013921159
0.00013903664
0.00013884721
0.00013864403
0.00013842774
0.00013819889
0.00013795792
0.00013770517
0.00013744088
0.0001371652
0.00013687823
0.00013657994
0.00013627028
0.00013594911
0.00013561623
0.0001352714
0.00013491431
0.00013454462
0.00013416197
0.00013376592
0.00013335603
0.00013293183
0.0001324928
0.00013203841
0.00013156808
0.00013108121
0.00013057719
0.00013005533
0.00012951496
0.00012895534
0.00012837571
0.00012777526
0.00012715318
0.00012650862
0.00012584077
0.00012514881
0.00012443206
0.00012369035
0.00012292327
0.00012213232
0.00012131985
0.00012049212
0.00011966012
0.00011883149
0.00011806668
0.00011739234
0.00011687548