/*--------------------------------*- C++ -*----------------------------------*\
| =========                 |                                                 |
| \\      /  F ield         | OpenFOAM: The Open Source CFD Toolbox           |
|  \\    /   O peration     | Version:  2206                                  |
|   \\  /    A nd           | Website:  www.openfoam.com                      |
|    \\/     M anipulation  |                                                 |
\*---------------------------------------------------------------------------*/
FoamFile
{
    version     2.0;
    format      ascii;
    arch        "LSB;label=32;scalar=64";
    class       volScalarField;
    location    "200";
    object      nut;
}
// * * * * * * * * * * * * * * * * * * * * * * * * * * * * * * * * * * * * * //

dimensions      [0 2 -1 0 0 0 0];

internalField   nonuniform List<scalar> 
7480
(
1.6135348e-05
2.2437995e-05
2.3611237e-05
2.2656086e-05
2.1067854e-05
1.9598217e-05
1.8467233e-05
1.7606862e-05
1.6916606e-05
1.6333269e-05
1.5828096e-05
1.5388749e-05
1.5007605e-05
1.4677675e-05
1.4392173e-05
1.4144391e-05
1.3929144e-05
1.3742278e-05
1.3579273e-05
1.3436792e-05
1.3310829e-05
1.3198199e-05
1.3096187e-05
1.3002793e-05
1.2916653e-05
1.2836555e-05
1.2761735e-05
1.2691345e-05
1.2624625e-05
1.2560939e-05
1.2499947e-05
1.2441414e-05
1.2385078e-05
1.2330717e-05
1.227806e-05
1.222704e-05
1.2177212e-05
1.2128551e-05
1.2080968e-05
1.2034314e-05
1.1988481e-05
1.1943381e-05
1.1898944e-05
1.1855135e-05
1.1811893e-05
1.176919e-05
1.172698e-05
1.1685208e-05
1.1643851e-05
1.1602887e-05
1.1562295e-05
1.152205e-05
1.1482099e-05
1.1442361e-05
1.1402722e-05
1.1363048e-05
1.1323201e-05
1.1283032e-05
1.1242416e-05
1.120125e-05
1.1159443e-05
1.1116899e-05
1.1073507e-05
1.1029137e-05
1.0983621e-05
1.0936765e-05
1.0888346e-05
1.0838117e-05
1.0785815e-05
1.0731168e-05
1.0673913e-05
1.0613819e-05
1.0550702e-05
1.0484462e-05
1.0415111e-05
1.0342766e-05
1.0267732e-05
1.0190515e-05
1.0111798e-05
1.0032522e-05
9.9538636e-06
9.8770972e-06
9.8034417e-06
9.7338607e-06
9.6689032e-06
9.60864e-06
9.5527166e-06
9.5004945e-06
9.4512218e-06
9.4041798e-06
9.3587784e-06
9.3145697e-06
9.2712695e-06
9.2286244e-06
9.1865788e-06
9.1447226e-06
9.1034762e-06
9.0608312e-06
9.0243232e-06
8.9605336e-06
1.6482672e-06
5.1322341e-06
8.7794558e-06
1.1675446e-05
1.3399205e-05
1.4475708e-05
1.5231558e-05
1.5802887e-05
1.6214441e-05
1.6509393e-05
1.6732883e-05
1.6917579e-05
1.708124e-05
1.7231787e-05
1.7374252e-05
1.7500858e-05
1.7622276e-05
1.7745406e-05
1.786931e-05
1.7989983e-05
1.8103563e-05
1.8207256e-05
1.8299759e-05
1.8381581e-05
1.8454555e-05
1.851906e-05
1.8577446e-05
1.862793e-05
1.8670087e-05
1.8704345e-05
1.8732163e-05
1.8754378e-05
1.8771424e-05
1.8783709e-05
1.8790934e-05
1.879449e-05
1.8792214e-05
1.8786243e-05
1.8776744e-05
1.8763552e-05
1.8746774e-05
1.872666e-05
1.8703516e-05
1.8677567e-05
1.8648947e-05
1.8617978e-05
1.8584676e-05
1.8549174e-05
1.8511665e-05
1.8472324e-05
1.8431328e-05
1.8388692e-05
1.8344332e-05
1.8298022e-05
1.8249422e-05
1.8198213e-05
1.8144059e-05
1.8086685e-05
1.8025952e-05
1.7961811e-05
1.7894232e-05
1.7823104e-05
1.7748248e-05
1.7669369e-05
1.7586037e-05
1.7497731e-05
1.7403856e-05
1.7303755e-05
1.7196749e-05
1.7082192e-05
1.6959535e-05
1.6828409e-05
1.6688725e-05
1.6540775e-05
1.6385374e-05
1.6223893e-05
1.6058279e-05
1.5891024e-05
1.572489e-05
1.5562564e-05
1.5406317e-05
1.525771e-05
1.5117467e-05
1.4985547e-05
1.4861335e-05
1.4743892e-05
1.4632189e-05
1.4525262e-05
1.4422299e-05
1.4322661e-05
1.4225854e-05
1.4131523e-05
1.403935e-05
1.3949187e-05
1.386065e-05
1.3774035e-05
1.3688119e-05
1.3604145e-05
1.3525791e-05
1.3394091e-05
3.6617323e-07
4.4304253e-07
9.2712731e-07
2.2052881e-06
4.1395809e-06
6.40967e-06
8.5160118e-06
1.0329923e-05
1.2012595e-05
1.3631194e-05
1.5178326e-05
1.6635516e-05
1.7995308e-05
1.9264501e-05
2.0455058e-05
2.1593649e-05
2.2681552e-05
2.3713108e-05
2.4684468e-05
2.5594435e-05
2.6443603e-05
2.7232724e-05
2.7961583e-05
2.8636024e-05
2.9260749e-05
2.9836504e-05
3.0378167e-05
3.0877144e-05
3.1337002e-05
3.1759878e-05
3.2151215e-05
3.2513511e-05
3.2848777e-05
3.3159056e-05
3.3444128e-05
3.3709554e-05
3.3947796e-05
3.4168763e-05
3.4371015e-05
3.4554911e-05
3.4721523e-05
3.4872024e-05
3.5007579e-05
3.5129186e-05
3.5237599e-05
3.5334056e-05
3.5418802e-05
3.5492552e-05
3.5556096e-05
3.5610169e-05
3.5655494e-05
3.5692397e-05
3.5720983e-05
3.5740938e-05
3.5751655e-05
3.5752577e-05
3.5743106e-05
3.572279e-05
3.5691575e-05
3.5649665e-05
3.5597343e-05
3.5534699e-05
3.5461658e-05
3.5377872e-05
3.528263e-05
3.5175018e-05
3.5053942e-05
3.4918161e-05
3.476639e-05
3.4597415e-05
3.4410235e-05
3.4204251e-05
3.3979474e-05
3.3736734e-05
3.3477947e-05
3.320619e-05
3.2925638e-05
3.2641393e-05
3.2358876e-05
3.2082995e-05
3.1817423e-05
3.1564183e-05
3.132364e-05
3.1094905e-05
3.0876439e-05
3.0666603e-05
3.046401e-05
3.026765e-05
3.0076831e-05
2.9891081e-05
2.9709993e-05
2.9533239e-05
2.9360361e-05
2.919125e-05
2.9025033e-05
2.8862864e-05
2.8701299e-05
2.8546303e-05
2.8396546e-05
2.8150812e-05
4.5694146e-06
8.4281383e-07
3.4599548e-07
3.4365303e-07
5.4647795e-07
9.0845273e-07
1.7792165e-06
3.171173e-06
4.8738749e-06
6.6184629e-06
8.3704055e-06
1.0254262e-05
1.2279552e-05
1.4408371e-05
1.6581828e-05
1.8747034e-05
2.0866021e-05
2.2917952e-05
2.4895085e-05
2.6794082e-05
2.8611186e-05
3.034268e-05
3.1988898e-05
3.3548448e-05
3.5023231e-05
3.6412199e-05
3.7720377e-05
3.8952493e-05
4.0111011e-05
4.1203048e-05
4.2231735e-05
4.3201093e-05
4.4115023e-05
4.4978204e-05
4.5790993e-05
4.6562955e-05
4.7271075e-05
4.7947143e-05
4.8577802e-05
4.9168012e-05
4.9720045e-05
5.0236134e-05
5.071844e-05
5.116892e-05
5.1589166e-05
5.1981787e-05
5.234694e-05
5.2686464e-05
5.3001895e-05
5.3294773e-05
5.3566633e-05
5.3818316e-05
5.4050397e-05
5.4262564e-05
5.4454e-05
5.4623977e-05
5.4771586e-05
5.4896179e-05
5.4997877e-05
5.5077345e-05
5.5135459e-05
5.5172804e-05
5.5189725e-05
5.5186141e-05
5.5161279e-05
5.5114054e-05
5.5043072e-05
5.4946691e-05
5.4823183e-05
5.4670941e-05
5.4488699e-05
5.4275814e-05
5.4032573e-05
5.3760496e-05
5.3462628e-05
5.314359e-05
5.2809387e-05
5.2466987e-05
5.2123435e-05
5.1784761e-05
5.1455146e-05
5.1136637e-05
5.0829409e-05
5.0532472e-05
5.0244469e-05
4.9964254e-05
4.9691128e-05
4.9424778e-05
4.9165072e-05
4.8911871e-05
4.8664868e-05
4.8423689e-05
4.8187664e-05
4.7956616e-05
4.772923e-05
4.7507333e-05
4.7285578e-05
4.7074635e-05
4.6867541e-05
4.6532253e-05
2.8687136e-05
1.1480827e-05
3.5219854e-06
1.3891009e-06
7.4480726e-07
5.2562059e-07
4.9506261e-07
6.1616186e-07
8.5991103e-07
1.4198342e-06
2.3605238e-06
3.5388584e-06
4.9883455e-06
6.627631e-06
8.5083832e-06
1.0671257e-05
1.3094191e-05
1.571413e-05
1.8448187e-05
2.121569e-05
2.3957018e-05
2.6638466e-05
2.9245534e-05
3.1769766e-05
3.420371e-05
3.6539912e-05
3.8775625e-05
4.0911618e-05
4.2952819e-05
4.4901112e-05
4.6757886e-05
4.8526039e-05
5.0208257e-05
5.1806526e-05
5.3325159e-05
5.4773048e-05
5.6141607e-05
5.7442622e-05
5.8678073e-05
5.9848561e-05
6.095676e-05
6.2006178e-05
6.2999705e-05
6.3940007e-05
6.4829408e-05
6.5672837e-05
6.6469655e-05
6.7222308e-05
6.7932704e-05
6.8603362e-05
6.9236781e-05
6.9834337e-05
7.0396948e-05
7.0924543e-05
7.1416371e-05
7.1871589e-05
7.2288767e-05
7.266692e-05
7.300631e-05
7.3308139e-05
7.3573994e-05
7.3805096e-05
7.4002437e-05
7.41665e-05
7.4296596e-05
7.439171e-05
7.4450337e-05
7.4470589e-05
7.4450431e-05
7.4387967e-05
7.4281748e-05
7.4131129e-05
7.3936663e-05
7.3700448e-05
7.342639e-05
7.3120197e-05
7.2789023e-05
7.2440835e-05
7.2083405e-05
7.1723212e-05
7.1364735e-05
7.1010421e-05
7.0661172e-05
7.0317147e-05
6.9978463e-05
6.9645552e-05
6.9319131e-05
6.8999948e-05
6.8688499e-05
6.838488e-05
6.8088723e-05
6.7799441e-05
6.7516055e-05
6.7238217e-05
6.6964201e-05
6.6696317e-05
6.6427618e-05
6.6173083e-05
6.5920241e-05
6.5515538e-05
4.0511619e-05
3.5058441e-05
2.3310754e-05
1.2451109e-05
6.4373256e-06
3.5361776e-06
2.1245957e-06
1.3956804e-06
1.0119652e-06
8.3525478e-07
8.1920568e-07
9.3413536e-07
1.1795174e-06
1.7218732e-06
2.5483643e-06
3.6666373e-06
5.1369016e-06
6.9138032e-06
9.0585244e-06
1.158982e-05
1.4465396e-05
1.7594948e-05
2.0869347e-05
2.4190084e-05
2.7489783e-05
3.0732097e-05
3.3898953e-05
3.697802e-05
3.9960175e-05
4.2839609e-05
4.5613963e-05
4.8283138e-05
5.0847554e-05
5.3307744e-05
5.5665431e-05
5.7926383e-05
6.0088949e-05
6.2157606e-05
6.4136098e-05
6.6027279e-05
6.7834001e-05
6.9558527e-05
7.1203653e-05
7.2772513e-05
7.4266673e-05
7.5690046e-05
7.7045885e-05
7.8337255e-05
7.9567652e-05
8.0739949e-05
8.1856678e-05
8.291947e-05
8.3929714e-05
8.4887697e-05
8.5792759e-05
8.6643941e-05
8.7438853e-05
8.8176002e-05
8.8856124e-05
8.9480745e-05
9.0051645e-05
9.0570646e-05
9.1039367e-05
9.1458966e-05
9.1829178e-05
9.2149314e-05
9.2417913e-05
9.2632945e-05
9.279213e-05
9.2893299e-05
9.2934768e-05
9.2915769e-05
9.2836895e-05
9.2700477e-05
9.2510793e-05
9.2273996e-05
9.1997663e-05
9.1690036e-05
9.1359103e-05
9.1011688e-05
9.0652989e-05
9.0286764e-05
8.9915867e-05
8.9542879e-05
8.9170482e-05
8.8801426e-05
8.8438218e-05
8.8082741e-05
8.7736007e-05
8.7398163e-05
8.7068602e-05
8.674639e-05
8.6430171e-05
8.6119359e-05
8.5811869e-05
8.551034e-05
8.5206474e-05
8.4919133e-05
8.4630045e-05
8.4173298e-05
4.1917473e-05
4.1423594e-05
3.9061732e-05
3.3681172e-05
2.5895351e-05
1.8323996e-05
1.2429057e-05
8.3430348e-06
5.6415298e-06
3.8597243e-06
2.7137565e-06
1.9690018e-06
1.4983862e-06
1.2460021e-06
1.1641586e-06
1.2320159e-06
1.4467923e-06
1.9709569e-06
2.8024985e-06
3.992019e-06
5.6272642e-06
7.6739863e-06
1.0206613e-05
1.321392e-05
1.6619e-05
2.0296922e-05
2.4114586e-05
2.7966496e-05
3.1789439e-05
3.5552232e-05
3.9236999e-05
4.2829335e-05
4.6318357e-05
4.9698024e-05
5.2965562e-05
5.6121561e-05
5.9164681e-05
6.2095761e-05
6.4916997e-05
6.7630634e-05
7.0239016e-05
7.2744377e-05
7.5149162e-05
7.7456261e-05
7.9667856e-05
8.1787147e-05
8.3817522e-05
8.5762367e-05
8.762542e-05
8.9410247e-05
9.112002e-05
9.2758013e-05
9.4325227e-05
9.5821776e-05
9.7246371e-05
9.8596317e-05
9.9870237e-05
0.00010106738
0.00010218748
0.00010323163
0.00010420195
0.00010510077
0.0001059304
0.00010669308
0.00010738844
0.00010801635
0.00010857548
0.0001090637
0.00010947846
0.00010981724
0.00011007796
0.00011025946
0.00011036202
0.00011038772
0.00011034063
0.00011022676
0.00011005352
0.00010982905
0.00010956148
0.00010925838
0.00010892642
0.00010857174
0.00010820025
0.00010781793
0.00010743069
0.000107044
0.00010666225
0.00010628841
0.00010592387
0.0001055687
0.00010522196
0.00010488232
0.00010454803
0.00010421826
0.00010389062
0.000103568
0.00010324092
0.00010293178
0.00010261582
0.00010212395
4.2389427e-05
4.2379275e-05
4.20829e-05
4.1109849e-05
3.892836e-05
3.5308615e-05
3.0580427e-05
2.5297994e-05
2.0157514e-05
1.5615636e-05
1.186178e-05
8.8827409e-06
6.5661945e-06
4.828984e-06
3.5557742e-06
2.6562643e-06
2.0424064e-06
1.6827427e-06
1.526068e-06
1.555176e-06
1.7714017e-06
2.3556396e-06
3.3021195e-06
4.7069258e-06
6.6514293e-06
9.138476e-06
1.2212352e-05
1.5819145e-05
1.9829783e-05
2.408406e-05
2.8440403e-05
3.2805499e-05
3.7130334e-05
4.1388298e-05
4.5559329e-05
4.9628716e-05
5.3587024e-05
5.7429317e-05
6.1153117e-05
6.4757242e-05
6.8241768e-05
7.1607515e-05
7.4855707e-05
7.7988199e-05
8.1006844e-05
8.3914069e-05
8.6712782e-05
8.9406175e-05
9.1997861e-05
9.4491613e-05
9.6890985e-05
9.9199412e-05
0.00010141867
0.00010354903
0.0001055891
0.00010753592
0.00010938686
0.00011114023
0.00011279525
0.00011435268
0.00011581459
0.000117184
0.00011846357
0.00011965457
0.00012075918
0.00012177702
0.00012270678
0.00012354618
0.00012429236
0.00012494225
0.0001254931
0.00012594302
0.00012629149
0.00012653983
0.00012669138
0.00012675149
0.0001267271
0.00012662623
0.00012645752
0.00012622991
0.0001259525
0.00012563471
0.00012528633
0.0001249173
0.00012453709
0.00012415393
0.0001237741
0.00012340154
0.000123038
0.00012268341
0.00012233651
0.00012199561
0.00012165862
0.00012132452
0.00012099066
0.0001206601
0.00012032241
0.00012000321
0.00011967039
0.00011916049
4.2974975e-05
4.2908062e-05
4.2818312e-05
4.2601009e-05
4.2106741e-05
4.1174029e-05
3.964395e-05
3.7421008e-05
3.4516965e-05
3.1061458e-05
2.726137e-05
2.3344845e-05
1.9536583e-05
1.5997965e-05
1.2825653e-05
1.0080451e-05
7.7483847e-06
5.8872225e-06
4.4376752e-06
3.3599038e-06
2.5948364e-06
2.1328631e-06
1.9190069e-06
1.9352382e-06
2.2405805e-06
2.9751672e-06
4.1834553e-06
6.0036839e-06
8.4462674e-06
1.1576661e-05
1.5363922e-05
1.9680802e-05
2.4344021e-05
2.9178193e-05
3.4060293e-05
3.8923141e-05
4.3730744e-05
4.8457628e-05
5.3084365e-05
5.7598733e-05
6.1993986e-05
6.6265939e-05
7.0411956e-05
7.4431093e-05
7.8323367e-05
8.2089567e-05
8.573131e-05
8.9250871e-05
9.2651153e-05
9.5935559e-05
9.9107585e-05
0.00010217064
0.0001051269
0.00010797687
0.00011071909
0.00011335027
0.00011586671
0.00011826547
0.00012054479
0.00012270463
0.00012474661
0.0001266736
0.0001284885
0.00013019334
0.00013179012
0.00013327898
0.00013465862
0.00013592656
0.00013707939
0.00013811329
0.00013902449
0.0001398099
0.00014046774
0.00014099801
0.00014140284
0.00014168661
0.00014185574
0.00014191838
0.00014188426
0.00014176452
0.00014157154
0.00014131878
0.0001410204
0.0001406905
0.00014034213
0.00013998621
0.00013963079
0.00013928079
0.00013893827
0.00013860316
0.00013827396
0.00013794872
0.00013762513
0.00013730199
0.00013697653
0.00013665196
0.00013631699
0.00013600031
0.00013566157
0.00013515116
4.3686788e-05
4.3564964e-05
4.3419951e-05
4.3237458e-05
4.3006915e-05
4.2680013e-05
4.2186805e-05
4.1452783e-05
4.0412495e-05
3.9011079e-05
3.7213071e-05
3.501414e-05
3.2450275e-05
2.9586637e-05
2.6503282e-05
2.3300876e-05
2.0083367e-05
1.6947398e-05
1.3985866e-05
1.1273876e-05
8.8668756e-06
6.8424122e-06
5.2128872e-06
3.963456e-06
3.0819122e-06
2.5495732e-06
2.3316622e-06
2.4004367e-06
2.9488178e-06
4.0029647e-06
5.7069446e-06
8.1513327e-06
1.137052e-05
1.5362155e-05
1.9998205e-05
2.507181e-05
3.0376362e-05
3.5763455e-05
4.1150228e-05
4.6491871e-05
5.1757517e-05
5.6924188e-05
6.1977156e-05
6.6907689e-05
7.1710037e-05
7.6380606e-05
8.0917853e-05
8.5321677e-05
8.9593125e-05
9.3734289e-05
9.774786e-05
0.00010163675
0.0001054031
0.00010904748
0.00011256837
0.00011596216
0.00011922416
0.00012235002
0.00012533661
0.00012818261
0.00013088869
0.0001334571
0.00013589057
0.00013819141
0.00014036151
0.00014240118
0.00014430903
0.00014608216
0.00014771644
0.00014920693
0.00015054846
0.00015173629
0.00015276678
0.00015363811
0.00015435078
0.00015490799
0.00015531571
0.00015558268
0.00015572041
0.00015574309
0.00015566708
0.00015551044
0.00015529194
0.00015502986
0.00015474069
0.00015443786
0.00015413112
0.00015382635
0.00015352607
0.00015323031
0.00015293752
0.00015264565
0.00015235229
0.00015205618
0.00015175448
0.00015145055
0.00015113245
0.00015083167
0.00015049898
0.0001500062
4.4496839e-05
4.4338536e-05
4.4154332e-05
4.393604e-05
4.3688291e-05
4.341469e-05
4.310878e-05
4.2754229e-05
4.2314865e-05
4.1749303e-05
4.1019113e-05
4.008705e-05
3.8921054e-05
3.7502012e-05
3.5815292e-05
3.3857373e-05
3.1639759e-05
2.9182503e-05
2.65141e-05
2.3695968e-05
2.0777188e-05
1.7828438e-05
1.4935323e-05
1.2179023e-05
9.6633657e-06
7.487943e-06
5.7118718e-06
4.3419382e-06
3.4282982e-06
2.9203263e-06
2.786252e-06
3.1390582e-06
4.0831138e-06
5.7387565e-06
8.2432148e-06
1.1620134e-05
1.5881413e-05
2.088645e-05
2.6399714e-05
3.2186005e-05
3.8078312e-05
4.3983776e-05
4.9850992e-05
5.5644285e-05
6.133787e-05
6.6915378e-05
7.2366725e-05
7.7685366e-05
8.2867601e-05
8.791215e-05
9.2819313e-05
9.7590378e-05
0.00010222663
0.0001067282
0.0001110933
0.00011531786
0.00011939629
0.00012332274
0.00012709235
0.00013070208
0.00013415108
0.00013744047
0.00014057231
0.00014354868
0.00014637117
0.00014903994
0.00015155331
0.00015390772
0.00015609804
0.00015811786
0.00015996018
0.00016161803
0.0001630854
0.00016435809
0.00016543456
0.00016631664
0.00016701
0.00016752438
0.00016787378
0.00016807613
0.00016815246
0.0001681258
0.00016801967
0.00016785646
0.0001676559
0.00016743382
0.00016720155
0.000166966
0.00016673028
0.00016649475
0.00016625801
0.00016601808
0.00016577259
0.00016552035
0.00016525855
0.00016499071
0.0001647044
0.00016443375
0.00016412014
0.00016366387
4.53955e-05
4.520834e-05
4.4997473e-05
4.4756183e-05
4.4486068e-05
4.4193578e-05
4.388517e-05
4.3564343e-05
4.3227799e-05
4.2865097e-05
4.2460647e-05
4.19951e-05
4.1445836e-05
4.0784466e-05
3.9987656e-05
3.9033288e-05
3.7901029e-05
3.6572916e-05
3.5030873e-05
3.3270002e-05
3.1284765e-05
2.907174e-05
2.6642016e-05
2.4022612e-05
2.1236237e-05
1.8343146e-05
1.5421583e-05
1.2570794e-05
9.9469309e-06
7.6721537e-06
5.8185327e-06
4.4786658e-06
3.6508222e-06
3.3007933e-06
3.4959101e-06
4.3858683e-06
6.0761105e-06
8.725813e-06
1.2362836e-05
1.6992165e-05
2.2442614e-05
2.8442957e-05
3.47344e-05
4.1141111e-05
4.7566801e-05
5.3956005e-05
6.0269838e-05
6.6481424e-05
7.2574031e-05
7.853732e-05
8.4365022e-05
9.0053962e-05
9.5602529e-05
0.00010100906
0.00010627066
0.00011138241
0.00011633755
0.00012112859
0.00012574861
0.0001301924
0.00013445704
0.00013854188
0.00014244774
0.00014617592
0.00014972738
0.00015310177
0.00015629681
0.00015930806
0.00016212902
0.00016475149
0.00016716612
0.00016936322
0.00017133377
0.00017307063
0.00017456972
0.00017583126
0.00017686063
0.00017766894
0.00017827319
0.00017869566
0.00017896258
0.0001791023
0.00017914323
0.00017911186
0.00017903103
0.00017891884
0.00017878822
0.00017864716
0.00017849953
0.0001783462
0.00017818617
0.0001780177
0.00017783866
0.000177648
0.00017744308
0.00017722762
0.00017698883
0.00017676336
0.00017648288
0.00017608297
4.6371289e-05
4.6161022e-05
4.5929249e-05
4.5671631e-05
4.5388499e-05
4.5083799e-05
4.4762953e-05
4.4431122e-05
4.4091901e-05
4.374638e-05
4.3392742e-05
4.302626e-05
4.263953e-05
4.2221571e-05
4.1759268e-05
4.1238059e-05
4.0642278e-05
3.9955481e-05
3.9161291e-05
3.8237162e-05
3.7164128e-05
3.5923126e-05
3.449489e-05
3.2861676e-05
3.1006885e-05
2.8915191e-05
2.6593281e-05
2.4027952e-05
2.1245068e-05
1.8298121e-05
1.5271472e-05
1.2322305e-05
9.6297695e-06
7.3332389e-06
5.5834796e-06
4.444308e-06
3.8887373e-06
3.9862323e-06
4.8918728e-06
6.7230036e-06
9.631764e-06
1.3662745e-05
1.8783949e-05
2.477114e-05
3.1312995e-05
3.8137493e-05
4.507239e-05
5.202425e-05
5.893602e-05
6.5768072e-05
7.2494773e-05
7.9100523e-05
8.557519e-05
9.1911479e-05
9.810295e-05
0.00010414226
0.00011002062
0.0001157283
0.00012125577
0.00012659503
0.00013174042
0.00013668885
0.0001414392
0.00014599136
0.00015034516
0.00015449935
0.00015845069
0.00016219355
0.00016571979
0.00016901898
0.000172079
0.00017488685
0.00017742987
0.00017969731
0.00018168196
0.00018338201
0.00018480238
0.00018595561
0.00018686201
0.00018754868
0.00018804747
0.00018839244
0.00018861713
0.00018875221
0.00018882369
0.00018885193
0.00018885148
0.0001888315
0.00018879676
0.00018874886
0.00018868737
0.00018861101
0.00018851803
0.00018840766
0.00018827755
0.00018813165
0.00018795701
0.00018779264
0.00018756036
0.00018723779
4.7417749e-05
4.7188344e-05
4.6939178e-05
4.6668046e-05
4.6375022e-05
4.6062689e-05
4.5734898e-05
4.5395611e-05
4.5048225e-05
4.4695294e-05
4.4338393e-05
4.3977962e-05
4.3613217e-05
4.3241889e-05
4.2860061e-05
4.2462226e-05
4.204138e-05
4.1589088e-05
4.1096018e-05
4.0550554e-05
3.9939687e-05
3.9249399e-05
3.8464259e-05
3.7568657e-05
3.6541196e-05
3.5354762e-05
3.3987689e-05
3.2412375e-05
3.0596527e-05
2.8532387e-05
2.6189862e-05
2.355892e-05
2.0661608e-05
1.756036e-05
1.439747e-05
1.1386749e-05
8.7191391e-06
6.6202562e-06
5.2169007e-06
4.4982019e-06
4.5942171e-06
5.6128012e-06
7.7260945e-06
1.1038425e-05
1.562485e-05
2.1375236e-05
2.7991372e-05
3.5125721e-05
4.2510068e-05
4.9988331e-05
5.7474867e-05
6.4914508e-05
7.2269883e-05
7.951677e-05
8.6637962e-05
9.3618899e-05
0.00010044573
0.00010710456
0.0001135819
0.00011986582
0.00012594688
0.00013181858
0.00013747696
0.00014291967
0.00014814479
0.00015314962
0.0001579296
0.00016247752
0.00016678327
0.00017083387
0.00017461394
0.00017810661
0.00018129492
0.00018416372
0.00018670196
0.00018890507
0.00019077703
0.00019233159
0.00019359237
0.0001945915
0.00019536683
0.00019595853
0.00019640569
0.00019674347
0.00019700126
0.00019720185
0.00019736147
0.00019749059
0.00019759499
0.00019767716
0.0001977374
0.00019777508
0.00019778897
0.00019777875
0.00019774244
0.00019768431
0.00019759142
0.000197505
0.000197337
0.00019711409
4.8527515e-05
4.8282212e-05
4.8018453e-05
4.7735789e-05
4.7434273e-05
4.7115703e-05
4.6782971e-05
4.6439184e-05
4.6087061e-05
4.5728779e-05
4.5366014e-05
4.4999992e-05
4.4631486e-05
4.426075e-05
4.3887403e-05
4.3510326e-05
4.3127557e-05
4.2736201e-05
4.2332474e-05
4.1911579e-05
4.1467558e-05
4.0993331e-05
4.0480574e-05
3.9920075e-05
3.9300887e-05
3.8609085e-05
3.782894e-05
3.6943255e-05
3.5929318e-05
3.4755454e-05
3.3390416e-05
3.179387e-05
2.9939264e-05
2.7786862e-05
2.5301598e-05
2.2477253e-05
1.9350951e-05
1.6049295e-05
1.2804509e-05
9.8426078e-06
7.4850328e-06
5.9000744e-06
5.0973861e-06
5.3341826e-06
6.6068434e-06
9.184502e-06
1.3103607e-05
1.8420723e-05
2.49233e-05
3.2236619e-05
3.999828e-05
4.796561e-05
5.6005999e-05
6.4041956e-05
7.2020544e-05
7.9904481e-05
8.7665548e-05
9.5279609e-05
0.00010272523
0.0001099838
0.00011703998
0.00012388211
0.00013050194
0.00013689364
0.00014305259
0.00014897391
0.00015465111
0.00016007504
0.00016523326
0.00017010985
0.00017468575
0.00017893968
0.00018284965
0.00018639529
0.00018956071
0.00019233764
0.00019472825
0.00019674681
0.00019841989
0.00019978463
0.00020088513
0.00020176812
0.00020247878
0.00020305733
0.00020353699
0.0002039433
0.00020429442
0.00020460221
0.0002048736
0.00020511206
0.00020531879
0.00020549393
0.00020563693
0.00020574801
0.00020582573
0.00020587474
0.0002058823
0.00020589175
0.00020580511
0.00020570572
4.9693409e-05
4.9434736e-05
4.915863e-05
4.8866045e-05
4.8557098e-05
4.8233031e-05
4.7896052e-05
4.7548674e-05
4.7193179e-05
4.6831416e-05
4.6464833e-05
4.6094554e-05
4.5721438e-05
4.5346108e-05
4.4968948e-05
4.459008e-05
4.4209307e-05
4.3826038e-05
4.3439231e-05
4.3047352e-05
4.2648281e-05
4.2239246e-05
4.1816725e-05
4.1376431e-05
4.0913256e-05
4.0420954e-05
3.9891857e-05
3.9317036e-05
3.8685824e-05
3.7983673e-05
3.7193223e-05
3.6293353e-05
3.5256501e-05
3.4043343e-05
3.2608786e-05
3.0913805e-05
2.8907767e-05
2.6538206e-05
2.3773506e-05
2.0630134e-05
1.7224696e-05
1.3804522e-05
1.0618723e-05
8.1154176e-06
6.4570519e-06
5.7103466e-06
6.2127169e-06
7.9735528e-06
1.1215161e-05
1.5985265e-05
2.221986e-05
2.9580542e-05
3.7639188e-05
4.60563e-05
5.4631813e-05
6.3253744e-05
7.1847429e-05
8.0358036e-05
8.8744064e-05
9.6972367e-05
0.00010501629
0.00011285518
0.00012047351
0.00012785976
0.00013500487
0.00014190052
0.0001485374
0.00015490377
0.00016098439
0.00016676004
0.00017220756
0.00017730067
0.00018201168
0.00018631404
0.00019018586
0.00019361387
0.00019659714
0.00019914934
0.00020129918
0.00020308841
0.00020456742
0.00020579
0.00020680807
0.00020766769
0.00020840664
0.00020905374
0.00020962943
0.00021014718
0.00021061519
0.00021103797
0.0002114177
0.00021175541
0.00021205135
0.00021230641
0.00021251982
0.00021269666
0.00021282462
0.00021294904
0.00021296194
0.00021301168
5.0908731e-05
5.0638608e-05
5.0351884e-05
5.0050629e-05
4.9735074e-05
4.9406057e-05
4.9065245e-05
4.8714674e-05
4.8356279e-05
4.7991684e-05
4.7622182e-05
4.7248787e-05
4.6872281e-05
4.6493258e-05
4.6112154e-05
4.5729271e-05
4.5344781e-05
4.4958705e-05
4.4570891e-05
4.4180991e-05
4.3788423e-05
4.3392319e-05
4.2991475e-05
4.2584288e-05
4.216871e-05
4.1742174e-05
4.1301456e-05
4.0842567e-05
4.0360689e-05
3.9849755e-05
3.9302087e-05
3.8708254e-05
3.8056138e-05
3.732922e-05
3.650531e-05
3.5561391e-05
3.445256e-05
3.3128964e-05
3.1547558e-05
2.9639832e-05
2.7341502e-05
2.4606212e-05
2.1416126e-05
1.7915401e-05
1.4345442e-05
1.1030631e-05
8.4805338e-06
6.8663334e-06
6.4567398e-06
7.4121591e-06
9.9313186e-06
1.4085546e-05
1.9941624e-05
2.7239073e-05
3.5519612e-05
4.4348899e-05
5.3441284e-05
6.2635589e-05
7.1829428e-05
8.0948842e-05
8.9939858e-05
9.8762512e-05
0.00010738691
0.00011579078
0.00012395707
0.00013187144
0.00013952003
0.00014688729
0.00015395442
0.00016069827
0.00016709112
0.00017310118
0.00017869425
0.00018383661
0.00018849906
0.00019266172
0.00019631879
0.00019948172
0.00020218001
0.00020445917
0.00020637572
0.00020799078
0.00020936381
0.00021054766
0.00021158562
0.00021251057
0.00021334581
0.00021410673
0.00021480291
0.00021544
0.0002160212
0.00021654849
0.00021702302
0.00021744645
0.00021781881
0.00021814571
0.00021841544
0.00021867527
0.00021880704
0.00021903358
5.2167131e-05
5.1887016e-05
5.1590986e-05
5.1282008e-05
5.0960448e-05
5.0626859e-05
5.0282483e-05
4.9928955e-05
4.9567907e-05
4.9200761e-05
4.8828687e-05
4.8452623e-05
4.80733e-05
4.7691275e-05
4.7306963e-05
4.6920661e-05
4.653257e-05
4.6142805e-05
4.5751395e-05
4.5358294e-05
4.4963364e-05
4.4566367e-05
4.4166939e-05
4.3764565e-05
4.3358541e-05
4.2947936e-05
4.2531542e-05
4.21078e-05
4.1674745e-05
4.1229904e-05
4.0770142e-05
4.0291504e-05
3.978899e-05
3.925616e-05
3.8684195e-05
3.8062706e-05
3.7375881e-05
3.6601022e-05
3.5715145e-05
3.4673282e-05
3.3418792e-05
3.1904682e-05
3.004676e-05
2.7768786e-05
2.5008411e-05
2.1739269e-05
1.8127186e-05
1.4404614e-05
1.1085977e-05
8.6297247e-06
7.2589177e-06
7.4478884e-06
9.1865908e-06
1.27331e-05
1.8141175e-05
2.5284995e-05
3.3715971e-05
4.291641e-05
5.2502547e-05
6.2250298e-05
7.2024896e-05
8.1733755e-05
9.1311803e-05
0.00010071292
0.00010990322
0.0001188565
0.00012755035
0.0001359628
0.00014406975
0.00015184304
0.00015924956
0.00016625128
0.00017280673
0.00017887392
0.00018441484
0.00018940111
0.00019381991
0.00019767821
0.00020100438
0.00020384632
0.00020626602
0.00020833208
0.00021011219
0.00021166705
0.00021304662
0.00021428893
0.00021542086
0.00021646023
0.00021741823
0.00021830173
0.00021911499
0.00021986095
0.00022054174
0.00022115987
0.00022171627
0.00022221717
0.00022265165
0.00022306889
0.00022334013
0.00022377336
5.3462542e-05
5.3173542e-05
5.2869199e-05
5.2553203e-05
5.2226065e-05
5.1888144e-05
5.1540348e-05
5.1183979e-05
5.0820401e-05
5.0450851e-05
5.007638e-05
4.9697851e-05
4.9315956e-05
4.8931228e-05
4.8544068e-05
4.8154768e-05
4.7763526e-05
4.7370461e-05
4.6975626e-05
4.6579022e-05
4.6180604e-05
4.5780281e-05
4.5377918e-05
4.4973331e-05
4.456627e-05
4.4156408e-05
4.3743315e-05
4.332643e-05
4.2905025e-05
4.2478161e-05
4.2044635e-05
4.1602904e-05
4.1150986e-05
4.0686363e-05
4.0205692e-05
3.9704704e-05
3.9177801e-05
3.861675e-05
3.8011673e-05
3.7347607e-05
3.660116e-05
3.5748746e-05
3.4741889e-05
3.35239e-05
3.2031906e-05
3.0174413e-05
2.7860643e-05
2.5003032e-05
2.160935e-05
1.7854437e-05
1.4032732e-05
1.0847367e-05
8.6484297e-06
7.9405548e-06
8.9232694e-06
1.1870941e-05
1.6806179e-05
2.3743229e-05
3.2270676e-05
4.1805232e-05
5.1862262e-05
6.2145783e-05
7.2484668e-05
8.2767574e-05
9.2918261e-05
0.00010288299
0.00011262071
0.00012209653
0.00013127689
0.00014012595
0.00014860349
0.00015666402
0.00016425767
0.00017133291
0.00017784128
0.00018374375
0.00018901783
0.00019366326
0.00019770462
0.00020119016
0.00020418612
0.0002067683
0.00020901314
0.00021099029
0.00021275768
0.00021435976
0.00021582804
0.00021718345
0.00021843917
0.00021960346
0.00022068162
0.0002216776
0.00022259451
0.00022343577
0.00022420332
0.00022490409
0.0002255281
0.00022612648
0.00022655919
0.00022723156
5.478917e-05
5.4492122e-05
5.418021e-05
5.3857715e-05
5.3525288e-05
5.3183165e-05
5.2831995e-05
5.2472805e-05
5.2106725e-05
5.173482e-05
5.1358026e-05
5.0977131e-05
5.0592783e-05
5.0205493e-05
4.9815651e-05
4.9423546e-05
4.9029378e-05
4.8633271e-05
4.8235286e-05
4.7835432e-05
4.743368e-05
4.7029968e-05
4.6624207e-05
4.6216288e-05
4.580608e-05
4.5393426e-05
4.497814e-05
4.4559996e-05
4.4138714e-05
4.3713938e-05
4.3285219e-05
4.285198e-05
4.2413473e-05
4.196874e-05
4.1516534e-05
4.1055217e-05
4.0582695e-05
4.0096077e-05
3.9591535e-05
3.9064021e-05
3.8505656e-05
3.7906848e-05
3.7252252e-05
3.6518623e-05
3.5680319e-05
3.4680717e-05
3.3468134e-05
3.1954786e-05
3.0044901e-05
2.7627894e-05
2.4597682e-05
2.1033699e-05
1.7089136e-05
1.3351908e-05
1.043368e-05
8.7922287e-06
9.0819995e-06
1.1394098e-05
1.5872237e-05
2.259947e-05
3.1204608e-05
4.1052992e-05
5.1564478e-05
6.2369519e-05
7.3259188e-05
8.4102608e-05
9.4810014e-05
0.00010531559
0.00011556518
0.00012550833
0.00013509334
0.00014426446
0.00015296139
0.00016112127
0.00016868318
0.00017559491
0.00018182129
0.00018735139
0.00019220264
0.00019642071
0.00020007412
0.00020324503
0.00020601879
0.00020847492
0.00021068073
0.00021268851
0.00021453571
0.00021624729
0.00021783903
0.0002193208
0.00022069908
0.0002219788
0.00022316403
0.00022425914
0.00022526716
0.00022619574
0.00022703608
0.00022784125
0.000228459
0.00022940575
5.6141506e-05
5.5837036e-05
5.5518105e-05
5.5189482e-05
5.485195e-05
5.4505672e-05
5.4151101e-05
5.3789035e-05
5.3420403e-05
5.3046114e-05
5.2666991e-05
5.2283751e-05
5.1896992e-05
5.15072e-05
5.1114751e-05
5.071993e-05
5.0322941e-05
4.9923914e-05
4.9522917e-05
4.9119969e-05
4.8715052e-05
4.8308112e-05
4.7899074e-05
4.7487845e-05
4.7074317e-05
4.6658375e-05
4.6239891e-05
4.5818731e-05
4.5394743e-05
4.4967758e-05
4.4537576e-05
4.4103961e-05
4.3666618e-05
4.3225178e-05
4.277917e-05
4.2327983e-05
4.1870832e-05
4.140668e-05
4.0934131e-05
4.0451373e-05
3.9955817e-05
3.9443942e-05
3.8910906e-05
3.8349007e-05
3.7748899e-05
3.7093121e-05
3.6359599e-05
3.551545e-05
3.4498082e-05
3.3254872e-05
3.1674738e-05
2.9649853e-05
2.7038438e-05
2.3788169e-05
1.9981345e-05
1.5927921e-05
1.2434636e-05
1.003478e-05
9.642106e-06
1.1308742e-05
1.5370068e-05
2.188268e-05
3.054877e-05
4.0693738e-05
5.1646845e-05
6.2963238e-05
7.4392258e-05
8.5779144e-05
9.7014975e-05
0.00010801474
0.00011870327
0.00012900714
0.0001388509
0.00014815692
0.00015684887
0.00016485826
0.00017213354
0.00017864901
0.00018441066
0.0001894577
0.00019385799
0.00019769829
0.0002010725
0.00020407061
0.00020677058
0.00020923413
0.00021150615
0.00021361687
0.00021558546
0.00021742385
0.00021913988
0.00022073945
0.00022222764
0.00022360974
0.00022488987
0.0002260765
0.0002271621