/*--------------------------------*- C++ -*----------------------------------*\
| =========                 |                                                 |
| \\      /  F ield         | OpenFOAM: The Open Source CFD Toolbox           |
|  \\    /   O peration     | Version:  2206                                  |
|   \\  /    A nd           | Website:  www.openfoam.com                      |
|    \\/     M anipulation  |                                                 |
\*---------------------------------------------------------------------------*/
FoamFile
{
    version     2.0;
    format      ascii;
    arch        "LSB;label=32;scalar=64";
    class       volScalarField;
    location    "200";
    object      p;
}
// * * * * * * * * * * * * * * * * * * * * * * * * * * * * * * * * * * * * * //

dimensions      [0 2 -2 0 0 0 0];

internalField   nonuniform List<scalar> 
7480
(
0.062742458
0.051859836
0.036418046
0.027087262
0.021882649
0.01879439
0.016845047
0.015349656
0.014066915
0.012993376
0.012130512
0.011459651
0.010954995
0.010586113
0.010326217
0.010153745
0.01004797
0.0099946028
0.0099716871
0.0099820574
0.010007457
0.010031616
0.010053205
0.010070245
0.010080831
0.010083494
0.010080562
0.010071345
0.010054083
0.010029715
0.0099994978
0.0099638051
0.0099231961
0.0098784094
0.0098293349
0.0097763487
0.0097194381
0.0096584209
0.0095940236
0.0095265894
0.0094561752
0.0093826861
0.0093067178
0.0092284786
0.0091478978
0.0090654812
0.0089812212
0.0088952339
0.0088078954
0.0087191077
0.0086293977
0.0085389604
0.0084478513
0.0083563647
0.0082642652
0.0081716438
0.0080782568
0.007983854
0.0078882686
0.0077911411
0.0076923742
0.0075915173
0.0074882175
0.0073818218
0.0072715247
0.0071562205
0.0070344723
0.0069044823
0.0067639216
0.0066100291
0.0064393801
0.0062481688
0.0060319949
0.0057864129
0.0055070551
0.0051903375
0.0048354483
0.0044442603
0.0040233454
0.0035857231
0.0031482762
0.0027301349
0.0023488136
0.0020167314
0.0017389737
0.0015131903
0.0013313679
0.0011826566
0.001056138
0.00094291222
0.00083705727
0.0007354745
0.00063825124
0.00054559878
0.00046361263
0.00038891633
0.00034592822
0.00029824146
0.00085927024
-0.0011606896
0.059047133
0.050841851
0.0384745
0.029228337
0.023003933
0.019295208
0.017090147
0.015501264
0.014183434
0.013093265
0.012219047
0.01153887
0.011025837
0.010649009
0.010381566
0.010202242
0.010090611
0.010031565
0.010010764
0.010015701
0.010033321
0.010054589
0.010073796
0.010088722
0.010097449
0.0100991
0.010094626
0.010083897
0.010065571
0.010040287
0.010009258
0.0099728353
0.0099315708
0.0098861928
0.0098365821
0.0097831117
0.0097257651
0.0096643555
0.0095995989
0.0095318357
0.0094611191
0.0093873517
0.0093111279
0.0092326513
0.0091518499
0.0090692285
0.0089847774
0.0088986125
0.0088111081
0.008722165
0.0086323098
0.0085417361
0.0084504999
0.0083588957
0.0082666882
0.0081739691
0.0080804943
0.0079860134
0.0078903585
0.0077931692
0.0076943471
0.0075934409
0.0074900977
0.0073836643
0.0072733355
0.0071580057
0.007036238
0.0069062343
0.0067656657
0.0066117705
0.0064411231
0.0062499164
0.0060337489
0.0057881735
0.0055088205
0.0051921039
0.0048372081
0.0044460026
0.0040250537
0.0035873753
0.0031498469
0.0027315992
0.0023501525
0.0020179352
0.0017400436
0.0015141373
0.0013322093
0.0011834118
0.0010568253
0.00094354652
0.00083764971
0.00073603269
0.0006387805
0.00054610257
0.00046409473
0.00038937827
0.00034637791
0.00029873831
0.00085970143
-0.0011602183
0.055277651
0.048508966
0.037693737
0.028982432
0.023260524
0.019810203
0.017589083
0.015903551
0.014506608
0.013362242
0.012449581
0.011739617
0.011202367
0.01080506
0.01052028
0.010326453
0.010202011
0.010131448
0.010102192
0.010095103
0.010103692
0.01011764
0.010130178
0.010139351
0.010143085
0.010140669
0.010132333
0.01011815
0.010096795
0.010068876
0.010035547
0.0099970558
0.0099539365
0.0099068814
0.0098557597
0.0098008955
0.0097422917
0.0096797805
0.009613996
0.0095452942
0.0094737194
0.0093991657
0.0093222251
0.0092430869
0.009161675
0.0090784913
0.0089935165
0.0089068684
0.0088189168
0.0087295566
0.0086393142
0.0085483779
0.0084568027
0.0083648832
0.0082723836
0.0081793977
0.0080856806
0.0079909821
0.0078951329
0.0077977702
0.0076987935
0.0075977491
0.0074942831
0.0073877411
0.0072773179
0.0071619077
0.0070400736
0.0069100174
0.0067694095
0.0066154876
0.0064448246
0.006253612
0.0060374455
0.0057918755
0.0055125283
0.0051958116
0.0048409006
0.0044496551
0.0040286257
0.0035908149
0.0031530963
0.0027346057
0.002352879
0.0020203677
0.0017421922
0.0015160317
0.00133389
0.0011849215
0.001058202
0.00094482035
0.00083884217
0.00073715801
0.00063984876
0.00054711973
0.00046506929
0.00039031073
0.00034729102
0.00029961725
0.00086069056
-0.0011595593
0.05240936
0.046772308
0.037413459
0.02927906
0.023833695
0.020368889
0.01804211
0.016306243
0.014890612
0.013711257
0.012761625
0.012018031
0.011451032
0.011027627
0.010719658
0.010505051
0.010361365
0.010273528
0.010228843
0.010208802
0.010206504
0.010210509
0.01021436
0.010215921
0.010212793
0.01020433
0.010190603
0.01017149
0.010145708
0.010113914
0.010077139
0.010035509
0.0099895603
0.0099399352
0.0098864933
0.0098293979
0.0097687811
0.0097045367
0.0096370821
0.0095668626
0.0094939008
0.0094180718
0.0093399673
0.0092597538
0.0091773505
0.0090932523
0.0090074229
0.0089199871
0.0088313068
0.0087412674
0.0086503949
0.0085588682
0.0084667392
0.0083743009
0.0082813162
0.0081878829
0.0080937548
0.0079986835
0.0079024997
0.0078048374
0.0077055937
0.0076043102
0.0075006313
0.0073939001
0.0072833103
0.0071677559
0.0070457997
0.0069156433
0.0067749569
0.0066209775
0.0064502765
0.0062590433
0.0060428706
0.0057973043
0.0055179644
0.0052012483
0.0048463157
0.004455011
0.0040338598
0.0035958488
0.0031578432
0.0027389883
0.0023568448
0.0020238993
0.0017453078
0.0015187773
0.0013363267
0.0011871123
0.0010602022
0.00094667305
0.00084057793
0.00073879688
0.00064140467
0.00054860105
0.00046648775
0.00039166716
0.00034861775
0.00030084234
0.00086213663
-0.0011586701
0.049811021
0.04499357
0.036928724
0.029609176
0.024464289
0.020966067
0.018504608
0.016663145
0.015191286
0.013989701
0.013034364
0.012285795
0.011700949
0.011254889
0.010927657
0.010695564
0.010535611
0.010432466
0.010372088
0.010337922
0.010322338
0.010314771
0.010309443
0.010303402
0.010293488
0.010278879
0.010259646
0.01023547
0.010205047
0.010169088
0.010128483
0.010083275
0.010034035
0.0099813898
0.0099251977
0.0098654379
0.0098023987
0.0097360256
0.0096665179
0.0095944194
0.0095197294
0.0094423009
0.0093627303
0.0092811553
0.009197495
0.0091122339
0.0090253087
0.0089368591
0.0088472391
0.0087563221
0.0086646352
0.0085723429
0.0084794931
0.0083863766
0.0082927532
0.0081987256
0.0081040448
0.0080084676
0.0079118265
0.0078137532
0.0077141422
0.0076125293
0.0075085568
0.0074015635
0.0072907413
0.0071749836
0.007052853
0.0069225508
0.0067817471
0.0066276782
0.0064569144
0.0062656428
0.0060494521
0.0058038826
0.0055245448
0.0052078226
0.0048528542
0.0044614647
0.0040401486
0.0036018764
0.0031635065
0.0027441992
0.0023615475
0.0020280807
0.0017489966
0.0015220326
0.001339223
0.001189724
0.0010625936
0.00094889309
0.00084266092
0.00074076508
0.00064327339
0.00055037978
0.00046818914
0.00039329304
0.00035020335
0.00030230719
0.0008638581
-0.0011575871
0.047472811
0.043260305
0.036312671
0.029757205
0.024893007
0.021448221
0.018959051
0.017070186
0.01555256
0.014308377
0.013311137
0.012525825
0.011913329
0.011447907
0.011110772
0.01086637
0.010690044
0.010575914
0.010506541
0.01046476
0.010441233
0.010424934
0.010410651
0.010395891
0.010377936
0.010356559
0.010331934
0.010303144
0.010268519
0.01022877
0.010184614
0.010135974
0.010083478
0.010027785
0.0099687426
0.0099062574
0.0098407035
0.0097720211
0.0097003176
0.0096261867
0.0095496029
0.0094703984
0.0093891877
0.0093060749
0.00922098
0.0091343893
0.0090462097
0.0089565959
0.0088658941
0.0087739608
0.0086813266
0.0085881397
0.0084944442
0.0084005295
0.0083061497
0.0082114116
0.0081160629
0.0080198691
0.0079226673
0.0078240865
0.0077240192
0.0076219953
0.0075176552
0.0074103323
0.0072992163
0.0071831995
0.0070608437
0.00693035
0.0067893881
0.0066351942
0.0064643371
0.0062730016
0.0060567717
0.0058111806
0.0055318269
0.0052150777
0.0048600454
0.0044685344
0.0040470043
0.0036084131
0.0031696163
0.0027497947
0.0023665797
0.0020325469
0.0017529368
0.0015255163
0.0013423323
0.001192538
0.0010651785
0.00095129854
0.00084492087
0.00074290143
0.00064530099
0.00055230831
0.0004700307
0.00039505056
0.00035191086
0.0003038932
0.00086569523
-0.0011563745
0.045393326
0.041686279
0.035675905
0.029794558
0.025219375
0.021864627
0.019372439
0.017450987
0.015905
0.014637927
0.013613679
0.01279801
0.012155151
0.011658751
0.011292833
0.011021564
0.010822432
0.010694525
0.010615999
0.010565976
0.010535804
0.01051623
0.010500263
0.010483824
0.010462889
0.010436752
0.010406525
0.010372126
0.010332443
0.010288735
0.010241372
0.010189785
0.010134525
0.010076213
0.01001462
0.0099496413
0.0098817398
0.0098108231
0.0097369617
0.009660814
0.0095823203
0.0095012928
0.0094183825
0.009333658
0.0092470369
0.0091590245
0.0090695019
0.0089786366
0.0088867671
0.0087937274
0.0087000582
0.0086058893
0.008511259
0.0084164563
0.008321226
0.0082256826
0.0081295736
0.0080326732
0.0079348229
0.0078356493
0.0077350452
0.0076325351
0.0075277581
0.0074200415
0.0073085726
0.0071922425
0.0070696113
0.0069388797
0.006797717
0.0066433593
0.0064723736
0.0062809424
0.0060646441
0.0058190036
0.0055396051
0.0052227973
0.0048676631
0.0044759866
0.0040541905
0.003615226
0.0031759493
0.0027555675
0.0023717543
0.0020371329
0.001756985
0.0015291041
0.0013455458
0.0011954572
0.0010678688
0.00095380756
0.00084728061
0.0007451324
0.00064741688
0.00055431865
0.00047194641
0.0003968757
0.00035367655
0.00030553753
0.00086756621
-0.0011550554
0.043516874
0.040248141
0.0350426
0.029770419
0.025482551
0.022228276
0.019746643
0.017804624
0.016236989
0.014950959
0.013905914
0.013068161
0.012403186
0.011881189
0.011491004
0.011196906
0.01097341
0.010822893
0.010723233
0.010655193
0.010611243
0.010584485
0.010564561
0.010545324
0.010524805
0.010500518
0.010471712
0.010437688
0.01039631
0.010349361
0.010298181
0.010242866
0.010184557
0.010123866
0.010060164
0.0099931562
0.0099233493
0.0098505593
0.0097748133
0.0096968608
0.0096166106
0.0095338649
0.0094493287
0.0093630371
0.0092749103
0.0091854793
0.0090945993
0.0090024578
0.008909388
0.0088152008
0.0087204544
0.0086252571
0.0085296398
0.0084338921
0.0083377465
0.0082413298
0.0081443917
0.0080467143
0.0079481425
0.0078483031
0.0077470921
0.0076440288
0.007538751
0.0074305808
0.0073187036
0.0072020076
0.0070790515
0.0069480351
0.0068066274
0.0066520642
0.0064809106
0.0062893465
0.006072944
0.005827219
0.0055477393
0.0052308345
0.0048755558
0.0044836686
0.004061558
0.003622174
0.0031823773
0.0027614049
0.0023769747
0.002041757
0.0017610724
0.0015327369
0.0013488116
0.0011984348
0.0010706209
0.00095637897
0.00084970079
0.00074742015
0.00064958457
0.00055637551
0.00047390193
0.00039873507
0.00035546714
0.00030720637
0.00086942131
-0.0011536283
0.041814218
0.038914028
0.034401058
0.029691045
0.025690988
0.022548256
0.020092597
0.018142193
0.01655872
0.015256366
0.014192444
0.013333692
0.01264691
0.012103621
0.011689774
0.011373787
0.011131355
0.010960848
0.010842494
0.010757997
0.010698715
0.01065771
0.010625057
0.010595434
0.010568679
0.010542536
0.010513645
0.010480523
0.010442213
0.010398413
0.010349437
0.010294321
0.010234267
0.010170898
0.010104429
0.010035059
0.0099634941
0.0098892165
0.0098120118
0.0097326726
0.0096510243
0.0095668491
0.0094809207
0.0093932407
0.0093037431
0.0092129961
0.0091208295
0.009027462
0.0089332255
0.0088379076
0.0087420912
0.0086458625
0.0085492475
0.0084525369
0.0083554494
0.0082581253
0.0081603148
0.0080618108
0.0079624636
0.0078619015
0.0077600265
0.0076563527
0.0075505177
0.0074418398
0.0073295027
0.007212391
0.0070890616
0.0069577136
0.0068160154
0.0066612023
0.0064898376
0.0062980983
0.0060815502
0.0058356994
0.0055560967
0.0052390527
0.0048835861
0.0044914465
0.0040689811
0.0036291441
0.0031888025
0.0027672254
0.0023821744
0.0020463654
0.0017651544
0.0015363765
0.0013520953
0.0012014387
0.001073404
0.00095898293
0.0008521524
0.00074973654
0.00065177675
0.00055845248
0.00047587152
0.00040060362
0.00035725767
0.00030887492
0.00087121884
-0.0011520824
0.040264113
0.037674869
0.03375084
0.029550805
0.025837892
0.022822718
0.020411181
0.018465321
0.016872468
0.015556764
0.014475857
0.013597329
0.012889726
0.012325733
0.011888775
0.011551574
0.01129074
0.011100938
0.010964658
0.010864959
0.010792097
0.010738201
0.01069452
0.010655498
0.010620111
0.010585926
0.0105497
0.010510839
0.010470859
0.010427722
0.010380229
0.010328427
0.010272088
0.010211506
0.010146177
0.010076018
0.010002619
0.0099263296
0.0098473651
0.0097667491
0.0096840348
0.0095988136
0.0095118769
0.0094231422
0.0093325482
0.00924071
0.0091474309
0.0090529761
0.0089576822
0.0088613153
0.008764494
0.0086672822
0.0085697046
0.0084720554
0.0083740377
0.008275807
0.0081771123
0.0080777594
0.0079776066
0.0078762843
0.0077737036
0.0076693747
0.0075629368
0.007453705
0.0073408617
0.0072232882
0.0070995395
0.0069678139
0.0068257791
0.0066706699
0.0064990478
0.006307087
0.006090347
0.0058443247
0.0055645538
0.0052473273
0.0048916319
0.0044992045
0.004076355
0.003636046
0.0031951511
0.0027729709
0.0023873094
0.0020509242
0.0017692037
0.0015399992
0.0013553747
0.0012044467
0.001076196
0.00096159713
0.00085461326
0.00075205975
0.00065397215
0.00056052886
0.00047783495
0.00040246159
0.00035902845
0.00031052329
0.00087292165
-0.0011504008
0.038847818
0.036524361
0.033099801
0.02935683
0.025924382
0.023048361
0.020696364
0.018768167
0.017174427
0.015850331
0.014755673
0.0138595
0.013132386
0.012548225
0.0120893
0.011731328
0.011451944
0.011243112
0.011089168
0.010973945
0.010887212
0.010820951
0.010766989
0.010719418
0.01067628
0.010635015
0.010592472
0.010548255
0.010503159
0.010454904
0.010402778
0.010349004
0.010293423
0.010234758
0.010172384
0.010105897
0.01003543
0.0099607075
0.009881497
0.0097995899
0.0097153806
0.0096288792
0.0095410459
0.0094515532
0.0093602076
0.0092676187
0.0091735224
0.0090782284
0.0089820798
0.0088848239
0.0087871297
0.0086890404
0.0085905862
0.0084920686
0.0083931739
0.0082940763
0.0081945212
0.0080943295
0.0079933685
0.0078912724
0.0077879641
0.0076829515
0.0075758782
0.0074660564
0.0073526686
0.007234593
0.0071103831
0.0069782364
0.0068358197
0.0066803677
0.0065084401
0.0063162089
0.0060992279
0.0058529858
0.0055730002
0.0052555492
0.0048995888
0.0045068476
0.0040835975
0.0036428131
0.0032013727
0.0027786062
0.0023923559
0.0020554177
0.0017732087
0.0015435944
0.0013586386
0.0012074464
0.0010789829
0.00096420675
0.00085706805
0.00075437441
0.00065615551
0.0005625897
0.00047977747
0.00040429447
0.00036076497
0.00031213617
0.00087449677
-0.0011485599
0.037549356
0.035455575
0.032454731
0.029118774
0.025956319
0.023226822
0.020946388
0.019047359
0.017461085
0.016134035
0.015029513
0.014118527
0.013373798
0.012770678
0.012291022
0.011912804
0.011614921
0.011387459
0.011216089
0.011085331
0.010984646
0.010905982
0.010841455
0.010784934
0.010733959
0.01068601
0.010637989
0.010589056
0.010539353
0.010486837
0.010431153
0.010373905
0.010314699
0.010252401
0.010187903
0.010122073
0.010053592
0.009981616
0.0099059325
0.0098268707
0.0097442201
0.0096576593
0.0095688636
0.0094782537
0.0093860099
0.0092928027
0.0091981597
0.0091023374
0.0090056296
0.0089077378
0.0088093864
0.0087105958
0.0086114105
0.0085121466
0.0084124744
0.008312592
0.00821224
0.0081112555
0.0080095161
0.0079066605
0.0078026267
0.0076969217
0.0075891969
0.0074787624
0.0073648024
0.0072461929
0.0071214865
0.0069888796
0.0068460388
0.0066901989
0.0065179179
0.006325367
0.006108095
0.0058615843
0.0055813387
0.0052636249
0.0049073704
0.0045142995
0.0040906463
0.0036493991
0.003207437
0.0027841145
0.0023973075
0.0020598454
0.001777171
0.001547163
0.0013618855
0.0012104337
0.0010817582
0.00096680355
0.00085950751
0.00075667072
0.00065831691
0.00056462509
0.00048168915
0.00040609232
0.00036245717
0.00031370215
0.00087591415
-0.0011465293
0.03635509
0.034461539
0.031820695
0.028845347
0.025939768
0.023361088
0.021161724
0.019301771
0.017730692
0.016405998
0.015295533
0.014372731
0.013612571
0.012992047
0.012493066
0.012095447
0.011779435
0.011533842
0.011345265
0.011199011
0.011084413
0.010993333
0.010918051
0.010852375
0.010793435
0.010738638
0.01068485
0.010630921
0.010576764
0.010520615
0.010461928
0.010401709
0.010339499
0.010274485
0.010207466
0.010138962
0.010067622
0.0099937813
0.0099187995
0.0098417046
0.0097616736
0.0096784039
0.009592217
0.009502895
0.0094105555
0.0093165722
0.0092210892
0.009124687
0.0090275789
0.0089292957
0.0088305599
0.0087313196
0.0086316211
0.0085317972
0.0084315017
0.008330965
0.0082299227
0.0081282311
0.0080257788
0.0079222099
0.007817481
0.0077110993
0.007602727
0.0074916745
0.0073771287
0.0072579652
0.0071327358
0.0069996373
0.0068563357
0.0067000667
0.0065273876
0.0063344693
0.0061168581
0.0058700321
0.0055894843
0.0052714747
0.0049149055
0.0045215008
0.0040974564
0.0036557748
0.00321333
0.0027894948
0.0024021718
0.0020642191
0.001781103
0.0015507152
0.0013651221
0.0012134114
0.0010845218
0.00096938492
0.00086192751
0.00075894372
0.00066045088
0.00056662933
0.00048356403
0.00040784897
0.00036409864
0.00031521292
0.0008771452
-0.0011442718
0.035253279
0.03353556
0.031201347
0.028544238
0.025880576
0.023454352
0.021343368
0.019530911
0.017982159
0.016665033
0.015552559
0.014621006
0.013847722
0.013211484
0.012694663
0.012278661
0.011945059
0.011681898
0.011476452
0.011314842
0.011186384
0.01108287
0.010996735
0.010921817
0.010854813
0.010792972
0.010733207
0.010674139
0.010615448
0.010555502
0.010493546
0.010430329
0.010365539
0.010298401
0.010229358
0.010158637
0.010085177
0.010009456
0.0099324257
0.0098530196
0.0097715521
0.00968912
0.0096048852
0.0095181385
0.0094287894
0.0093370632
0.0092424358
0.0091458141
0.0090480803
0.0089491951
0.0088500942
0.0087505777
0.0086505963
0.0085504505
0.0084497478
0.0083487462
0.008247172
0.0081449044
0.0080418452
0.0079376451
0.0078322833
0.0077252682
0.0076162772
0.0075046218
0.0073894946
0.0072697717
0.0071440059
0.0070103945
0.0068666041
0.006709872
0.0065367557
0.0063434276
0.0061254332
0.0058782496
0.0055973631
0.0052790322
0.0049221373
0.0045284071
0.0041039978
0.0036619258
0.0032190517
0.0027947586
0.0024069679
0.0020685611
0.0017850262
0.0015542694
0.0013683622
0.0012163888
0.0010872788
0.00097195326
0.00086432849
0.0007611926
0.00066255588
0.00056860039
0.00048539961
0.00040956147
0.00036568604
0.00031666273
0.00087816336
-0.0011417429
0.034233779
0.032671382
0.03059919
0.028222166
0.025784316
0.023509852
0.021492569
0.019734632
0.018214704
0.016910213
0.015799659
0.014862469
0.014078464
0.013428316
0.012895198
0.01246193
0.012111397
0.011831282
0.011609394
0.01143264
0.011290428
0.011174512
0.011077479
0.010993199
0.010918002
0.010848989
0.010783137
0.010718832
0.010655482
0.010591564
0.010526203
0.010459925
0.010392465
0.010323019
0.010251858
0.010179212
0.010104202
0.010027059
0.0099483713
0.0098673109
0.0097843515
0.0097002214
0.0096140646
0.0095264758
0.0094381644
0.0093483672
0.0092562817
0.0091622446
0.0090662488
0.0089678209
0.0088683769
0.0087683448
0.0086679805
0.0085675974
0.0084666702
0.0083654228
0.0082635267
0.0081608676
0.0080573558
0.0079526487
0.0078467526
0.0077391794
0.0076296259
0.0075174072
0.0074017243
0.0072814553
0.0071551555
0.0070210242
0.0068767291
0.0067195105
0.0065459269
0.0063521546
0.0061337406
0.0058861647
0.0056049108
0.0052862422
0.004929022
0.0045349872
0.004110254
0.0036678503
0.0032246139
0.0027999283
0.0024117248
0.0020729025
0.0017889702
0.0015578507
0.0013716259
0.0012193806
0.0010900395
0.00097451543
0.00086671494
0.00076342034
0.00066463386
0.00057053948
0.00048719642
0.00041122969
0.00036721874
0.0003180478
0.00087894532
-0.0011388906
0.033287792
0.031863253
0.030015807
0.0278849
0.025656227
0.023530829
0.021610784
0.019913068
0.018427761
0.017140743
0.01603599
0.015096309
0.01430407
0.013641927
0.013094115
0.012644785
0.012278092
0.011981688
0.011743847
0.011552223
0.011396407
0.011268163
0.011160213
0.01106647
0.010982979
0.010906695
0.010834625
0.010764949
0.010696832
0.010628827
0.010559989
0.010490583
0.010420332
0.010348461
0.010275119
0.010200502
0.010123828
0.010045156
0.0099650258
0.0098828284
0.0097987952
0.0097133595
0.0096259047
0.0095370828
0.0094472433
0.0093558081
0.0092636606
0.0091708455
0.0090766502
0.0089807782
0.0088834503
0.0087844877
0.0086841884
0.008583421
0.0084820959
0.0083806077
0.0082785261
0.0081756654
0.0080718937
0.0079668506
0.0078605638
0.007752546
0.0076425188
0.0075298043
0.0074136156
0.0072928356
0.0071660237
0.0070313828
0.0068865829
0.0067288684
0.0065548005
0.0063605614
0.0061417026
0.0058937101
0.0056120709
0.0052930595
0.0049355266
0.0045412218
0.0041162198
0.0036735578
0.0032300389
0.0028050359
0.0024164799
0.0020772822
0.0017929713
0.001561491
0.0013749387
0.0012224066
0.0010928188
0.00097708241
0.0008690951
0.0007656333
0.00066668986
0.00057245071
0.00048895764
0.00041285596
0.00036869838
0.00031936594
0.00087946036
-0.0011356546
0.032407658
0.031105952
0.029452071
0.027537312
0.025501171
0.023520508
0.021699638
0.020066598
0.018620959
0.017355946
0.01626078
0.015321752
0.014523829
0.013851699
0.013290862
0.01282676
0.012444782
0.012132812
0.011879567
0.011673404
0.011504182
0.011363717
0.011244862
0.011141588
0.01104972
0.010966073
0.010887657
0.010812486
0.010739506
0.010667309
0.010594884
0.010522261
0.010449136
0.010374782
0.010299217
0.010222558
0.01014412
0.010063861
0.009982265
0.0098988413
0.0098136561
0.0097271327
0.0096388259
0.0095491199
0.009458192
0.0093657031
0.0092725022
0.0091782051
0.0090827982
0.0089874225
0.0088915744
0.0087945415
0.0086964469
0.0085971947
0.008496312
0.0083945972
0.0082921477
0.0081890283
0.0080850787
0.0079798507
0.0078733422
0.0077650339
0.0076546617
0.007541553
0.0074249376
0.0073037063
0.0071764266
0.0070413067
0.0068960207
0.006737819
0.0065632665
0.0063685537
0.0061492395
0.0059008205
0.0056187919
0.0052994464
0.0049416276
0.0045471018
0.004121901
0.0036790679
0.0032353584
0.0028101219
0.0024212787
0.002081746
0.0017970725
0.0015652274
0.0013783316
0.0012254914
0.0010956357
0.00097966891
0.00087148059
0.00076784093
0.00066873177
0.00057434077
0.00049068884
0.00041444477
0.00037012864
0.00032061625
0.00087967808
-0.0011319668
0.031586677
0.030394776
0.028908316
0.02718345
0.0253236
0.023482055
0.021760886
0.02019582
0.018794128
0.017555279
0.01647334
0.015538071
0.014737046
0.014057015
0.01348488
0.013007373
0.012611087
0.012284336
0.012016293
0.011795986
0.011613603
0.011461059
0.011331345
0.011218502
0.011118193
0.011027099
0.010942225
0.010861444
0.010783506
0.010707011
0.010630887
0.01055496
0.010478889
0.010401977
0.01032412
0.010245362
0.010165103
0.010083235
0.01000014
0.0099154048
0.0098290218
0.0097413889
0.0096521501
0.0095615354
0.0094697732
0.0093766188
0.009282597
0.0091873576
0.0090910618
0.0089946086
0.0088974335
0.0087999613
0.0087026941
0.0086049144
0.0085060638
0.0084060496
0.0083043836
0.00820126
0.0080970019
0.0079914824
0.0078847796
0.0077762948
0.0076657203
0.0075523521
0.0074354234
0.0073138315
0.0071861544
0.0070506098
0.0069048784
0.0067462187
0.0065712013
0.0063760275
0.0061562664
0.005907429
0.0056250243
0.0053053703
0.0049473089
0.0045526268
0.0041273123
0.0036844095
0.0032406129
0.0028152351
0.0024261739
0.0020863465
0.0018013224
0.0015691027
0.0013818402
0.0012286637
0.001098513
0.00098229314
0.00087388615
0.0007700555
0.00067077005
0.0005762187
0.00049239773
0.00041600252
0.00037151496
0.00032179915
0.00087956239
-0.0011277501
0.030818972
0.029725507
0.028384486
0.026826627
0.025127536
0.023418542
0.021796373
0.020301518
0.018947289
0.017738337
0.016673068
0.015744588
0.014943049
0.014257255
0.013675607
0.013186132
0.012776606
0.012435922
0.01215375
0.011919752
0.011724503
0.011560065
0.011419573
0.011297154
0.011188358
0.01108975
0.010998319
0.010911821
0.010828832
0.010747936
0.010668007
0.010588692
0.010509597
0.010430044
0.010349827
0.010268919
0.010186783
0.010103256
0.010018619
0.009932528
0.0098449349
0.0097561677
0.0096659309
0.0095743781
0.0094817559
0.0093878599
0.0092930699
0.009197189
0.0091003241
0.0090030904
0.0089050598
0.0088067421
0.008708259
0.0086094212
0.0085108435
0.0084120102
0.0083119485
0.00821052
0.0081073211
0.0080019968
0.0078950388
0.0077862457
0.0076754518
0.0075619018
0.0074447754
0.0073229392
0.0071949659
0.0070590794
0.006912969
0.0067539047
0.0065784653
0.0063828662
0.0061626891
0.0059134636
0.0056307174
0.005310801
0.0049525596
0.0045578039
0.0041324771
0.0036896202
0.0032458513
0.002820432
0.0024312253
0.0020911425
0.0018057757
0.0015731647
0.0013855047
0.0012319563
0.0011014772
0.00098497653
0.00087632944
0.00077229191
0.0006728175
0.00057809566
0.00049409393
0.00041753735
0.00037286431
0.00032291548
0.00087907893
-0.0011229166
0.030099368
0.029094375
0.027880248
0.026469512
0.024916561
0.023332914
0.021807999
0.02038463
0.019080637
0.017904858
0.016859461
0.015940691
0.015141199
0.014451811
0.013862478
0.013362534
0.012940918
0.012587218
0.012291639
0.012044469
0.0118367
0.011660594
0.011509442
0.011377473
0.011260167
0.011153996
0.011055925
0.010963614
0.010875485
0.01079009
0.010706253
0.010623465
0.010541268
0.010458994
0.01037635
0.010293235
0.010209164
0.010123922
0.010037701
0.0099502143
0.0098613747
0.0097714406
0.0096801726
0.0095876762
0.009494171
0.0093994821
0.0093039135
0.0092073521
0.0091098714
0.0090119795
0.0089133987
0.0088144643
0.0087151979
0.0086155491
0.0085159792
0.0084159606
0.0083156169
0.0082149274
0.0081129654
0.0080092716
0.0079035203
0.0077950573
0.0076840561
0.0075701817
0.0074528053
0.0073307717
0.0072025968
0.0070664721
0.0069200775
0.0067606907
0.0065848995
0.0063889368
0.0061684008
0.0059188434
0.0056358158
0.0053157074
0.0049573716
0.0045626453
0.0041374256
0.0036947456
0.003251131
0.0028257771
0.0024365001
0.0020961997
0.0018104927
0.0015774666
0.00138937
0.0012354063
0.0011045585
0.00098774372
0.00087883092
0.00077456754
0.00067488917
0.00057998481
0.00049578884
0.00041905892
0.00037418507
0.00032396646
0.00087820161
-0.0011173678
0.0294233
0.028498015
0.027395079
0.026114225
0.024693829
0.023227957
0.021797692
0.020446225
0.019194531
0.018054716
0.017032116
0.016125833
0.015330894
0.014640089
0.014044932
0.013536068
0.013103588
0.012737851
0.012429649
0.012169881
0.011949993
0.011762489
0.011600835
0.011459375
0.011333564
0.011219799
0.01111502
0.011016813
0.010923462
0.010833478
0.010745636
0.01065929
0.010573914
0.01048884
0.010403699
0.010318321
0.010232253
0.010145241
0.010057395
0.0099684659
0.0098783376
0.009787205
0.0096948747
0.0096014084
0.0095069939
0.0094114885
0.0093151405
0.0092178736
0.0091197395
0.009021181
0.0089220059
0.0088224686
0.0087226312
0.0086224386
0.0085221445
0.0084213134
0.0083201367
0.0082183093
0.008115618
0.0080123194
0.007907587
0.0078005024
0.0076907203
0.0075772592
0.0074597169
0.0073373505
0.0072089021
0.0070725674
0.0069259718
0.0067663634
0.0065903195
0.0063940863
0.006173279
0.0059234756
0.0056402561
0.0053200543
0.0049617363
0.0045671665
0.004142194
0.0036998386
0.0032565167
0.0028313427
0.002442073
0.0021015906
0.0018155402
0.0015820669
0.0013934858
0.0012390548
0.0011077905
0.00099062245
0.00088141375
0.00077690214
0.00067700218
0.0005819012
0.0004974955
0.00042057833
0.00037548687
0.00032495399
0.00087688796
-0.0011109946
0.028786732
0.027933422
0.026928332
0.025762421
0.024462085
0.023106274
0.021767373
0.020487465
0.019289471
0.018187924
0.01719074
0.016299545
0.015511584
0.01482152
0.014222417
0.013706224
0.013264167
0.012887434
0.012567447
0.012295716
0.012064164
0.011865576
0.011693616
0.011542763
0.011408478
0.011287109
0.011175576
0.0110714
0.010972754
0.010878097
0.01078616
0.010696174
0.010607545
0.010519594
0.010431886
0.010344188
0.010256062
0.010167224
0.010077708
0.0099872905
0.0098958311
0.009803467
0.0097100385
0.0096155708
0.0095202213
0.0094238756
0.0093267295
0.0092287342
0.0091299284
0.0090307023
0.0089309128
0.0088307547
0.0087303202
0.0086295571
0.0085286463
0.0084272544
0.0083254238
0.0082228083
0.0081193349
0.0080150172
0.0079093148
0.0078022898
0.0076932796
0.0075809328
0.0074645516
0.0073426487
0.0072140707
0.0070774118
0.006930541
0.0067707367
0.0065945278
0.0063981376
0.0061771791
0.0059272509
0.0056439634
0.0053237999
0.0049656429
0.0045713841
0.0041468224
0.003704958
0.003262081
0.002837209
0.0024480265
0.0021073951
0.0018209918
0.0015870306
0.0013979073
0.0012429475
0.0011112109
0.00099364371
0.00088410389
0.00077931787
0.00067917577
0.00058386165
0.00049922856
0.00042210804
0.0003767805
0.00032587999
0.00087508822
-0.0011036751
0.028186089
0.027397914
0.026479283
0.02541537
0.02422369
0.022970273
0.021718933
0.020509587
0.019366079
0.01830462
0.017335142
0.016461436
0.015682769
0.014995568
0.014394397
0.013872493
0.013422199
0.013035566
0.012704686
0.012421684
0.012178974
0.011969665
0.011787639
0.011627527
0.011484829
0.011355869
0.011237552
0.011127353
0.011023347
0.010923944
0.010827826
0.010734123
0.010642168
0.010551266
0.010460925
0.010370847
0.010280604
0.010189884
0.010098652
0.010006699
0.0099138654
0.0098202346
0.0097256708
0.0096301694
0.0095338577
0.0094366432
0.0093386763
0.0092399297
0.0091404328
0.0090405244
0.0089401008
0.0088393201
0.0087382754
0.0086369155
0.0085353825
0.0084333984
0.0083309539
0.0082277614
0.0081236762
0.0080185778
0.0079120813
0.0078041408
0.0076940494
0.0075814723
0.0074655933
0.0073445891
0.0072170739
0.0070809062
0.0069339524
0.0067738712
0.006597443
0.0064009413
0.0061799452
0.0059300388
0.0056468448
0.0053268902
0.0049690741
0.004575313
0.0041513527
0.0037101676
0.0032679028
0.0028434639
0.0024544511
0.002113701
0.0018269284
0.0015924289
0.0014026954
0.0012471353
0.0011148613
0.00099684203
0.00088693021
0.00078183935
0.00068143125
0.00058588484
0.00050100419
0.00042366179
0.00037807787
0.00032674635
0.00087274869
-0.001095274
0.0276182