/*--------------------------------*- C++ -*----------------------------------*\
| =========                 |                                                 |
| \\      /  F ield         | OpenFOAM: The Open Source CFD Toolbox           |
|  \\    /   O peration     | Version:  2206                                  |
|   \\  /    A nd           | Website:  www.openfoam.com                      |
|    \\/     M anipulation  |                                                 |
\*---------------------------------------------------------------------------*/
FoamFile
{
    version     2.0;
    format      ascii;
    arch        "LSB;label=32;scalar=64";
    class       surfaceScalarField;
    location    "200";
    object      phi;
}
// * * * * * * * * * * * * * * * * * * * * * * * * * * * * * * * * * * * * * //

dimensions      [0 3 -1 0 0 0 0];

oriented        oriented;

internalField   nonuniform List<scalar> 
14782
(
0.0006460454
7.5088493e-05
-0.0007211339
0.0005525621
9.3483308e-05
0.00046294561
8.9616483e-05
0.00039089045
7.2055165e-05
0.00033952562
5.1364833e-05
0.00030337432
3.6151296e-05
0.00027658298
2.6791342e-05
0.00025539153
2.1191451e-05
0.00023788217
1.7509353e-05
0.00022314944
1.4732731e-05
0.00021068175
1.2467687e-05
0.00020011277
1.0568983e-05
0.00019114206
8.9707153e-06
0.00018350874
7.6333203e-06
0.00017698937
6.519363e-06
0.00017140432
5.5850502e-06
0.00016660539
4.79893e-06
0.00016247256
4.1328355e-06
0.00015887757
3.5949912e-06
0.00015573869
3.1388739e-06
0.0001529669
2.7717874e-06
0.00015048401
2.482899e-06
0.0001482365
2.2475075e-06
0.0001461838
2.0526984e-06
0.00014429466
1.8891415e-06
0.00014254242
1.752236e-06
0.00014090923
1.6331965e-06
0.00013937654
1.5326811e-06
0.00013792722
1.4493294e-06
0.00013654993
1.3772839e-06
0.00013523777
1.3121566e-06
0.00013398403
1.2537463e-06
0.00013278244
1.2015878e-06
0.00013162758
1.1548568e-06
0.00013051487
1.1127114e-06
0.00012943865
1.0762222e-06
0.00012839386
1.0447926e-06
0.0001273784
1.0154601e-06
0.0001263894
9.8899649e-07
0.00012542404
9.6536204e-07
0.00012448015
9.4389267e-07
0.00012355553
9.2461932e-07
0.00012264899
9.0653835e-07
0.00012175939
8.8959399e-07
0.00012088537
8.7402793e-07
0.00012002615
8.5922175e-07
0.00011918048
8.456654e-07
0.00011834734
8.3313976e-07
0.00011752627
8.2106799e-07
0.00011671637
8.099063e-07
0.00011591703
7.9934009e-07
0.00011512724
7.8978571e-07
0.00011434537
7.8187192e-07
0.00011356954
7.7582433e-07
0.00011279719
7.7235072e-07
0.00011202581
7.7138133e-07
0.0001112527
7.7310839e-07
0.00011047536
7.7734585e-07
0.00010969175
7.836027e-07
0.00010890001
7.9174258e-07
0.00010809849
8.0151731e-07
0.00010728525
8.1324348e-07
0.00010645814
8.2711316e-07
0.0001056145
8.4363796e-07
0.00010475123
8.6327173e-07
0.0001038648
8.8642504e-07
0.00010295136
9.1344366e-07
0.00010200683
9.4452984e-07
0.00010102707
9.7976119e-07
0.00010000819
1.0188828e-06
9.8946756e-05
1.0614303e-06
9.7840298e-05
1.1064582e-06
9.6687573e-05
1.1527242e-06
9.5489045e-05
1.198528e-06
9.4247128e-05
1.2419178e-06
9.2966557e-05
1.2805705e-06
9.1655245e-05
1.3113123e-06
9.0324242e-05
1.3310029e-06
8.8987737e-05
1.3365048e-06
8.7664223e-05
1.3235145e-06
8.6374149e-05
1.290073e-06
8.5137693e-05
1.2364567e-06
8.3971603e-05
1.1660901e-06
8.2886386e-05
1.085217e-06
8.1884812e-05
1.0015735e-06
8.0962268e-05
9.225441e-07
8.0108726e-05
8.5354222e-07
7.9311502e-05
7.9722402e-07
7.8557852e-05
7.5364951e-07
7.7836822e-05
7.2103021e-07
7.7139991e-05
6.968312e-07
7.6461438e-05
6.7855291e-07
7.5797178e-05
6.6425982e-07
7.5144204e-05
6.5297396e-07
7.4500193e-05
6.4401045e-07
7.3861867e-05
6.3832636e-07
7.3224194e-05
6.376732e-07
7.2558891e-05
6.653029e-07
7.2073794e-05
4.8509683e-07
9.3612839e-07
0.00078797956
8.1148907e-05
-0.00079403997
0.00076941413
0.00011204874
0.00073449896
0.00012453166
0.00068706888
0.00011948524
0.00063477372
0.00010365999
0.00058499481
8.5930204e-05
0.00054119059
7.0595565e-05
0.0005039391
5.8442936e-05
0.00047258016
4.886829e-05
0.00044614037
4.1172527e-05
0.00042370148
3.4906578e-05
0.00040453216
2.9738302e-05
0.00038807894
2.542393e-05
0.00037390716
2.1805103e-05
0.0003616669
1.875962e-05
0.00035107027
1.618168e-05
0.00034186242
1.4006787e-05
0.00033381714
1.217811e-05
0.0003267429
1.0669231e-05
0.00032048295
9.3988258e-06
0.00031489796
8.356776e-06
0.00030987193
7.5089317e-06
0.00030531028
6.8091575e-06
0.00030114014
6.2228372e-06
0.00029730099
5.7282942e-06
0.00029374471
5.3085201e-06
0.00029043328
4.9446231e-06
0.00028733169
4.6342711e-06
0.00028441023
4.3707837e-06
0.00028164648
4.1410392e-06
0.00027902389
3.9347478e-06
0.00027652743
3.7502038e-06
0.00027414373
3.5852893e-06
0.00027186098
3.4376048e-06
0.00026966968
3.3040088e-06
0.00026755843
3.1874727e-06
0.00026551752
3.0857082e-06
0.00026354203
2.9909453e-06
0.00026162524
2.9057908e-06
0.00025976126
2.8293418e-06
0.00025794548
2.7596699e-06
0.00025617353
2.6965715e-06
0.00025444218
2.6378821e-06
0.00025274854
2.583234e-06
0.00025108974
2.532831e-06
0.00024946356
2.4854015e-06
0.00024786737
2.441861e-06
0.00024629894
2.401562e-06
0.00024475681
2.3632029e-06
0.00024323917
2.3275473e-06
0.0002417445
2.2940029e-06
0.00024027083
2.2634604e-06
0.00023881533
2.2373699e-06
0.00023737465
2.2165076e-06
0.00023594447
2.2025339e-06
0.00023452027
2.1955746e-06
0.00023309722
2.1961594e-06
0.00023167067
2.2038984e-06
0.00023023662
2.2176507e-06
0.00022879139
2.236969e-06
0.0002273316
2.2613081e-06
0.00022585351
2.2913339e-06
0.00022435303
2.3275932e-06
0.0002228253
2.3713715e-06
0.00022126466
2.4239155e-06
0.00021966471
2.4863735e-06
0.00021801839
2.5597598e-06
0.00021631815
2.6447685e-06
0.00021455617
2.7417406e-06
0.00021272483
2.8502223e-06
0.00021081714
2.9691253e-06
0.00020882742
3.0961768e-06
0.000206752
3.2281438e-06
0.00020458985
3.3606827e-06
0.00020234341
3.4883575e-06
0.00020001952
3.6044609e-06
0.00019763073
3.7000981e-06
0.00019519662
3.765113e-06
0.00019274336
3.7897659e-06
0.00019030594
3.7609294e-06
0.00018792382
3.6721955e-06
0.00018563617
3.5241052e-06
0.00018347568
3.3265785e-06
0.000181463
3.0979031e-06
0.00017960388
2.8606954e-06
0.00017788994
2.6364834e-06
0.0001763025
2.4409788e-06
0.00017481786
2.2818605e-06
0.00017341227
2.1592468e-06
0.00017206535
2.067944e-06
0.00017076153
2.0006561e-06
0.00016948999
1.9500884e-06
0.00016824326
1.9109884e-06
0.00016701636
1.8798743e-06
0.00016580386
1.8565094e-06
0.00016460251
1.8396822e-06
0.00016339624
1.8439425e-06
0.00016219282
1.8687262e-06
0.00016103061
1.6473003e-06
2.3068284e-06
0.00082899604
7.7738853e-05
-0.00082558598
0.00083334033
0.00010770444
0.00083442902
0.00012344296
0.00082761923
0.00012629503
0.00080936639
0.00012191284
0.00078167839
0.0001136182
0.00074886115
0.00010341281
0.00071450854
9.2795542e-05
0.00068089099
8.2485843e-05
0.00064931927
7.2744248e-05
0.00062043094
6.3794906e-05
0.00059443892
5.5730316e-05
0.00057128904
4.8573814e-05
0.0005507678
4.2326343e-05
0.00053259896
3.6928464e-05
0.00051650395
3.2276691e-05
0.00050221576
2.829497e-05
0.00048949149
2.4902387e-05
0.00047812462
2.2036101e-05
0.00046792762
1.9595823e-05
0.00045874018
1.7544212e-05
0.00045042044
1.5828676e-05
0.0004428469
1.4382697e-05
0.00043591733
1.3152408e-05
0.00042954301
1.2102612e-05
0.00042364806
1.1203473e-05
0.00041817004
1.0422645e-05
0.00041305839
9.7459125e-06
0.00040826928
9.1599018e-06
0.00040376587
8.6444428e-06
0.00039951697
8.1836516e-06
0.00039549515
7.7720248e-06
0.00039167665
7.4037839e-06
0.00038804112
7.0731358e-06
0.00038457134
6.7737921e-06
0.00038124866
6.5101566e-06
0.00037805809
6.2762683e-06
0.00037498921
6.0598288e-06
0.00037202976
5.8652425e-06
0.00036917004
5.6890626e-06
0.0003664018
5.527909e-06
0.00036371722
5.3811471e-06
0.00036110979
5.2453149e-06
0.00035857366
5.1193682e-06
0.0003561034
5.0030843e-06
0.0003536944
4.8944066e-06
0.00035134191
4.7943506e-06
0.00034904186
4.7016094e-06
0.00034679099
4.6140731e-06
0.00034458596
4.5325776e-06
0.00034242379
4.4561758e-06
0.0003403012
4.3860496e-06
0.00033821423
4.3243395e-06
0.00033615834
4.2723938e-06
0.00033412801
4.232867e-06
0.00033211724
4.206342e-06
0.00033011955
4.1938559e-06
0.00032812851
4.1949355e-06
0.00032613828
4.2078816e-06
0.00032414332
4.2319244e-06
0.00032213842
4.2662066e-06
0.00032011812
4.311637e-06
0.00031807662
4.3690938e-06
0.00031600735
4.4406447e-06
0.00031390284
4.5284221e-06
0.00031175475
4.6344603e-06
0.00030955387
4.7606477e-06
0.00030729023
4.9084046e-06
0.00030495341
5.0785605e-06
0.00030253296
5.2706756e-06
0.00030001891
5.4831671e-06
0.00029740259
5.7124989e-06
0.0002946774
5.953337e-06
0.00029183971
6.1983767e-06
0.00028888997
6.4380978e-06
0.00028583446
6.6599634e-06
0.00028268735
6.84721e-06
0.00027947264
6.9798238e-06
0.00027622525
7.0371526e-06
0.00027299283
6.9933509e-06
0.0002698303
6.8347281e-06
0.00026679261
6.5617939e-06
0.00026392562
6.1935646e-06
0.00026125815
5.7653771e-06
0.00025879804
5.3208041e-06
0.00025653345
4.9010756e-06
0.00025443838
4.5360463e-06
0.00025248017
4.2400675e-06
0.00025062636
4.013056e-06
0.0002488494
3.8449123e-06
0.00024712836
3.7216893e-06
0.00024544901
3.6294433e-06
0.00024380139
3.5586101e-06
0.00024217936
3.5019048e-06
0.00024057492
3.4609458e-06
0.00023898575
3.4288484e-06
0.00023738572
3.4439786e-06
0.00023582171
3.4327289e-06
0.00023413406
3.3349545e-06
3.8749863e-06
0.0008589561
7.4259261e-05
-0.00085547651
0.00086511512
0.00010154542
0.00087113388
0.0001174242
0.00087534444
0.00012208448
0.0008767384
0.00012051887
0.00087393055
0.00011642606
0.0008656158
0.00011172756
0.00085143935
0.00010697199
0.00083234684
0.00010157835
0.00081000137
9.5089715e-05
0.00078580964
8.7986636e-05
0.00076090217
8.0637792e-05
0.00073619796
7.3278025e-05
0.00071238436
6.6139939e-05
0.00068992252
5.9390309e-05
0.0006690696
5.3129605e-05
0.00064990838
4.7456194e-05
0.00063240124
4.2409524e-05
0.00061644705
3.7990296e-05
0.00060190916
3.4133714e-05
0.0005886518
3.0801573e-05
0.00057654157
2.7938902e-05
0.00056545448
2.5469788e-05
0.00055527602
2.3330868e-05
0.00054590054
2.1478094e-05
0.00053723232
1.987169e-05
0.00052918826
1.8466702e-05
0.0005217
1.7234176e-05
0.00051470675
1.6153153e-05
0.00050815488
1.5196314e-05
0.00050199747
1.4341055e-05
0.0004961931
1.3576403e-05
0.00049070519
1.289169e-05
0.00048550274
1.2275588e-05
0.00048055865
1.1717884e-05
0.0004758487
1.1220102e-05
0.00047135133
1.0773638e-05
0.00046704712
1.0364038e-05
0.00046291891
9.993455e-06
0.00045895158
9.6563928e-06
0.00045513187
9.3476137e-06
0.00045144745
9.0655745e-06
0.00044788754
8.8052216e-06
0.00044444249
8.5644205e-06
0.00044110344
8.3421277e-06
0.0004378627
8.1351531e-06
0.00043471286
7.9441921e-06
0.00043164738
7.7670817e-06
0.00042866071
7.6007427e-06
0.00042574743
7.4458633e-06
0.0004229026
7.3010002e-06
0.00042012127
7.1673809e-06
0.00041739804
7.0475719e-06
0.00041472713
6.9433027e-06
0.00041210183
6.8581694e-06
0.00040951479
6.7933813e-06
0.00040695806
6.7505836e-06
0.00040442365
6.7293454e-06
0.00040190393
6.7276014e-06
0.00039939148
6.7443811e-06
0.00039687914
6.7785417e-06
0.00039435965
6.8311229e-06
0.00039182549
6.9032543e-06
0.00038926844
6.997702e-06
0.0003866794
7.1174597e-06
0.00038404835
7.2655104e-06
0.00038136424
7.4447542e-06
0.00037861513
7.657517e-06
0.00037578837
7.9053171e-06
0.0003728711
8.1879462e-06
0.00036985077
8.503505e-06
0.00036671594
8.8473249e-06
0.00036345732
9.2119589e-06
0.00036006878
9.5869145e-06
0.00035654889
9.9579924e-06
0.00035290334
1.0305504e-05
0.00034914772
1.0602834e-05
0.00034531011
1.0817439e-05
0.00034143308
1.0914182e-05
0.00033757487
1.0851553e-05
0.0003338028
1.0606806e-05
0.00033018376
1.0180833e-05
0.00032677291
9.6044106e-06
0.00032360408
8.9342096e-06
0.00032068537
8.2395106e-06
0.00031800118
7.5852719e-06
0.0003155192
7.0180173e-06
0.00031319967
6.5595991e-06
0.00031100353
6.2091983e-06
0.00030889796
5.9504815e-06
0.0003068583
5.7613485e-06
0.0003048679
5.6198432e-06
0.00030291515
5.5113619e-06
0.00030099308
5.423977e-06
0.00029909194
5.3620813e-06
0.00029720992
5.3108671e-06
0.00029531393
5.3399721e-06
0.00029347659
5.270066e-06
0.0002913959
5.4156486e-06
5.5913945e-06
0.00088887492
7.138897e-05
-0.00088600463
0.00089457759
9.5842747e-05
0.00090086704
0.00011113476
0.00090617693
0.00011677459
0.00090993465
0.00011676115
0.00091225113
0.00011410958
0.00091322602
0.00011075267
0.00091266004
0.00010753797
0.00090984173
0.00010439667
0.00090383705
0.00010109439
0.00089425827
9.7565418e-05
0.00088126922
9.3626848e-05
0.00086549688
8.9050357e-05
0.00084764902
8.3987798e-05
0.00082837266
7.866667e-05
0.00080831088
7.3191386e-05
0.00078807399
6.7693088e-05
0.00076818553
6.2297986e-05
0.00074904999
5.712583e-05
0.00073092683
5.2256878e-05
0.00071394626
4.7782137e-05
0.00069813152
4.3753649e-05
0.00068344414
4.0157165e-05
0.00066981705
3.6957957e-05
0.00065717167
3.4123478e-05
0.00064542707
3.161629e-05
0.00063450279
2.939098e-05
0.00062432277
2.7414196e-05
0.00061481501
2.5660913e-05
0.00060591438
2.4096947e-05
0.00059756276
2.2692668e-05
0.00058970712
2.143205e-05
0.00058229941
2.0299395e-05
0.00057529783
1.9277168e-05
0.0005686645
1.8351216e-05
0.00056236762
1.7516986e-05
0.00055637832
1.6762935e-05
0.00055066833
1.6074032e-05
0.00054521403
1.544775e-05
0.00053999427
1.487615e-05
0.00053498993
1.4351952e-05
0.00053018318
1.3872326e-05
0.00052555829
1.3430114e-05
0.00052110107
1.3021639e-05
0.00051679832
1.2644876e-05
0.00051263865
1.2294829e-05
0.00050861171
1.1971129e-05
0.00050470811
1.1670678e-05
0.00050091956
1.1389297e-05
0.00049723799
1.1127436e-05
0.00049365606
1.0882928e-05
0.00049016673
1.0656709e-05
0.00048676284
1.0451465e-05
0.00048343707
1.0269066e-05
0.0004801813
1.0113945e-05
0.00047698673
9.9879527e-06
0.00047384399
9.8933185e-06
0.00047074357
9.8297704e-06
0.00046767602
9.7951467e-06
0.00046463192
9.7884851e-06
0.00046160206
9.8084008e-06
0.00045857721
9.8559706e-06
0.00045554796
9.9325024e-06
0.00045250433
1.0041338e-05
0.00044943554
1.0186252e-05
0.00044632983
1.0371213e-05
0.00044317435
1.0600234e-05
0.00043995518
1.0876692e-05
0.00043665752
1.1202972e-05
0.00043326617
1.1579302e-05
0.00042976603
1.200364e-05
0.00042614306
1.24703e-05
0.00042238533
1.2969684e-05
0.00041848443
1.3487813e-05
0.00041443735
1.4005075e-05
0.00041024961
1.4493244e-05
0.00040593859
1.4913851e-05
0.00040153679
1.5219241e-05
0.00039709416
1.5356817e-05
0.0003926785
1.5267216e-05
0.00038836755
1.4917753e-05
0.00038423767
1.4310712e-05
0.00038035071
1.3491374e-05
0.00037674339
1.2541526e-05
0.00037342291
1.1559989e-05
0.00037036974
1.0638439e-05
0.00036754602
9.8417439e-06
0.00036490603
9.1995897e-06
0.00036240546
8.7097646e-06
0.00036000741
8.3485316e-06
0.00035768434
8.0844159e-06
0.00035541777
7.8864119e-06
0.00035319483
7.7343059e-06
0.00035100781
7.6109919e-06
0.00034884573
7.5241694e-06
0.00034670679
7.4498018e-06
0.00034455307
7.4936938e-06
0.00034247373
7.3494108e-06
0.00034006283
7.8265454e-06
7.4578647e-06
0.00091995885
6.8936914e-05
-0.0009175068
0.00092499366
9.0807937e-05
0.00093072551
0.00010540291
0.00093582685
0.00011167325
0.00093990588
0.00011268212
0.00094289067
0.00011112479
0.00094496686
0.00010867648
0.00094641051
0.00010609432
0.00094731738
0.0001034898
0.00094756365
0.00010084812
0.00094690745
9.8221612e-05
0.00094493453
9.559977e-05
0.00094104365
9.2941242e-05
0.00093479708
9.0234362e-05
0.0009260083
8.7455451e-05
0.00091479553
8.4404154e-05
0.00090147772
8.1010902e-05
0.00088638166
7.7394045e-05
0.00086990815
7.3599339e-05
0.00085254025
6.962478e-05
0.00083479505
6.5527333e-05
0.00081714187
6.1406831e-05
0.00079995628
5.7342756e-05
0.00078348964
5.3424598e-05
0.00076787201
4.9741106e-05
0.00075314455
4.6343757e-05
0.00073929651
4.3239019e-05
0.00072629224
4.0418467e-05
0.00071408341
3.7869742e-05
0.00070261754
3.5562811e-05
0.00069184043
3.346978e-05
0.00068169735
3.1575132e-05
0.00067213611
2.9860632e-05
0.0006631089
2.8304384e-05
0.00065457028
2.6889826e-05
0.00064647966
2.5607612e-05
0.00063880106
2.4441534e-05
0.00063149974
2.3375355e-05
0.00062454445
2.2403032e-05
0.0006179077
2.1512903e-05
0.00061156438
2.0695274e-05
0.00060549099
1.9945711e-05
0.00059966652
1.9254586e-05
0.00059407191
1.8616248e-05
0.00058868934
1.802745e-05
0.00058350307
1.74811e-05
0.00057849897
1.6975225e-05
0.00057366417
1.6505482e-05
0.0005689871
1.6066369e-05
0.00056445667
1.5657865e-05
0.00056006285
1.5276748e-05
0.0005557962
1.4923355e-05
0.0005516474
1.4600263e-05
0.00054760725
1.4309224e-05
0.00054366583
1.405536e-05
0.00053981282
1.3840962e-05
0.00053603748
1.3668663e-05
0.00053232867
1.3538578e-05
0.00052867502
1.3448792e-05
0.00052506501
1.3398498e-05
0.00052148731
1.3386099e-05
0.0005179306
1.3412677e-05
0.00051438343
1.3479679e-05
0.00051083386
1.3590908e-05
0.00050726929
1.3750823e-05
0.00050367611
1.3964385e-05
0.00050003956
1.4236786e-05
0.00049634369
1.4572561e-05
0.00049257154
1.4975126e-05
0.00048870552
1.5445324e-05
0.00048472802
1.5981141e-05
0.00048062236
1.6575961e-05
0.00047637408
1.721796e-05
0.00047197259
1.7889307e-05
0.00046741351
1.856415e-05
0.00046270245
1.9204304e-05
0.00045785883
1.9757471e-05
0.00045291961
2.0158462e-05
0.00044794168
2.0334744e-05
0.00044300143
2.0207471e-05
0.00043818551
1.9733675e-05
0.00043357792
1.8918298e-05
0.00042924556
1.7823733e-05
0.00042522693
1.6560159e-05
0.00042152787
1.5259051e-05
0.00041812519
1.4041115e-05
0.00041497618
1.2990756e-05
0.00041203014
1.2145627e-05
0.0004092384
1.1501504e-05
0.00040656067
1.1026264e-05
0.00040396702
1.0678067e-05
0.00040143739
1.0416039e-05
0.00039895781
1.0213884e-05
0.00039651986
1.0048945e-05
0.0003941115
9.9325292e-06
0.00039173072
9.8305845e-06
0.00038933592
9.8884866e-06
0.0003870279
9.6574391e-06
0.00038431679
1.0537651e-05
9.4795492e-06
0.00095217461
6.6776998e-05
-0.00095001469
0.00095663579
8.6346758e-05
0.00096188382
0.00010015488
0.00096667329
0.00010688378
0.00097057642
0.00010877899
0.00097358828
0.00010811293
0.0009759028
0.00010636196
0.00097772163
0.00010427549
0.00097913027
0.00010208116
0.00098016955
9.9808839e-05
0.00098089853
9.749263e-05
0.0009813171
9.5181201e-05
0.00098133018
9.2928163e-05
0.00098077074
9.0793805e-05
0.00097946109
8.8765101e-05
0.0009770269
8.6838341e-05
0.00097301323
8.5024571e-05
0.00096713093
8.3276347e-05
0.00095920831
8.1521953e-05
0.00094925264
7.9580451e-05
0.00093739179
7.7388187e-05
0.00092382963
7.4968988e-05
0.00090889655
7.2275839e-05
0.00089304069
6.9280453e-05
0.00087675023
6.6031574e-05
0.00086046996
6.2624027e-05
0.00084454481
5.9164166e-05
0.00082919513
5.5768148e-05
0.00081453002
5.2534854e-05
0.0008005874
4.9505426e-05
0.00078736702
4.669016e-05
0.00077484884
4.4093316e-05
0.00076300236
4.1707105e-05
0.00075179118
3.9515572e-05
0.00074117447
3.7506531e-05
0.0007311111
3.5670983e-05
0.00072156267
3.3989968e-05
0.00071249158
3.2446447e-05
0.00070386178
3.1032829e-05
0.00069564049
2.9734192e-05
0.0006877975
2.8538265e-05
0.00068030435
2.743886e-05
0.00067313509
2.6423843e-05
0.00066626592
2.5485419e-05
0.00065967457
2.4618801e-05
0.00065334081
2.3814856e-05
0.00064724609
2.3069951e-05
0.00064137349
2.237808e-05
0.00063570775
2.1732109e-05
0.00063023443
2.1131189e-05
0.00062494043
2.0570742e-05
0.00061981357
2.0050215e-05
0.0006148421
1.9571734e-05
0.00061001468
1.9136647e-05
0.00060531954
1.8750495e-05
0.00060074467
1.8415836e-05
0.00059627764
1.8135693e-05
0.00059190555
1.7910673e-05
0.00058761505
1.7739286e-05
0.00058339253
1.7621024e-05
0.00057922448
1.7554143e-05
0.00057509738
1.7539774e-05
0.00057099753
1.7579534e-05
0.0005669109
1.7677537e-05
0.00056282291
1.7838812e-05
0.00055871795
1.8069348e-05
0.00055457921
1.837552e-05
0.00055038867
1.8763105e-05
0.00054612712
1.9236679e-05
0.00054177457
1.9797873e-05
0.00053731086
2.0444847e-05
0.00053271669
2.1170129e-05
0.00052797508
2.195957e-05
0.00052307331
2.2791084e-05
0.00051800573
2.3631722e-05
0.00051277808
2.4431955e-05
0.00050741178
2.5123775e-05
0.00050194796
2.5622278e-05
0.00049644976
2.5832943e-05
0.00049100104
2.5656192e-05
0.00048569602
2.5038695e-05
0.00048062502
2.3989298e-05
0.00047585897
2.2589781e-05
0.00047143769
2.0981437e-05
0.00046736581
1.9330937e-05
0.00046361705
1.7789876e-05
0.00046014464
1.6463162e-05
0.00045689372
1.5396551e-05
0.00045381188
1.4583338e-05
0.0004508559
1.3982253e-05
0.00044799367
1.3540294e-05
0.00044520365
1.3206062e-05
0.00044247077
1.2946761e-05
0.00043978582
1.2733893e-05
0.00043713583
1.2582521e-05
0.00043451834
1.2448078e-05
0.0004318888
1.251802e-05
0.00042935699
1.2189251e-05
0.00042635941
1.3535231e-05
1.1661649e-05
0.00098549448
6.4817309e-05
-0.00098353479
0.00098948541
8.2355826e-05
0.00099429788
9.5342415e-05
0.00099882579
0.00010235586
0.001002607
0.00010499774
0.0010055895
0.00010513052
0.0010079216
0.00010402979
0.001009784
0.00010241308
0.0010112955
0.00010056964
0.0010125224
9.8581988e-05
0.001013499
9.6516076e-05
0.0010142424
9.4437802e-05
0.0010147671
9.2403418e-05
0.0010151356
9.0425306e-05
0.0010153002
8.8600487e-05
0.0010151762
8.6962343e-05
0.0010147335
8.5467273e-05
0.0010138359
8.4173959e-05
0.0010122752
8.3082613e-05
0.0010097116
8.2144065e-05
0.0010057888
8.131102e-05
0.0010002011
8.0556685e-05
0.00099275712
7.9719804e-05
0.00098341165
7.8625931e-05
0.00097221122
7.7231997e-05
0.00095934339
7.5491856e-05
0.00094515885
7.3348713e-05
0.00093012405
7.0802948e-05
0.00091471963
6.7939269e-05
0.000899358
6.4867062e-05
0.00088433104
6.1717112e-05
0.00086980792
5.8616439e-05
0.0008558692
5.5645828e-05
0.00084254522
5.2839551e-05
0.00082983919
5.0212556e-05
0.00081773843
4.7771752e-05
0.00080622115
4.5507247e-05
0.00079525904
4.3408552e-05
0.0007848204
4.1471471e-05
0.00077487365
3.9680943e-05
0.00076538767
3.8024248e-05
0.0007563318
3.6494726e-05
0.00074767724
3.5078407e-05
0.00073939675
3.3765908e-05
0.00073146446
3.2551089e-05
0.00072385642
3.1422898e-05
0.00071655011
3.0376261e-05
0.00070952476
2.9403426e-05
0.00070276138
2.8495493e-05
0.00069624197
2.7650599e-05
0.0006899501
2.6862604e-05
0.00068387054
2.6129779e-05
0.0006779889
2.5453377e-05
0.00067229154
2.4834e-05
0.00066676477
2.4277266e-05
0.00066139475
2.3785855e-05
0.00065616717
2.3363276e-05
0.00065106722
2.3010625e-05
0.00064607963
2.272687e-05
0.00064118869
2.2511972e-05
0.00063637863
2.2364201e-05
0.0006316336
2.2284806e-05
0.00062693757
2.2275556e-05
0.00062227429
2.2340821e-05
0.00061762697
2.2486132e-05
0.00061297788
2.2718444e-05
0.00060830808
2.3045314e-05
0.00060359738
2.3473809e-05
0.00059882428
2.4009781e-05
0.00059396636
2.4655792e-05
0.00058900089
2.5410316e-05
0.00058390593
2.6265085e-05
0.00057866198
2.7203524e-05
0.00057325417
2.8198895e-05
0.00056767555
2.921034e-05
0.00056193181
3.0175691e-05
0.00055604605
3.1009534e-05
0.00055006299
3.1605339e-05
0.00054405102
3.1844913e-05
0.00053810028
3.1606937e-05
0.00053231129
3.0827682e-05
0.00052677969
2.95209e-05
0.00052157991
2.7789557e-05
0.00051675313
2.5808217e-05
0.00051230328
2.3780791e-05
0.00050820183
2.189133e-05
0.00050439882
2.0266166e-05
0.00050083594
1.8959427e-05
0.00049745759
1.7961697e-05
0.0004942178
1.7222036e-05
0.00049108242
1.6675674e-05
0.00048802835
1.6260139e-05
0.00048503935
1.5935756e-05
0.00048210532
1.5667921e-05
0.00047921235
1.5475497e-05
0.00047635737
1.5303054e-05
0.00047349331
1.5382078e-05
0.00047073748
1.4945081e-05
0.00046745803
1.6814681e-05
1.4009989e-05
0.0010198895
6.3004673e-05
-0.0010180769
0.0010234912
7.8754166e-05
0.001027912
9.0921609e-05
0.0010321868
9.8081085e-05
0.0010358629
0.00010132164
0.0010388431
0.00010215026
0.001041215
0.00010165795
0.00104312
0.00010050805
0.0010446705
9.9019115e-05
0.0010459368
9.7315714e-05
0.0010469675
9.5485374e-05
0.0010477979
9.3607346e-05
0.0010484569
9.1744444e-05
0.0010489545
8.9927708e-05
0.0010493141
8.824086e-05
0.0010495567
8.6719806e-05
0.0010496842
8.5339743e-05
0.0010496965
8.4161657e-05
0.0010495665
8.3212681e-05
0.0010492399
8.2470599e-05
0.0010486248
8.1926172e-05
0.0010476029
8.1578516e-05
0.0010459394
8.1383352e-05
0.0010432861
8.1279183e-05
0.0010393044
8.1213763e-05
0.0010336804
8.1115782e-05
0.0010262158
8.0813396e-05
0.0010168529
8.0165831e-05
0.0010056587
7.9133398e-05
0.00099288446
7.7641347e-05
0.00097895003
7.5651542e-05
0.00096434737
7.32191e-05
0.00094953191
7.0461292e-05
0.00093484963
6.7521825e-05
0.00092051737
6.4544822e-05
0.00090665
6.1639123e-05
0.00089330268
5.8854564e-05
0.00088049775
5.6213485e-05
0.0008682375
5.3731713e-05
0.00085651188
5.1406567e-05
0.00084530238
4.9233748e-05
0.0008345856
4.7211508e-05
0.00082433664
4.5327368e-05
0.00081452964
4.3572908e-05
0.00080513843
4.1942292e-05
0.0007961378
4.0423532e-05
0.0007875031
3.9010963e-05
0.00077921094
3.7695584e-05
0.00077123941
3.6467025e-05
0.00076356744
3.532257e-05
0.00075617555
3.4254492e-05
0.00074904554
3.3259791e-05
0.00074216032
3.2338596e-05
0.00073550388
3.149044e-05
0.00072906044
3.07207e-05
0.00072281437
3.0031927e-05
0.00071674957
2.9428083e-05
0.00071084939
2.8910799e-05
0.00070509668
2.8479584e-05
0.00069947362
2.8135035e-05
0.00069396219
2.7875628e-05
0.00068854415
2.7702845e-05
0.00068320115
2.7618559e-05
0.00067791453
2.7627436e-05
0.00067266517
2.7735494e-05
0.00066743309
2.7950526e-05
0.00066219716
2.8281242e-05
0.00065693493
2.8736034e-05
0.0006516226
2.9322112e-05
0.0006462353
3.0043097e-05
0.00064074771
3.0897902e-05
0.00063513526
3.1877532e-05
0.00062937589
3.2962903e-05
0.00062345251
3.4122273e-05
0.00061735667
3.5306173e-05
0.0006110937
3.6438668e-05
0.00060468776
3.7415468e-05
0.00059818628
3.8106821e-05
0.00059166171
3.8369482e-05
0.00058520915
3.8059501e-05
0.00057893424
3.7102585e-05
0.00057293715
3.5517995e-05
0.00056729561
3.3431098e-05
0.00056205253
3.1051292e-05
0.00055721199
2.8621333e-05
0.0005527442
2.6359121e-05
0.00054859697
2.4413393e-05
0.00054470925
2.2847155e-05
0.0005410226
2.1648346e-05
0.00053748854
2.0756094e-05
0.00053407078
2.0093435e-05
0.00053074454
1.9586375e-05
0.00052749231
1.9187986e-05
0.00052430293
1.8857303e-05
0.00052116149
1.8616938e-05
0.0005180642
1.8400339e-05
0.00051496167
1.8484608e-05
0.00051197798
1.7928778e-05
0.00050841544
2.0377214e-05
1.6531348e-05
0.0010553734
6.1309817e-05
-0.0010536785
0.0010586416
7.5485912e-05
0.0010627104
8.6852852e-05
0.0010667411
9.4050397e-05
0.0010703001
9.7762668e-05
0.0010732651
9.9185203e-05
0.0010756781
9.9245011e-05
0.0010776423
9.8543857e-05
0.0010792512
9.7410182e-05
0.0010805689
9.5997984e-05
0.0010816439
9.4410433e-05
0.0010825153
9.2735903e-05
0.0010832154
9.1044347e-05
0.0010837641
8.937899e-05
0.0010841901
8.7814901e-05
0.0010845153
8.6394626e-05
0.0010847441
8.5110899e-05
0.0010848939
8.4011883e-05
0.0010849859
8.3120664e-05
0.0010850188
8.2437641e-05
0.0010849815
8.1963523e-05
0.0010848659
8.1694131e-05
0.0010846356
8.161358e-05
0.0010842233
8.1691564e-05
0.0010835275
8.1909544e-05
0.0010823957
8.2247551e-05
0.0010805486
8.2660473e-05
0.0010776235
8.3090979e-05
0.0010732586
8.3498329e-05
0.0010671579
8.3742013e-05
0.0010591613
8.3648112e-05
0.0010492453
8.3135154e-05
0.0010375799
8.2126669e-05
0.0010245382
8.0563469e-05
0.0010106109
7.8472189e-05
0.00099627951
7.5970494e-05
0.0009819262
7.3207871e-05
0.00096779984
7.0339851e-05
0.0009540397
6.7491853e-05
0.00094071945
6.4726813e-05
0.00092787594
6.2077265e-05
0.00091552306
5.956438e-05
0.00090366023
5.7190205e-05
0.00089227676
5.4956378e-05
0.000881356
5.2863044e-05
0.00087087855
5.0900984e-05
0.00086082274
4.9066776e-05
0.00085116625
4.7352078e-05
0.0008418869
4.5746368e-05
0.00083296244
4.4247036e-05
0.00082437165
4.2845275e-05
0.00081609428
4.153716e-05
0.00080811109
4.0321788e-05
0.00080040402
3.9197508e-05
0.00079295544
3.816928e-05
0.00078574808
3.7239289e-05
0.00077876431
3.6411858e-05
0.0007719859
3.5689203e-05
0.00076539398
3.5071505e-05
0.00075896882
3.4560192e-05
0.00075269028
3.4154169e-05
0.0007465378
3.385533e-05
0.00074049064
3.3665714e-05
0.00073452777
3.359031e-05
0.00072862765
3.3635612e-05
0.000722768
3.3810178e-05
0.00071692542
3.4123822e-05
0.00071107519
3.4586262e-05
0.00070519118
3.5206126e-05
0.00069924608
3.5988194e-05
0.00069321204
3.6931943e-05
0.00068706184
3.8027734e-05
0.0006807708
3.9253937e-05
0.00067431952
4.0573553e-05
0.00066769775
4.1927943e-05
0.00066090991
4.3226514e-05
0.00065398046
4.4344914e-05
0.0006469584
4.5128884e-05
0.00063991885
4.5409026e-05
0.00063296046
4.5017889e-05
0.00062619284
4.3870209e-05
0.00061971999
4.199084e-05
0.00061362299
3.9528105e-05
0.0006079471
3.672718e-05
0.00060269757
3.3870868e-05
0.00059784451
3.121218e-05
0.00059333452
2.8923385e-05
0.0005891045
2.7077172e-05
0.00058509361
2.5659239e-05
0.00058125089
2.4598808e-05
0.00057753785
2.3806474e-05
0.00057392787
2.3196358e-05
0.00057040194
2.2713918e-05
0.00056694769
2.2311553e-05
0.00056354913
2.2015498e-05
0.00056020161
2.1747858e-05
0.00055685352
2.1832693e-05
0.00055363531
2.1146995e-05
0.00054978434
2.4228175e-05
1.9233586e-05
0.0010919815
5.9713401e-05
-0.0010903851
0.0010949595
7.2507855e-05
0.0010987084
8.310402e-05
0.001102506
9.0252743e-05
0.0011059406
9.4328095e-05
0.0011088723
9.6253463e-05
0.0011113094
9.6807983e-05
0.001113324
9.6529236e-05
0.0011149919
9.5742216e-05
0.0011163694
9.4620516e-05
0.0011175003
9.3279494e-05
0.0011184221
9.1814157e-05
0.0011191662
9.0300207e-05
0.0011197561
8.8789163e-05
0.0011202201
8.7350876e-05
0.0011205824
8.603227e-05
0.0011208549
8.4838479e-05
0.001121056
8.3810728e-05
0.0011212001
8.2976539e-05
0.0011212979
8.2339864e-05
0.0011213605
8.1900941e-05
0.001121395
8.1659634e-05
0.0011214014
8.1607187e-05
0.0011213716
8.172138e-05
0.0011212912
8.1989905e-05
0.0011211354
8.2403389e-05
0.0011208561
8.2939729e-05
0.001120369
8.3578135e-05
0.0011195578
8.4309497e-05
0.0011181982
8.5101612e-05
0.0011159441
8.590217e-05
0.0011124135
8.6665826e-05
0.001107244
8.7296125e-05
0.0011001895
8.7618e-05
0.0010911661
8.7495525e-05
0.001080288
8.6848686e-05
0.0010678959
8.5599937e-05
0.0010544788
8.3756942e-05
0.0010405341
8.1436543e-05
0.0010264628
7.8798091e-05
0.0010125295
7.6010615e-05
0.00099888637
7.3207483e-05
0.00098561875
7.0457829e-05
0.0009727732
6.7801921e-05
0.00096037191
6.5264342e-05
0.00094842111
6.285178e-05
0.00093691583
6.0572054e-05
0.00092584464
5.842327e-05
0.00091519219
5.6398823e-05
0.00090494006
5.4499159e-05