/*--------------------------------*- C++ -*----------------------------------*\
| =========                 |                                                 |
| \\      /  F ield         | OpenFOAM: The Open Source CFD Toolbox           |
|  \\    /   O peration     | Version:  2206                                  |
|   \\  /    A nd           | Website:  www.openfoam.com                      |
|    \\/     M anipulation  |                                                 |
\*---------------------------------------------------------------------------*/
FoamFile
{
    version     2.0;
    format      ascii;
    arch        "LSB;label=32;scalar=64";
    class       volVectorField;
    location    "200";
    object      U;
}
// * * * * * * * * * * * * * * * * * * * * * * * * * * * * * * * * * * * * * //

dimensions      [0 1 -1 0 0 0 0];

internalField   nonuniform List<vector> 
7480
(
(0.86061215 0.014719766 5.8465747e-16)
(0.7448838 0.025609972 0)
(0.62898354 0.027279505 0)
(0.52552592 0.019507169 0)
(0.44968176 0.0094099953 0)
(0.39734185 0.0037479027 0)
(0.35957814 0.0017171273 0)
(0.33040853 0.0012140724 0)
(0.30665704 0.0010849288 0)
(0.2867646 0.00096514173 0)
(0.26994334 0.00081754809 0)
(0.25568957 0.00067062982 0)
(0.24359943 0.00054238557 0)
(0.23332498 0.00043754891 0)
(0.22456742 0.00035410514 0)
(0.21707159 0.00028683635 0)
(0.21064018 0.00023258717 0)
(0.20511092 0.00018144777 0)
(0.20031747 0.00030638536 -1.7457791e-17)
(0.19615765 0.00015773487 0)
(0.1924956 0.00010592291 0)
(0.18923837 8.8683317e-05 0)
(0.18630375 7.7715382e-05 0)
(0.18363279 6.8611544e-05 0)
(0.18118365 6.04091e-05 0)
(0.17891879 7.0883226e-05 0)
(0.17681425 5.2119499e-05 0)
(0.174845 4.489345e-05 0)
(0.17298945 4.1449527e-05 0)
(0.17122907 3.861787e-05 0)
(0.16955363 3.5918726e-05 0)
(0.16795524 3.34903e-05 0)
(0.16642546 3.1336572e-05 0)
(0.16495752 2.9411238e-05 0)
(0.16354376 2.7681766e-05 0)
(0.16218128 2.6207222e-05 0)
(0.16085833 2.4926153e-05 0)
(0.15957392 2.3686048e-05 0)
(0.15832457 2.2564921e-05 0)
(0.15710609 2.1550393e-05 0)
(0.15591563 2.0611633e-05 0)
(0.15475045 1.975601e-05 0)
(0.1536084 1.8931783e-05 0)
(0.15248828 1.8146217e-05 0)
(0.15138824 1.7415382e-05 0)
(0.15030727 1.6707625e-05 0)
(0.14924398 1.6048622e-05 0)
(0.14819678 1.5427143e-05 0)
(0.14716493 1.4820194e-05 0)
(0.14614757 1.4252008e-05 0)
(0.1451438 1.3705158e-05 0)
(0.14415274 1.3194401e-05 0)
(0.14317272 1.2735675e-05 0)
(0.14220156 1.2324641e-05 0)
(0.1412364 1.1977715e-05 0)
(0.14027402 1.1680526e-05 0)
(0.13931116 1.1433583e-05 0)
(0.1383444 1.1226833e-05 0)
(0.13737098 1.1044488e-05 0)
(0.13638849 1.088449e-05 0)
(0.13539484 1.0738188e-05 0)
(0.13438784 1.0613389e-05 0)
(0.13336497 1.0509906e-05 0)
(0.13232328 1.0435222e-05 0)
(0.13125915 1.0392772e-05 0)
(0.13016842 1.0384776e-05 0)
(0.12904645 1.041174e-05 0)
(0.12788826 1.0471166e-05 0)
(0.12668862 1.0559518e-05 0)
(0.12544247 1.0667962e-05 0)
(0.1241451 1.0787276e-05 0)
(0.12279273 1.0901797e-05 0)
(0.12138287 1.099558e-05 0)
(0.11991496 1.1049712e-05 0)
(0.11839073 1.1045321e-05 0)
(0.11681422 1.0972536e-05 0)
(0.11519347 1.0813428e-05 0)
(0.1135402 1.0560047e-05 0)
(0.11186992 1.0221152e-05 0)
(0.11020352 9.7809563e-06 0)
(0.10856611 9.2431833e-06 0)
(0.10698404 8.6152551e-06 0)
(0.10548135 7.9174131e-06 0)
(0.10407563 7.1830634e-06 0)
(0.10277516 6.4543324e-06 0)
(0.10157819 5.772602e-06 0)
(0.10047464 5.168799e-06 0)
(0.099449411 4.6582107e-06 0)
(0.098485943 4.2404612e-06 0)
(0.097569082 3.9037609e-06 0)
(0.096686787 3.6311337e-06 0)
(0.095830111 3.4067504e-06 0)
(0.094993563 3.2139901e-06 0)
(0.094172034 3.0517054e-06 0)
(0.093364796 2.8968094e-06 0)
(0.092562804 2.7900737e-06 0)
(0.091776197 2.6426652e-06 0)
(0.090961486 5.9242615e-06 6.3823802e-20)
(0.0902739 1.8207549e-07 -1.6921943e-19)
(0.089070889 9.0116284e-06 -1.0170755e-18)
(0.9573113 0.024755546 0)
(0.94341694 0.032430802 0)
(0.91244064 0.032610651 0)
(0.86079667 0.028840942 0)
(0.79781256 0.022997521 0)
(0.73464657 0.017324316 0)
(0.67765796 0.012913571 0)
(0.62880643 0.0098488593 0)
(0.5877054 0.0077528777 0)
(0.55315698 0.006254216 0)
(0.52393261 0.0051179391 0)
(0.4990299 0.0042180969 0)
(0.47769013 0.0034875454 0)
(0.45933536 0.0028897625 0)
(0.44349801 0.002399143 0)
(0.42980435 0.0019947102 0)
(0.41793009 0.0016632237 0)
(0.40758801 0.0013939624 0)
(0.39851726 0.001176146 0)
(0.39051829 0.0009894449 0)
(0.38340986 0.00085419109 0)
(0.37703912 0.00074361778 0)
(0.37127881 0.00065277331 0)
(0.36602934 0.00057802576 0)
(0.36121324 0.00051619629 0)
(0.35676188 0.0004642544 0)
(0.35262934 0.00041896152 0)
(0.34876854 0.00038192677 0)
(0.34514124 0.00035031161 0)
(0.34171553 0.00032280477 0)
(0.33846922 0.00029827962 0)
(0.33538382 0.00027644812 0)
(0.3324419 0.00025699827 0)
(0.3296289 0.00023961624 0)
(0.32693019 0.0002239483 0)
(0.32433819 0.00021016063 0)
(0.32183243 0.00019795154 0)
(0.31940999 0.00018663301 0)
(0.31706247 0.00017638318 0)
(0.31478162 0.00016706572 0)
(0.31256152 0.00015850859 0)
(0.31039681 0.00015066399 0)
(0.30828276 0.00014334433 0)
(0.30621603 0.00013650523 0)
(0.30419279 0.00013014406 0)
(0.30221041 0.00012415825 0)
(0.30026576 0.00011858825 0)
(0.29835572 0.0001133774 0)
(0.29647826 0.00010843692 0)
(0.29463145 0.00010380096 0)
(0.29281332 9.9420848e-05 0)
(0.29102194 9.5329259e-05 0)
(0.28925439 9.1579606e-05 0)
(0.28750701 8.8181494e-05 0)
(0.28577503 8.5184013e-05 0)
(0.28405307 8.2556589e-05 0)
(0.28233542 8.0291184e-05 0)
(0.28061611 7.8342494e-05 0)
(0.27888998 7.663989e-05 0)
(0.27715243 7.51485e-05 0)
(0.27539934 7.3830931e-05 0)
(0.27362649 7.2698936e-05 0)
(0.27182922 7.1755348e-05 0)
(0.27000221 7.1026648e-05 0)
(0.26813906 7.0532322e-05 0)
(0.2662325 7.0284675e-05 0)
(0.26427434 7.0288579e-05 0)
(0.26225571 7.0537053e-05 0)
(0.26016721 7.1012957e-05 0)
(0.2579994 7.1677771e-05 0)
(0.25574325 7.2480801e-05 0)
(0.25339095 7.3346107e-05 0)
(0.25093658 7.4184586e-05 0)
(0.24837713 7.4891983e-05 0)
(0.24571327 7.5357941e-05 0)
(0.24294985 7.5464855e-05 0)
(0.24009865 7.5065744e-05 0)
(0.23717873 7.4023584e-05 0)
(0.23421719 7.2227444e-05 0)
(0.23125181 6.9512745e-05 0)
(0.22832906 6.5852945e-05 0)
(0.22549842 6.1339683e-05 0)
(0.22280528 5.6210348e-05 0)
(0.22028308 5.0814912e-05 0)
(0.2179478 4.5538715e-05 0)
(0.21579676 4.0713143e-05 0)
(0.21381188 3.6548854e-05 0)
(0.21196575 3.311602e-05 0)
(0.2102284 3.0367321e-05 0)
(0.20857248 2.8183296e-05 0)
(0.20697635 2.6425399e-05 0)
(0.20542408 2.49676e-05 0)
(0.20390592 2.3719287e-05 0)
(0.20241298 2.2625239e-05 0)
(0.20094379 2.1661958e-05 0)
(0.1994828 2.0825424e-05 0)
(0.19804686 2.0219674e-05 0)
(0.19655947 2.0207153e-05 0)
(0.19529416 1.5790217e-05 0)
(0.19309162 2.5086467e-05 0)
(0.9655629 0.026078728 0)
(0.97047233 0.034983939 0)
(0.97554992 0.03864767 0)
(0.97444523 0.037569376 0)
(0.95985038 0.034368356 0)
(0.93165058 0.030008859 0)
(0.8949065 0.02531408 0)
(0.85477279 0.02092813 0)
(0.81455669 0.01716921 0)
(0.77622724 0.014091104 0)
(0.74081509 0.011608939 0)
(0.70876161 0.0096063848 0)
(0.68011983 0.0079817667 0)
(0.65470338 0.0066582681 0)
(0.63220025 0.0055775351 0)
(0.6122785 0.0046909633 0)
(0.59461547 0.0039620456 0)
(0.57891309 0.0033620247 0)
(0.56490395 0.0028664339 0)
(0.55236492 0.0024620004 0)
(0.54109196 0.0021317279 0)
(0.53090755 0.001860715 0)
(0.52166 0.0016376358 0)
(0.51321912 0.0014520162 0)
(0.50547457 0.0012964428 0)
(0.49833015 0.0011648732 0)
(0.49170491 0.0010525684 0)
(0.48553439 0.00095637056 0)
(0.47976371 0.00087384887 0)
(0.47434666 0.00080196934 0)
(0.4692435 0.00073831201 0)
(0.46442045 0.00068184288 0)
(0.45984761 0.00063162033 0)
(0.45549959 0.000586774 0)
(0.45135373 0.00054643303 0)
(0.44739301 0.00051079681 0)
(0.4435905 0.00047906525 0)
(0.43993825 0.00044990823 0)
(0.4364201 0.00042354891 0)
(0.43302342 0.00039959412 0)
(0.42973817 0.00037764688 0)
(0.426555 0.00035754932 0)
(0.42346537 0.00033893537 0)
(0.42046235 0.00032165882 0)
(0.4175391 0.00030564473 0)
(0.41469017 0.00029068724 0)
(0.41190986 0.00027680999 0)
(0.40919292 0.00026387598 0)
(0.40653522 0.00025170459 0)
(0.40393299 0.00024031543 0)
(0.40138252 0.00022961178 0)
(0.39888036 0.00021962885 0)
(0.3964223 0.00021044575 0)
(0.39400343 0.00020208032 0)
(0.39161782 0.00019461249 0)
(0.38925868 0.0001879986 0)
(0.38691864 0.0001822223 0)
(0.38458992 0.00017719622 0)
(0.38226539 0.00017278428 0)
(0.3799384 0.00016890699 0)
(0.3776028 0.00016548662 0)
(0.37525244 0.00016252848 0)
(0.3728808 0.00016003123 0)
(0.37048078 0.00015803727 0)
(0.36804415 0.0001565818 0)
(0.36556167 0.00015568842 0)
(0.36302306 0.00015536856 0)
(0.36041705 0.00015561252 0)
(0.35773163 0.00015638947 0)
(0.35495445 0.0001576283 0)
(0.35207338 0.00015922976 0)
(0.34907733 0.00016104589 0)
(0.34595705 0.0001628949 0)
(0.34270638 0.00016456436 0)
(0.33932313 0.00016581353 0)
(0.33581027 0.00016637098 0)
(0.33217968 0.00016589169 0)
(0.32845301 0.00016402481 0)
(0.32466397 0.00016044818 0)
(0.32086184 0.00015475661 0)
(0.31710859 0.00014684601 0)
(0.31347114 0.00013691426 0)
(0.31001115 0.00012551142 0)
(0.30677396 0.00011345577 0)
(0.30378107 0.00010164604 0)
(0.3010287 9.0850639e-05 0)
(0.29849242 8.1554051e-05 0)
(0.29613555 7.391429e-05 0)
(0.29391831 6.7818995e-05 0)
(0.29180468 6.2992474e-05 0)
(0.28976647 5.9118136e-05 0)
(0.28778314 5.5907561e-05 0)
(0.28584224 5.3162978e-05 0)
(0.28393256 5.0745987e-05 0)
(0.28205227 4.8642372e-05 0)
(0.28018147 4.6759893e-05 0)
(0.27834175 4.5529017e-05 0)
(0.27643396 4.4271525e-05 0)
(0.27480346 3.9992095e-05 0)
(0.27198677 4.9103538e-05 -4.3479946e-20)
(0.96806116 0.024258857 0)
(0.97363284 0.032379675 0)
(0.98167874 0.036248147 0)
(0.98825534 0.036617823 0)
(0.99175469 0.034904055 0)
(0.99136829 0.032393108 0)
(0.98522389 0.029749376 0)
(0.97237981 0.027161066 0)
(0.95300926 0.024473833 0)
(0.92910878 0.021607543 0)
(0.90243425 0.018779162 0)
(0.87437605 0.016146259 0)
(0.84609975 0.013800673 0)
(0.81851258 0.011767724 0)
(0.79225997 0.010025085 0)
(0.76773778 0.0085415682 0)
(0.74512452 0.0072905608 0)
(0.72442995 0.0062438234 0)
(0.70555838 0.0053764237 0)
(0.68836917 0.0046566269 0)
(0.67270283 0.0040585034 0)
(0.65840486 0.0035614237 0)
(0.64533107 0.0031446141 0)
(0.63334626 0.0027918626 0)
(0.6223251 0.0024924958 0)
(0.61215496 0.0022374424 0)
(0.60273193 0.0020182613 0)
(0.59397249 0.0018291997 0)
(0.58580464 0.001665754 0)
(0.57816414 0.0015229676 0)
(0.57099395 0.0013968823 0)
(0.56424456 0.0012853576 0)
(0.55787219 0.001186433 0)
(0.55183814 0.0010982422 0)
(0.54611066 0.0010191248 0)
(0.54066055 0.00094874139 0)
(0.53546229 0.00088587737 0)
(0.53049246 0.00082864388 0)
(0.52573084 0.00077689624 0)
(0.52115884 0.00072995445 0)
(0.51676079 0.00068708027 0)
(0.51252233 0.00064791481 0)
(0.5084302 0.0006118483 0)
(0.50447315 0.00057855986 0)
(0.50064051 0.00054783054 0)
(0.49692323 0.00051929612 0)
(0.49331266 0.00049290626 0)
(0.48980085 0.0004684029 0)
(0.48638109 0.00044548008 0)
(0.48304727 0.00042410671 0)
(0.4797935 0.00040411302 0)
(0.47661441 0.00038550719 0)
(0.47350412 0.00036836553 0)
(0.47045642 0.00035269509 0)
(0.46746428 0.00033859464 0)
(0.46451969 0.00032600974 0)
(0.46161392 0.00031491181 0)
(0.45873774 0.00030516537 0)
(0.45588235 0.00029656503 0)
(0.45303922 0.00028897907 0)
(0.45020019 0.00028227975 0)
(0.44735718 0.00027645007 0)
(0.4445019 0.00027147254 0)
(0.44162556 0.00026739471 0)
(0.43871837 0.00026426022 0)
(0.43576957 0.00026210031 0)
(0.43276721 0.00026093216 0)
(0.42969825 0.00026074364 0)
(0.42654867 0.00026149031 0)
(0.42330393 0.00026306846 0)
(0.41994942 0.00026532776 0)
(0.4164714 0.00026804396 0)
(0.41285776 0.0002709335 0)
(0.40909955 0.0002736601 0)
(0.40519201 0.00027582703 0)
(0.40113646 0.00027695774 0)
(0.39694467 0.00027644631 0)
(0.39264049 0.00027364624 0)
(0.38826312 0.00026792137 0)
(0.38387081 0.00025855816 0)
(0.37953703 0.00024535518 0)
(0.37534095 0.00022866576 0)
(0.3713548 0.00020946265 0)
(0.36763083 0.00018917383 0)
(0.36419277 0.00016934593 0)
(0.36103459 0.00015128068 0)
(0.35812646 0.00013578114 0)
(0.35542487 0.00012309018 0)
(0.35288325 0.00011299606 0)
(0.35045994 0.0001050194 0)
(0.34812257 9.8620872e-05 0)
(0.34584787 9.3313478e-05 0)
(0.34362177 8.8774342e-05 0)
(0.34143176 8.4761538e-05 0)
(0.33927565 8.129039e-05 0)
(0.33713117 7.8128222e-05 0)
(0.33502214 7.6185219e-05 0)
(0.33283658 7.3259157e-05 0)
(0.33095769 7.1186003e-05 0)
(0.32773989 7.5365637e-05 3.2821193e-20)
(0.96998086 0.023197863 0)
(0.97475067 0.03040743 0)
(0.9821299 0.034190841 0)
(0.98921937 0.034748077 0)
(0.99426067 0.033516305 0)
(0.99743044 0.031654338 0)
(0.99924944 0.029758028 0)
(0.99948897 0.027997538 0)
(0.99793908 0.026286929 0)
(0.99325161 0.024533984 0)
(0.98474321 0.022732481 0)
(0.97222736 0.020856111 0)
(0.95625798 0.018870589 0)
(0.93766714 0.016861453 0)
(0.91716855 0.014925425 0)
(0.89546066 0.013124447 0)
(0.873252 0.011501477 0)
(0.85117217 0.010056969 0)
(0.82973481 0.0087891322 0)
(0.80930535 0.0076863107 0)
(0.79008995 0.0067395626 0)
(0.77216025 0.0059363788 0)
(0.75549663 0.005256034 0)
(0.74003406 0.0046770371 0)
(0.72568912 0.0041818718 0)
(0.71237417 0.0037559688 0)
(0.69999952 0.0033865456 0)
(0.68847881 0.003064954 0)
(0.67773112 0.0027848174 0)
(0.66768095 0.0025391168 0)
(0.6582612 0.0023221222 0)
(0.64941141 0.0021301907 0)
(0.64107638 0.0019599834 0)
(0.63320633 0.0018083395 0)
(0.62575932 0.0016726195 0)
(0.61869456 0.0015516078 0)
(0.61198357 0.0014432182 0)
(0.60559137 0.0013450353 0)
(0.59949123 0.0012564276 0)
(0.5936584 0.0011760829 0)
(0.58807117 0.0011028917 0)
(0.58270937 0.0010362059 0)
(0.57755447 0.00097506333 0)
(0.57259039 0.00091887335 0)
(0.56780213 0.00086721051 0)
(0.56317605 0.00081945514 0)
(0.55870064 0.0007753872 0)
(0.55436491 0.00073459027 0)
(0.55015936 0.00069660182 0)
(0.54607515 0.00066130766 0)
(0.54210372 0.00062842623 0)
(0.53823745 0.00059789438 0)
(0.53446854 0.00056974958 0)
(0.5307892 0.00054396062 0)
(0.52719108 0.0005206271 0)
(0.52366485 0.00049967566 0)
(0.5202005 0.00048105401 0)
(0.51678755 0.00046457354 0)
(0.51341567 0.0004499607 0)
(0.51007449 0.00043702811 0)
(0.50675381 0.00042558677 0)
(0.50344363 0.00041557947 0)
(0.5001338 0.00040695766 0)
(0.49681382 0.00039975876 0)
(0.49347236 0.00039402331 0)
(0.49009716 0.00038978432 0)
(0.48667473 0.00038706187 0)
(0.48319039 0.00038584009 0)
(0.47962834 0.00038606035 0)
(0.47597203 0.00038758606 0)
(0.47220465 0.00039021379 0)
(0.46831005 0.00039363868 0)
(0.46427359 0.00039746575 0)
(0.46008385 0.00040121765 0)
(0.45573394 0.00040431222 0)
(0.45122404 0.00040601793 0)
(0.44656625 0.00040540536 0)
(0.44178693 0.00040145437 0)
(0.43693052 0.00039313142 0)
(0.43206294 0.00037936138 0)
(0.42726672 0.000359838 0)
(0.42262986 0.00033512107 0)
(0.41823146 0.00030670496 0)
(0.41412747 0.00027674852 0)
(0.41034177 0.00024755813 0)
(0.40686556 0.00022104712 0)
(0.40366437 0.00019837184 0)
(0.40068947 0.00017985545 0)
(0.39788949 0.00016515652 0)
(0.39521891 0.00015355127 0)
(0.39264268 0.00014423929 0)
(0.39013575 0.00013650427 0)
(0.387683 0.00012988167 0)
(0.38527112 0.0001240103 0)
(0.38289749 0.00011894706 0)
(0.38053859 0.00011428404 0)
(0.37821886 0.0001115185 0)
(0.37581937 0.00010642434 5.6642301e-20)
(0.37374386 0.00010812767 0)
(0.37021687 0.00010385448 0)
(0.97187587 0.022406422 0)
(0.97597609 0.028853085 0)
(0.98233659 0.032452394 0)
(0.98857341 0.033217454 0)
(0.99352919 0.032387529 0)
(0.99724503 0.030890764 0)
(0.99980213 0.029234972 0)
(1.0015937 0.027635056 0)
(1.002813 0.026114838 0)
(1.0034856 0.024661356 0)
(1.0033239 0.023275853 0)
(1.0020801 0.021935122 0)
(0.99911526 0.020609564 0)
(0.99380189 0.019287565 0)
(0.98585016 0.017968243 0)
(0.97514335 0.016603065 0)
(0.96206186 0.015190491 0)
(0.94690981 0.013793787 0)
(0.93006463 0.012447727 0)
(0.91200057 0.011180159 0)
(0.89327218 0.010011369 0)
(0.87441524 0.0089483277 0)
(0.85588959 0.0079924881 0)
(0.83802877 0.0071432173 0)
(0.82102808 0.0063982443 0)
(0.8049671 0.0057509934 0)
(0.789852 0.0051885642 0)
(0.77565305 0.0046975102 0)
(0.76232353 0.0042670534 0)
(0.74980892 0.0038869768 0)
(0.73805218 0.003549575 0)
(0.72699506 0.0032500306 0)
(0.71658038 0.0029837658 0)
(0.70675485 0.0027461914 0)
(0.69747025 0.0025335978 0)
(0.68867874 0.0023435287 0)
(0.68034248 0.0021729509 0)
(0.67242289 0.0020189385 0)
(0.66488507 0.0018799779 0)
(0.65769804 0.0017541 0)
(0.65083433 0.0016396443 0)
(0.64426823 0.0015355414 0)
(0.63797602 0.0014403804 0)
(0.63193671 0.0013531938 0)
(0.62613094 0.0012732619 0)
(0.62054054 0.0011996464 0)
(0.61515018 0.0011318759 0)
(0.6099454 0.0010693053 0)
(0.60491344 0.0010112608 0)
(0.60004241 0.00095749298 0)
(0.59532096 0.00090756083 0)
(0.59073907 0.00086128866 0)
(0.58628677 0.00081863775 0)
(0.58195439 0.00077950234 0)
(0.57773196 0.00074395876 0)
(0.57360861 0.00071189148 0)
(0.56957321 0.00068320361 0)
(0.56561416 0.00065765537 0)
(0.56171952 0.00063491067 0)
(0.55787708 0.00061471924 0)
(0.55407471 0.00059681823 0)
(0.5503005 0.00058109456 0)
(0.54654244 0.00056745366 0)
(0.54278822 0.0005559064 0)
(0.53902492 0.00054647599 0)
(0.53523874 0.00053918879 0)
(0.53141466 0.00053406253 0)
(0.52753639 0.00053107445 0)
(0.52358642 0.00053015009 0)
(0.51954634 0.00053111897 0)
(0.51539729 0.00053372209 0)
(0.51112086 0.00053756857 0)
(0.50670012 0.00054214075 0)
(0.5021214 0.00054679972 0)
(0.49737602 0.00055074416 0)
(0.49246336 0.00055293611 0)
(0.4873961 0.00055205878 0)
(0.48220312 0.00054664547 0)
(0.4769336 0.00053519621 0)
(0.47165984 0.00051623727 0)
(0.46647138 0.00048936397 0)
(0.46146255 0.00045539824 0)
(0.45671688 0.0004164479 0)
(0.45229214 0.000375507 0)
(0.44821152 0.00033573304 0)
(0.44446355 0.00029971133 0)
(0.44101006 0.00026897526 0)
(0.43779843 0.00024392054 0)
(0.43477386 0.00022404854 0)
(0.43188817 0.00020835632 0)
(0.42910442 0.00019575028 0)
(0.42639633 0.00018525963 0)
(0.42374798 0.0001762638 0)
(0.42114549 0.00016827068 0)
(0.4185857 0.00016138487 0)
(0.41604446 0.00015500171 0)
(0.41354594 0.00015127859 0)
(0.41096755 0.0001436241 0)
(0.40872458 0.00015030519 6.5826656e-20)
(0.40493822 0.00013483766 0)
(0.97374907 0.021658773 0)
(0.97725837 0.027407521 0)
(0.98278127 0.030841341 0)
(0.98833258 0.03181015 0)
(0.99288709 0.031281372 0)
(0.99638167 0.03005604 0)
(0.99902993 0.028608429 0)
(1.0010908 0.027157722 0)
(1.0027244 0.025755252 0)
(1.0039551 0.024400765 0)
(1.0048486 0.023100208 0)
(1.0054447 0.021861648 0)
(1.0056983 0.020692743 0)
(1.005461 0.019600316 0)
(1.0045466 0.018571712 0)
(1.0027596 0.017588931 0)
(0.99952998 0.016645217 0)
(0.99451244 0.01572602 0)
(0.98744297 0.014809428 0)
(0.9782398 0.013854725 0)
(0.96700894 0.012865348 0)
(0.9539028 0.011870384 0)
(0.93918918 0.010889353 0)
(0.92328047 0.0099428909 0)
(0.90668257 0.009044201 0)
(0.88989112 0.0082054062 0)
(0.8733211 0.0074364794 0)
(0.85726181 0.006742844 0)
(0.84187279 0.0061263058 0)
(0.82721818 0.0055809836 0)
(0.81331003 0.0050970207 0)
(0.80013496 0.0046660119 0)
(0.78766571 0.0042806966 0)
(0.77586689 0.0039349774 0)
(0.76469882 0.0036245229 0)
(0.7541176 0.0033460245 0)
(0.74408313 0.0030954337 0)
(0.73455652 0.0028691752 0)
(0.72549969 0.0026649424 0)
(0.71687714 0.0024799569 0)
(0.70865693 0.0023119094 0)
(0.70080909 0.0021592083 0)
(0.69330562 0.0020198827 0)
(0.68612112 0.0018924936 0)
(0.67923221 0.0017759478 0)
(0.67261689 0.0016688971 0)
(0.6662555 0.0015705293 0)
(0.66012979 0.00147991 0)
(0.65422344 0.0013960964 0)
(0.64852133 0.0013186538 0)
(0.64300922 0.0012469294 0)
(0.6376744 0.0011805785 0)
(0.63250461 0.0011194357 0)
(0.62748814 0.0010632831 0)
(0.62261332 0.0010121398 0)
(0.61786784 0.00096582684 0)
(0.61323927 0.00092418774 0)
(0.60871462 0.00088691861 0)
(0.60428042 0.00085361719 0)
(0.59992276 0.00082396773 0)
(0.59562769 0.00079762209 0)
(0.59138146 0.00077439713 0)
(0.58717013 0.00075413922 0)
(0.58297951 0.00073681101 0)
(0.57879508 0.00072240251 0)
(0.57460145 0.00071092521 0)
(0.57038201 0.0007023861 0)
(0.56611892 0.00069675009 0)
(0.56179302 0.00069392374 0)
(0.55738412 0.00069370045 0)
(0.55287142 0.00069576233 0)
(0.54823442 0.00069962602 0)
(0.54345405 0.00070463868 0)
(0.53851459 0.00070997744 0)
(0.53340581 0.00071458613 0)
(0.52812637 0.00071706953 0)
(0.52268954 0.00071566207 0)
(0.51712641 0.00070838493 0)
(0.51149005 0.0006932166 0)
(0.50585771 0.00066826108 0)
(0.50032411 0.00063303047 0)
(0.49498794 0.00058866355 0)
(0.48993552 0.00053796212 0)
(0.48522552 0.00048484134 0)
(0.48088027 0.00043338157 0)
(0.47688624 0.00038688526 0)
(0.47320259 0.00034727868 0)
(0.46977401 0.00031502179 0)
(0.4665433 0.00028943569 0)
(0.46346039 0.00026921012 0)
(0.46048694 0.00025293238 0)
(0.45759571 0.00023935707 0)
(0.45477004 0.0002276952 0)
(0.45199554 0.00021731495 0)
(0.44926845 0.00020837074 0)
(0.44656424 0.00020004789 0)
(0.44390638 0.0001952138 0)
(0.44117052 0.00018467934 0)
(0.43877865 0.00019731563 5.9591087e-20)
(0.43476345 0.00016837346 0)
(0.97552795 0.021000534 0)
(0.97858172 0.026090301 0)
(0.98337479 0.029331625 0)
(0.98835111 0.030472808 0)
(0.99258422 0.030216354 0)
(0.99590643 0.029245528 0)
(0.99847824 0.027995098 0)
(1.0005054 0.026683552 0)
(1.0021472 0.025384049 0)
(1.003485 0.024111771 0)
(1.0045747 0.022879598 0)
(1.005418 0.021699622 0)
(1.0060443 0.020581197 0)
(1.0064503 0.019527579 0)
(1.0067804 0.018549364 0)
(1.0067684 0.017651698 0)
(1.0065232 0.016825505 0)
(1.0058912 0.016066576 0)
(1.004734 0.015367642 0)
(1.0027806 0.014711583 0)
(0.99963145 0.014080368 0)
(0.99497892 0.013462808 0)
(0.98852132 0.012819368 0)
(0.98018646 0.01211952 0)
(0.96995884 0.011376647 0)
(0.95794632 0.010605306 0)
(0.94441637 0.0098237227 0)
(0.92979947 0.0090551443 0)
(0.91458947 0.0083139098 0)
(0.89924762 0.0076145918 0)
(0.88412798 0.0069681125 0)
(0.86945273 0.0063815491 0)
(0.85533432 0.0058550884 0)
(0.84181886 0.0053827446 0)
(0.82891948 0.0049575375 0)
(0.81662938 0.0045740277 0)
(0.80493034 0.0042269942 0)
(0.79379686 0.0039124753 0)
(0.78319831 0.0036277997 0)
(0.77310271 0.003369524 0)
(0.76347908 0.0031347321 0)
(0.75429669 0.0029213001 0)
(0.74552584 0.0027266621 0)
(0.7371388 0.0025488587 0)
(0.72910933 0.0023863489 0)
(0.72141262 0.0022373295 0)
(0.71402572 0.002100604 0)
(0.7069271 0.0019748723 0)
(0.70009718 0.0018588566 0)
(0.69351768 0.0017518706 0)
(0.68717146 0.0016529901 0)
(0.68104296 0.0015616517 0)
(0.67511753 0.0014775153 0)
(0.66938142 0.0014002033 0)
(0.66382119 0.0013296392 0)
(0.65842323 0.0012655461 0)
(0.65317364 0.001207686 0)
(0.64805794 0.0011556843 0)
(0.64306126 0.0011090679 0)
(0.63816815 0.0010674458 0)
(0.63336293 0.0010303741 0)
(0.62862997 0.0009975872 0)
(0.6239535 0.00096885471 0)
(0.6193175 0.00094407684 0)
(0.61470572 0.00092319474 0)
(0.61010114 0.00090618912 0)
(0.60548558 0.00089304638 0)
(0.60083967 0.00088371177 0)
(0.59614268 0.00087806801 0)
(0.59137272 0.00087586866 0)
(0.58650718 0.00087673259 0)
(0.5815236 0.00088007655 0)
(0.57640093 0.00088509915 0)
(0.57112155 0.00089077041 0)
(0.56567373 0.0008957437 0)
(0.56005541 0.0008982179 0)
(0.55428016 0.00089592143 0)
(0.54838069 0.0008863055 0)
(0.54241284 0.00086678259 0)
(0.53645734 0.00083501789 0)
(0.53061233 0.00079045687 0)
(0.52497932 0.00073460291 0)
(0.51964635 0.00067101845 0)
(0.5146726 0.00060460903 0)
(0.51007992 0.00054043526 0)
(0.50585358 0.00048255324 0)
(0.5019512 0.00043329601 0)
(0.49831582 0.00039318266 0)
(0.49488867 0.00036133693 0)
(0.49161834 0.0003361193 0)
(0.48846536 0.00031577698 0)
(0.4854016 0.00029877294 0)
(0.48240963 0.00028413849 0)
(0.47947456 0.00027109429 0)
(0.47659192 0.00025984421 0)
(0.47373698 0.00024935424 0)
(0.47093217 0.00024323856 0)
(0.46805255 0.00022952464 -2.0759087e-20)
(0.4655242 0.00024898324 0)
(0.46129997 0.00020452129 -9.3206688e-21)
(0.97716384 0.020399963 0)
(0.97986138 0.024917594 0)
(0.98404307 0.027942293 0)
(0.9884971 0.02918352 0)
(0.99242755 0.029159068 0)
(0.99561377 0.02843253 0)
(0.99813631 0.027379027 0)
(1.0001451 0.026207111 0)
(1.0017725 0.025007457 0)
(1.0031051 0.023812121 0)
(1.0041963 0.022642237 0)
(1.0050797 0.021514783 0)
(1.0057859 0.020441615 0)
(1.0063382 0.019425486 0)
(1.006743 0.018480724 0)
(1.0070244 0.017611435 0)
(1.0072008 0.016805897 0)
(1.0072723 0.016072681 0)
(1.007222 0.015413572 0)
(1.0070176 0.01481751 0)
(1.0065914 0.014275598 0)
(1.0058327 0.013781989 0)
(1.0046222 0.013324512 0)
(1.0026269 0.012885891 0)
(0.99951391 0.012449015 0)
(0.99496392 0.011996414 0)
(0.98869434 0.011494668 0)
(0.98061073 0.01092529 0)
(0.97069802 0.010306564 0)
(0.95910227 0.0096527339 0)
(0.94616266 0.0089861483 0)
(0.9323467 0.0083241915 0)
(0.91813238 0.0076847737 0)
(0.90391439 0.0070829776 0)
(0.88995938 0.0065285159 0)
(0.87641524 0.0060250338 0)
(0.86335382 0.0055689873 0)
(0.85080792 0.0051545727 0)
(0.83878745 0.0047775459 0)
(0.82728713 0.0044337038 0)
(0.81629226 0.0041199198 0)
(0.80578199 0.0038339 0)
(0.7957326 0.0035726573 0)
(0.78611965 0.0033338275 0)
(0.77691797 0.0031154682 0)
(0.76810277 0.0029153211 0)
(0.75965014 0.0027318015 0)
(0.75153689 0.0025632093 0)
(0.74374138 0.0024078879 0)
(0.736243 0.0022648527 0)
(0.72902222 0.0021328597 0)
(0.72206104 0.0020110768 0)
(0.71534254 0.0018989302 0)
(0.70885098 0.0017958333 0)
(0.70257124 0.0017015676 0)
(0.69648831 0.0016157272 0)
(0.69058706 0.0015379803 0)
(0.68485176 0.0014678637 0)
(0.67926624 0.0014048164 0)
(0.67381365 0.0013483656 0)
(0.66847673 0.0012979646 0)
(0.66323809 0.0012532537 0)
(0.65808016 0.0012139116 0)
(0.65298525 0.0011797579 0)
(0.64793528 0.0011506666 0)
(0.64291159 0.001126574 0)
(0.6378945 0.0011074324 0)
(0.63286314 0.0010931579 0)
(0.62779525 0.0010836026 0)
(0.6226674 0.001078475 0)
(0.61745526 0.0010773256 0)
(0.61213461 0.0010794631 0)
(0.60668249 0.0010839241 0)
(0.60107952 0.001089449 0)
(0.59531246 0.0010943671 0)
(0.58937833 0.0010964265 0)
(0.58329053 0.0010927981 0)
(0.57708256 0.0010803128 0)
(0.5708118 0.0010557804 0)
(0.56456086 0.0010164126 0)
(0.55842974 0.00096160021 0)
(0.55252147 0.00089324682 0)
(0.5469251 0.00081572596 0)
(0.54170035 0.00073498727 0)
(0.53686923 0.00065711819 0)
(0.53241687 0.00058696111 0)
(0.52830047 0.00052727203 0)
(0.52446237 0.00047863046 0)
(0.52084297 0.00043995298 0)
(0.51738988 0.0004092551 0)
(0.51406264 0.00038442701 0)
(0.51083224 0.00036362518 0)
(0.50768043 0.00034569011 0)
(0.50459167 0.00032968719 0)
(0.50156075 0.00031586732 0)
(0.49856275 0.00030296981 0)
(0.49561892 0.00029538431 0)
(0.4926044 0.00027819116 0)
(0.48994797 0.00030528143 5.3059053e-20)
(0.4855279 0.00024337443 0)
(0.9786609 0.019840306 0)
(0.98106261 0.023858306 0)
(0.9847284 0.026670694 0)
(0.98871592 0.02797244 0)
(0.99235042 0.028132293 0)
(0.99538916 0.02761265 0)
(0.99785604 0.02673914 0)
(0.99985482 0.025706688 0)
(1.0014878 0.024613126 0)
(1.0028294 0.023500936 0)
(1.0039283 0.02239704 0)
(1.0048219 0.021322499 0)
(1.0055427 0.020292001 0)
(1.0061169 0.019311954 0)
(1.0065621 0.018396937 0)
(1.0069052 0.017550906 0)
(1.00716 0.016766605 0)
(1.0073319 0.016050427 0)
(1.0074369 0.015401679 0)
(1.0075002 0.014815198 0)
(1.0074965 0.014287693 0)
(1.00743 0.013814595 0)
(1.0072796 0.013388237 0)
(1.0069992 0.012999308 0)
(1.006511 0.012640857 0)
(1.0057024 0.012306096 0)
(1.0044009 0.011983602 0)
(1.002259 0.011661072 0)
(0.99895194 0.011324915 0)
(0.99412964 0.010947232 0)
(0.98759613 0.010500316 0)
(0.97925183 0.0099917474 0)
(0.96915432 0.0094341252 0)
(0.95756562 0.0088470584 0)
(0.94491849 0.0082516292 0)
(0.93169192 0.0076660507 0)
(0.91830144 0.0071069499 0)
(0.90503828 0.0065853865 0)
(0.89207164 0.0061067957 0)
(0.87949035 0.0056694081 0)
(0.86734105 0.0052688833 0)
(0.85564526 0.004901833 0)
(0.84440754 0.0045648649 0)
(0.83362154 0.0042556217 0)
(0.82327377 0.0039721185 0)
(0.81334703 0.0037118464 0)
(0.80382205 0.003472974 0)
(0.79467808 0.0032534762 0)
(0.78589443 0.0030513482 0)
(0.77745039 0.0028653112 0)
(0.76932563 0.0026937801 0)
(0.76150094 0.0025356246 0)
(0.75395792 0.0023899964 0)
(0.74667937 0.0022560544 0)
(0.7396488 0.0021333956 0)
(0.73285012 0.0020214476 0)
(0.72626725 0.0019197619 0)
(0.71988354 0.0018277706 0)
(0.71368183 0.0017448138 0)
(0.70764413 0.0016703298 0)
(0.70175188 0.0016036633 0)
(0.69598615 0.0015443511 0)
(0.69032775 0.0014919639 0)
(0.68475733 0.0014462268 0)
(0.67925516 0.0014069319 0)
(0.67380099 0.0013739518 0)
(0.66837367 0.0013471899 0)
(0.66295089 0.0013265218 0)
(0.65750901 0.0013117607 0)
(0.65202314 0.0013025635 0)
(0.64646743 0.0012984058 0)
(0.640816 0.0012984806 0)
(0.63504418 0.0013016496 0)
(0.62913086 0.0013064031 0)
(0.62306121 0.0013107164 0)
(0.61683105 0.0013118477 0)
(0.61045301 0.0013063653 0)
(0.60396039 0.0012904374 0)
(0.59741076 0.0012602392 0)
(0.59088703 0.0012125132 0)
(0.58448957 0.0011465976 0)
(0.57832183 0.0010648166 0)
(0.57247341 0.0009723869 0)
(0.56700482 0.00087634047 0)
(0.56193902 0.00078382921 0)
(0.55726211 0.00070051335 0)
(0.55293198 0.00062959322 0)
(0.54889125 0.00057171828 0)
(0.54508006 0.00052559665 0)
(0.54144537 0.00048888979 0)
(0.53794582 0.0004591178 0)
(0.53455144 0.00043411732 0)
(0.53124302 0.00041252673 0)
(0.52800434 0.00039324787 0)
(0.52482931 0.0003765744 0)
(0.52169283 0.00036101247 0)
(0.51861487 0.00035175055 0)
(0.51547101 0.0003307699 0)
(0.5126921 0.00036626887 0)
(0.50808489 0.00028504905 0)
(0.98003379 0.019314877 0)
(0.98218358 0.022894591 0)
(0.98540816 0.025500148 0)
(0.98897957 0.026833435 0)
(0.99233165 0.027143317 0)
(0.99521356 0.026801888 0)
(0.99760762 0.026090898 0)
(0.99958231 0.025190333 0)
(1.0012156 0.024200804 0)
(1.0025687 0.023172522 0)
(1.0036846 0.02213702 0)
(1.0045971 0.021118138 0)
(1.0053372 0.02013278 0)
(1.0059298 0.019190452 0)
(1.0063964 0.018304614 0)
(1.0067614 0.017481114 0)
(1.0070427 0.016716291 0)
(1.0072515 0.016015152 0)
(1.0074033 0.015378403 0)
(1.0075082 0.014801832 0)
(1.0075778 0.014281115 0)
(1.0076202 0.013812482 0)
(1.0076388 0.013390617 0)
(1.0076303 0.01300838 0)
(1.0075848 0.012661009 0)
(1.0074852 0.01234461 0)
(1.0073028 0.012053838 0)
(1.0069809 0.011782246 0)
(1.0064246 0.011525566 0)
(1.0055174 0.011276638 0)
(1.0039708 0.011026161 0)
(1.0014526 0.010760688 0)