0 	1.8739383e-07 	0.014370522 	0.99956414 	0 	0 	0 	0 	0
0.0021021021 	1.8720237e-07 	0.014476085 	0.99954966 	0 	0 	0 	0 	0
0.0042042042 	1.8701091e-07 	0.014581649 	0.99953518 	0 	0 	0 	0 	0
0.0063063063 	1.8681945e-07 	0.014687212 	0.99952071 	0 	0 	0 	0 	0
0.0084084084 	1.8662798e-07 	0.014792776 	0.99950623 	0 	0 	0 	0 	0
0.010510511 	1.8640725e-07 	0.014914441 	0.99948899 	0 	0 	0 	0 	0
0.012612613 	1.8616834e-07 	0.015046106 	0.99947003 	0 	0 	0 	0 	0
0.014714715 	1.8592943e-07 	0.015177771 	0.99945107 	0 	0 	0 	0 	0
0.016816817 	1.8569052e-07 	0.015309436 	0.99943211 	0 	0 	0 	0 	0
0.018918919 	1.8545161e-07 	0.015441101 	0.99941315 	0 	0 	0 	0 	0
0.021021021 	1.8520556e-07 	0.015576968 	0.99939342 	0 	0 	0 	0 	0
0.023123123 	1.8491151e-07 	0.015741084 	0.99936848 	0 	0 	0 	0 	0
0.025225225 	1.8461746e-07 	0.015905199 	0.99934354 	0 	0 	0 	0 	0
0.027327327 	1.8432341e-07 	0.016069315 	0.9993186 	0 	0 	0 	0 	0
0.029429429 	1.8402937e-07 	0.016233431 	0.99929366 	0 	0 	0 	0 	0
0.031531532 	1.8371939e-07 	0.016407935 	0.99926668 	0 	0 	0 	0 	0
0.033633634 	1.833629e-07 	0.016612778 	0.9992337 	0 	0 	0 	0 	0
0.035735736 	1.8300641e-07 	0.016817622 	0.99920072 	0 	0 	0 	0 	0
0.037837838 	1.8264991e-07 	0.017022466 	0.99916775 	0 	0 	0 	0 	0
0.03993994 	1.8229342e-07 	0.01722731 	0.99913477 	0 	0 	0 	0 	0
0.042042042 	1.8187435e-07 	0.017479377 	0.99909175 	0 	0 	0 	0 	0
0.044144144 	1.8144942e-07 	0.01773587 	0.99904778 	0 	0 	0 	0 	0
0.046246246 	1.8102449e-07 	0.017992362 	0.99900382 	0 	0 	0 	0 	0
0.048348348 	1.8059693e-07 	0.018251301 	0.9989593 	0 	0 	0 	0 	0
0.05045045 	1.8010013e-07 	0.018574438 	0.99890024 	0 	0 	0 	0 	0
0.052552553 	1.7960334e-07 	0.018897575 	0.99884118 	0 	0 	0 	0 	0
0.054654655 	1.7910655e-07 	0.019220712 	0.99878212 	0 	0 	0 	0 	0
0.056756757 	1.7857003e-07 	0.019592516 	0.99871086 	0 	-3.1733272e-38 	0 	0 	0
0.058858859 	1.7800219e-07 	0.02000269 	0.99862999 	0 	-8.848453e-38 	0 	0 	0
0.060960961 	1.7743435e-07 	0.020412864 	0.99854912 	0 	-1.4523579e-37 	0 	0 	0
0.063063063 	1.7683905e-07 	0.020873475 	0.99845538 	0 	-1.7785776e-37 	0 	0 	0
0.065165165 	1.7620664e-07 	0.021402276 	0.99834427 	0 	-1.7785755e-37 	0 	0 	0
0.067267267 	1.7557423e-07 	0.021931077 	0.99823315 	0 	-1.7785733e-37 	0 	0 	0
0.069369369 	1.7491349e-07 	0.022553365 	0.99809219 	0 	-1.3784621e-37 	0 	0 	0
0.071471471 	1.7423256e-07 	0.023242308 	0.99792995 	0 	-6.930787e-38 	0 	0 	0
0.073573574 	1.7355163e-07 	0.02393125 	0.99776772 	0 	-7.6953011e-40 	0 	0 	0
0.075675676 	1.728396e-07 	0.024867177 	0.99754263 	0 	0 	0 	0 	0
0.077777778 	1.7212722e-07 	0.025805908 	0.99731683 	0 	0 	0 	0 	0
0.07987988 	1.7143995e-07 	0.026939513 	0.99699269 	0 	0 	0 	0 	0
0.081981982 	1.7076958e-07 	0.028204135 	0.99660243 	0 	0 	0 	0 	0
0.084084084 	1.7006964e-07 	0.029743171 	0.99616174 	0 	0 	0 	0 	0
0.086186186 	1.6931988e-07 	0.031744452 	0.99563609 	0 	0 	0 	0 	0
0.088288288 	1.6856029e-07 	0.033910762 	0.994898 	0 	0 	0 	0 	0
0.09039039 	1.6777497e-07 	0.03650954 	0.99360318 	0 	0 	0 	0 	0
0.092492492 	1.5542241e-07 	0.042503931 	0.99249478 	0 	0 	0 	0 	0
0.094594595 	1.1256866e-07 	0.057452078 	0.99187794 	0 	0 	0 	0 	0
0.096696697 	6.9446554e-08 	0.068212044 	0.90416428 	0 	0 	-0.0042325068 	-0.00021950768 	0
0.098798799 	2.5794741e-08 	0.070704976 	0.64453058 	0 	0 	-0.016819541 	-0.00087230063 	0
0.1009009 	6.5978365e-10 	0.058015988 	0.38474994 	0 	0 	-0.026110076 	-0.0012547916 	0
0.103003 	2.1396606e-10 	0.025084438 	0.12477337 	0 	0 	-0.03100528 	-0.0012768798 	0
0.10510511 	0 	0.001799294 	0 	0 	0 	-0.028609245 	-0.00095101725 	0
0.10720721 	0 	-0.012583586 	0 	0 	0 	-0.019484432 	-0.00030404557 	0
0.10930931 	0 	-0.013626258 	0 	0 	0 	-0.014585981 	-2.985135e-05 	0
0.11141141 	0 	-0.0056307269 	0 	0 	0 	-0.012550958 	-8.219802e-06 	0
0.11351351 	0 	-0.0018925622 	0 	0 	0 	-0.011290873 	-6.2288721e-07 	0
0.11561562 	0 	-0.00038547487 	0 	0 	0 	-0.010436895 	-3.8083598e-07 	0
0.11771772 	0 	0.00051130579 	0 	0 	0 	-0.0098163731 	-2.6994185e-07 	0
0.11981982 	0 	0.0011459221 	0 	0 	0 	-0.0092961356 	-2.1538778e-07 	0
0.12192192 	0 	0.0015147403 	0 	0 	0 	-0.0088830034 	-1.812886e-07 	0
0.12402402 	0 	0.0017830344 	0 	0 	0 	-0.0085103782 	-1.5492541e-07 	0
0.12612613 	0 	0.0019824221 	0 	0 	0 	-0.008198849 	-1.3637378e-07 	0
0.12822823 	0 	0.0021567995 	0 	0 	0 	-0.0079094954 	-1.2065744e-07 	0
0.13033033 	0 	0.0022813571 	0 	0 	0 	-0.0076621576 	-1.084361e-07 	0
0.13243243 	0 	0.0023868434 	0 	0 	0 	-0.0074309036 	-9.7552663e-08 	0
0.13453453 	0 	0.0024672632 	0 	0 	0 	-0.0072279156 	-8.8838453e-08 	0
0.13663664 	0 	0.0025365942 	0 	0 	0 	-0.0070374318 	-8.1083868e-08 	0
0.13873874 	0 	0.0025906864 	0 	0 	0 	-0.006866489 	-7.4594362e-08 	0
0.14084084 	0 	0.0026363315 	0 	0 	0 	-0.0067063783 	-6.8806125e-08 	0
0.14294294 	0 	0.0026735054 	0 	0 	0 	-0.0065595945 	-6.3786948e-08 	0
0.14504505 	0 	0.0027043567 	0 	0 	0 	-0.0064227573 	-5.9341761e-08 	0
0.14714715 	0 	0.0027304236 	0 	0 	0 	-0.0062947366 	-5.53516e-08 	0
0.14924925 	0 	0.0027513136 	0 	0 	0 	-0.0061762557 	-5.1853795e-08 	0
0.15135135 	0 	0.0027696962 	0 	0 	0 	-0.0060631683 	-4.8661732e-08 	0
0.15345345 	0 	0.0027837282 	0 	0 	0 	-0.0059594399 	-4.6000207e-08 	0
0.15555556 	0 	0.0027967058 	0 	0 	0 	-0.0058584654 	-4.3860901e-08 	0
0.15765766 	0 	0.0028061076 	0 	0 	0 	-0.0057668316 	-4.3492865e-08 	0
0.15975976 	0 	0.0028152593 	0 	0 	0 	-0.0056758601 	-4.3378477e-08 	0
0.16186186 	0 	0.0028208577 	0 	0 	0 	-0.0055942984 	-4.6868432e-08 	0
0.16396396 	0 	0.0028264562 	0 	0 	0 	-0.0055127368 	-5.0358387e-08 	0
0.16606607 	0 	0.0028298592 	0 	0 	0 	-0.0054385965 	-5.0755926e-08 	-5.9162518e-38
0.16816817 	0 	0.0028329597 	0 	0 	0 	-0.005365479 	-5.0727234e-08 	-1.2647949e-37
0.17027027 	0 	0.0028351577 	0 	0 	0 	-0.0052971499 	-4.7520462e-08 	-1.4895393e-37
0.17237237 	0 	0.0028369034 	0 	0 	0 	-0.0052312207 	-4.2720882e-08 	-1.4895395e-37
0.17447447 	0 	0.0028379796 	0 	0 	0 	-0.0051679372 	-3.8161875e-08 	-1.2092575e-37
0.17657658 	0 	0.0028381561 	0 	0 	0 	-0.0051082094 	-3.392619e-08 	-5.5228569e-38
0.17867868 	0 	0.0028380916 	0 	0 	0 	-0.0050493351 	-2.9932661e-08 	0
0.18078078 	0 	0.0028367554 	0 	0 	0 	-0.0049949635 	-2.7216656e-08 	0
0.18288288 	0 	0.0028354193 	0 	0 	0 	-0.004940592 	-2.4500652e-08 	0
0.18498498 	0 	0.0028333006 	0 	0 	0 	-0.0048902413 	-2.3202821e-08 	0
0.18708709 	0 	0.0028310581 	0 	0 	0 	-0.0048405273 	-2.2129587e-08 	0
0.18918919 	0 	0.0028284766 	0 	0 	0 	-0.0047930206 	-2.117531e-08 	0
0.19129129 	0 	0.0028256033 	0 	0 	0 	-0.004747414 	-2.0323442e-08 	0
0.19339339 	0 	0.0028226121 	0 	0 	0 	-0.0047024654 	-1.9502324e-08 	0
0.1954955 	0 	0.0028190853 	0 	0 	0 	-0.004660503 	-1.8820779e-08 	0
0.1975976 	0 	0.0028155584 	0 	0 	0 	-0.0046185406 	-1.8139235e-08 	0
0.1996997 	0 	0.0028115674 	0 	0 	0 	-0.0045791351 	-1.7550226e-08 	0
0.2018018 	0 	0.0028074541 	0 	0 	0 	-0.0045404025 	-1.6985574e-08 	0
0.2039039 	0 	0.0028031946 	0 	0 	0 	-0.0045027326 	-1.645545e-08 	0
0.20600601 	0 	0.0027986854 	0 	0 	0 	-0.0044668762 	-1.5984251e-08 	0
0.20810811 	0 	0.0027941762 	0 	0 	0 	-0.0044310198 	-1.5513052e-08 	0
0.21021021 	0 	0.002789419 	0 	0 	0 	-0.0043975216 	-1.5055255e-08 	0
0.21231231 	0 	0.0027846383 	0 	0 	0 	-0.0043642486 	-1.4598738e-08 	0
0.21441441 	0 	0.0027797672 	0 	0 	0 	-0.0043319586 	-1.4169521e-08 	0
0.21651652 	0 	0.0027747717 	0 	0 	0 	-0.0043010239 	-1.377794e-08 	0
0.21861862 	0 	0.0027697762 	0 	0 	0 	-0.0042700892 	-1.338636e-08 	0
0.22072072 	0 	0.0027645486 	0 	0 	0 	-0.0042410466 	-1.3030054e-08 	0
0.22282282 	0 	0.0027592927 	0 	0 	0 	-0.0042122358 	-1.2678069e-08 	0
0.22492492 	0 	0.002753948 	0 	0 	0 	-0.0041840462 	-1.2337622e-08 	0
0.22702703 	0 	0.0027484175 	0 	0 	0 	-0.0041571598 	-1.202137e-08 	0
0.22912913 	0 	0.0027428869 	0 	0 	0 	-0.0041302734 	-1.1705119e-08 	0
0.23123123 	0 	0.0027372202 	0 	0 	0 	-0.0041046363 	-1.1421181e-08 	0
0.23333333 	0 	0.0027314991 	0 	0 	0 	-0.0040794973 	-1.1150128e-08 	0
0.23543544 	0 	0.0027257697 	0 	0 	0 	-0.004054463 	-1.0880483e-08 	0
0.23753754 	0 	0.0027199193 	0 	0 	0 	-0.0040309216 	-1.063091e-08 	0
0.23963964 	0 	0.0027140689 	0 	0 	0 	-0.0040073801 	-1.0381338e-08 	0
0.24174174 	0 	0.002708182 	0 	0 	0 	-0.0039843859 	-1.0134384e-08 	0
0.24384384 	0 	0.0027022337 	0 	0 	0 	-0.0039623114 	-9.8918322e-09 	0
0.24594595 	0 	0.0026962854 	0 	0 	0 	-0.003940237 	-9.6492804e-09 	0
0.24804805 	0 	0.0026902826 	0 	0 	0 	-0.0039190233 	-9.4263555e-09 	0
0.25015015 	0 	0.0026842484 	0 	0 	0 	-0.0038983026 	-9.2146684e-09 	0
0.25225225 	0 	0.0026782143 	0 	0 	0 	-0.0038775819 	-9.0029814e-09 	0
0.25435435 	0 	0.0026720771 	0 	0 	0 	-0.0038579281 	-8.8109492e-09 	0
0.25645646 	0 	0.0026659222 	0 	0 	0 	-0.0038384591 	-8.6223215e-09 	0
0.25855856 	0 	0.0026597644 	0 	0 	0 	-0.0038190138 	-8.4337731e-09 	0
0.26066066 	0 	0.0026534753 	0 	0 	0 	-0.0038006999 	-8.2489879e-09 	0
0.26276276 	0 	0.0026471861 	0 	0 	0 	-0.0037823859 	-8.0642028e-09 	0
0.26486486 	0 	0.0026408821 	0 	0 	0 	-0.0037642201 	-7.8842576e-09 	0
0.26696697 	0 	0.0026344857 	0 	0 	0 	-0.0037469736 	-7.7343594e-09 	0
0.26906907 	0 	0.0026280893 	0 	0 	0 	-0.0037297272 	-7.5844612e-09 	0
0.27117117 	0 	0.002621675 	0 	0 	0 	-0.0037126837 	-7.4396563e-09 	0
0.27327327 	0 	0.0026151914 	0 	0 	0 	-0.0036964279 	-7.31463e-09 	0
0.27537538 	0 	0.0026087079 	0 	0 	0 	-0.0036801722 	-7.1896036e-09 	0
0.27747748 	0 	0.0026022084 	0 	0 	0 	-0.0036641162 	-7.0619616e-09 	0
0.27957958 	0 	0.0025956513 	0 	0 	0 	-0.0036487822 	-6.9248635e-09 	0
0.28168168 	0 	0.0025890943 	0 	0 	0 	-0.0036334482 	-6.7877654e-09 	0
0.28378378 	0 	0.002582527 	0 	0 	0 	-0.0036182624 	-6.6526363e-09 	0
0.28588589 	0 	0.0025759105 	0 	0 	0 	-0.0036037888 	-6.526969e-09 	0
0.28798799 	0 	0.002569294 	0 	0 	0 	-0.0035893152 	-6.4013016e-09 	0
0.29009009 	0 	0.0025626731 	0 	0 	0 	-0.0035748974 	-6.2767924e-09 	0
0.29219219 	0 	0.0025559925 	0 	0 	0 	-0.0035612305 	-6.1678586e-09 	0
0.29429429 	0 	0.002549312 	0 	0 	0 	-0.0035475635 	-6.0589248e-09 	0
0.2963964 	0 	0.0025426315 	0 	0 	0 	-0.0035338966 	-5.9499909e-09 	0
0.2984985 	0 	0.0025358661 	0 	0 	0 	-0.0035209145 	-5.8449611e-09 	0
0.3006006 	0 	0.0025290918 	0 	0 	0 	-0.0035080041 	-5.7403402e-09 	0
0.3027027 	0 	0.0025223175 	0 	0 	0 	-0.0034950937 	-5.6357193e-09 	0
0.3048048 	0 	0.0025154719 	0 	0 	0 	-0.0034826632 	-5.5454989e-09 	0
0.30690691 	0 	0.0025085924 	0 	0 	0 	-0.0034704609 	-5.4621299e-09 	0
0.30900901 	0 	0.0025017128 	0 	0 	0 	-0.0034582585 	-5.3787609e-09 	0
0.31111111 	0 	0.0024947958 	0 	0 	0 	-0.0034463112 	-5.3004573e-09 	0
0.31321321 	0 	0.0024878187 	0 	0 	0 	-0.0034347732 	-5.2302839e-09 	0
0.31531532 	0 	0.0024808416 	0 	0 	0 	-0.0034232352 	-5.1601105e-09 	0
0.31741742 	0 	0.0024738624 	0 	0 	0 	-0.0034117104 	-5.0894637e-09 	0
0.31951952 	0 	0.0024667866 	0 	0 	0 	-0.0034007978 	-4.9969421e-09 	0
0.32162162 	0 	0.0024597108 	0 	0 	0 	-0.0033898852 	-4.9044205e-09 	0
0.32372372 	0 	0.002452635 	0 	0 	0 	-0.0033789726 	-4.8118989e-09 	0
0.32582583 	0 	0.0024455004 	0 	0 	0 	-0.0033684057 	-4.7221201e-09 	0
0.32792793 	0 	0.0024383243 	0 	0 	0 	-0.0033580824 	-4.6342742e-09 	0
0.33003003 	0 	0.0024311483 	0 	0 	0 	-0.0033477592 	-4.5464283e-09 	0
0.33213213 	0 	0.002423965 	0 	0 	0 	-0.0033374788 	-4.4603291e-09 	0
0.33423423 	0 	0.0024166959 	0 	0 	0 	-0.0033277118 	-4.3951547e-09 	0
0.33633634 	0 	0.0024094269 	0 	0 	0 	-0.0033179448 	-4.3299804e-09 	0
0.33843844 	0 	0.0024021578 	0 	0 	0 	-0.0033081778 	-4.264806e-09 	0
0.34054054 	0 	0.0023948462 	0 	0 	0 	-0.0032986689 	-4.2013869e-09 	0
0.34264264 	0 	0.0023874904 	0 	0 	0 	-0.0032894295 	-4.1398002e-09 	0
0.34474474 	0 	0.0023801345 	0 	0 	0 	-0.00328019 	-4.0782134e-09 	0
0.34684685 	0 	0.0023727786 	0 	0 	0 	-0.0032709505 	-4.0166267e-09 	0
0.34894895 	0 	0.0023653414 	0 	0 	0 	-0.0032621228 	-3.9630426e-09 	0
0.35105105 	0 	0.0023578863 	0 	0 	0 	-0.0032533856 	-3.9112182e-09 	0
0.35315315 	0 	0.0023504312 	0 	0 	0 	-0.0032446484 	-3.8593938e-09 	0
0.35525526 	0 	0.0023429685 	0 	0 	0 	-0.0032359422 	-3.8073901e-09 	0
0.35735736 	0 	0.0023353961 	0 	0 	0 	-0.0032276825 	-3.7528047e-09 	0
0.35945946 	0 	0.0023278238 	0 	0 	0 	-0.0032194228 	-3.6982192e-09 	0
0.36156156 	0 	0.0023202515 	0 	0 	0 	-0.0032111631 	-3.6436338e-09 	0
0.36366366 	0 	0.0023126543 	0 	0 	0 	-0.0032030037 	-3.5898681e-09 	0
0.36576577 	0 	0.0023049695 	0 	0 	0 	-0.0031951979 	-3.5389933e-09 	0
0.36786787 	0 	0.0022972847 	0 	0 	0 	-0.0031873922 	-3.4881184e-09 	0
0.36996997 	0 	0.0022895999 	0 	0 	0 	-0.0031795864 	-3.4372436e-09 	0
0.37207207 	0 	0.0022818863 	0 	0 	0 	-0.0031719038 	-3.3900986e-09 	0
0.37417417 	0 	0.0022740997 	0 	0 	0 	-0.003164532 	-3.3523714e-09 	0
0.37627628 	0 	0.0022663131 	0 	0 	0 	-0.0031571602 	-3.3146443e-09 	0
0.37837838 	0 	0.0022585266 	0 	0 	0 	-0.0031497883 	-3.2769171e-09 	0
0.38048048 	0 	0.0022507147 	0 	0 	0 	-0.0031425201 	-3.2377821e-09 	0
0.38258258 	0 	0.0022428262 	0 	0 	0 	-0.0031355645 	-3.1943983e-09 	0
0.38468468 	0 	0.0022349378 	0 	0 	0 	-0.0031286089 	-3.1510146e-09 	0
0.38678679 	0 	0.0022270494 	0 	0 	0 	-0.0031216533 	-3.1076308e-09 	0
0.38888889 	0 	0.0022191503 	0 	0 	0 	-0.0031147424 	-3.0643543e-09 	0
0.39099099 	0 	0.0022111669 	0 	0 	0 	-0.0031081862 	-3.0219279e-09 	0
0.39309309 	0 	0.0022031836 	0 	0 	0 	-0.0031016299 	-2.9795015e-09 	0
0.3951952 	0 	0.0021952002 	0 	0 	0 	-0.0030950737 	-2.9370751e-09 	0
0.3972973 	0 	0.0021872168 	0 	0 	0 	-0.0030885175 	-2.8946487e-09 	0
0.3993994 	0 	0.0021791698 	0 	0 	0 	-0.0030822948 	-2.8538134e-09 	0
0.4015015 	0 	0.0021711131 	0 	0 	0 	-0.0030761229 	-2.8132198e-09 	0
0.4036036 	0 	0.0021630564 	0 	0 	0 	-0.0030699509 	-2.7726262e-09 	0
0.40570571 	0 	0.0021549997 	0 	0 	0 	-0.003063779 	-2.7320327e-09 	0
0.40780781 	0 	0.0021469237 	0 	0 	0 	-0.0030577977 	-2.6936897e-09 	0
0.40990991 	0 	0.0021388292 	0 	0 	0 	-0.0030519981 	-2.6574916e-09 	0
0.41201201 	0 	0.0021307347 	0 	0 	0 	-0.0030461985 	-2.6212934e-09 	0
0.41411411 	0 	0.0021226402 	0 	0 	0 	-0.0030403989 	-2.5850953e-09 	0
0.41621622 	0 	0.0021145454 	0 	0 	0 	-0.0030346133 	-2.5490508e-09 	0
0.41831832 	0 	0.0021064422 	0 	0 	0 	-0.0030291781 	-2.5168554e-09 	0
0.42042042 	0 	0.0020983391 	0 	0 	0 	-0.0030237428 	-2.4846599e-09 	0
0.42252252 	0 	0.0020902359 	0 	0 	0 	-0.0030183076 	-2.4524645e-09 	0
0.42462462 	0 	0.0020821327 	0 	0 	0 	-0.0030128724 	-2.4202691e-09 	0
0.42672673 	0 	0.0020740342 	0 	0 	0 	-0.0030075949 	-2.3854216e-09 	0
0.42882883 	0 	0.0020659416 	0 	0 	0 	-0.0030025171 	-2.3472164e-09 	0
0.43093093 	0 	0.0020578489 	0 	0 	0 	-0.0029974392 	-2.3090113e-09 	0
0.43303303 	0 	0.0020497563 	0 	0 	0 	-0.0029923614 	-2.2708061e-09 	0
0.43513514 	0 	0.0020416636 	0 	0 	0 	-0.0029872836 	-2.2326009e-09 	0
0.43723724 	0 	0.0020336145 	0 	0 	0 	-0.0029824562 	-2.1982382e-09 	0
0.43933934 	0 	0.0020255827 	0 	0 	0 	-0.0029777287 	-2.1654103e-09 	0
0.44144144 	0 	0.002017551 	0 	0 	0 	-0.0029730013 	-2.1325825e-09 	0
0.44354354 	0 	0.0020095192 	0 	0 	0 	-0.0029682739 	-2.0997547e-09 	0
0.44564565 	0 	0.0020014875 	0 	0 	0 	-0.0029635465 	-2.0669268e-09 	0
0.44774775 	0 	0.0019935717 	0 	0 	0 	-0.0029591136 	-2.035678e-09 	0
0.44984985 	0 	0.0019856761 	0 	0 	0 	-0.0029547321 	-2.0047045e-09 	0
0.45195195 	0 	0.0019777804 	0 	0 	0 	-0.0029503505 	-1.9737309e-09 	0
0.45405405 	0 	0.0019698848 	0 	0 	0 	-0.002945969 	-1.9427574e-09 	0
0.45615616 	0 	0.0019619892 	0 	0 	0 	-0.0029415874 	-1.9117839e-09 	0
0.45825826 	0 	0.001954278 	0 	0 	0 	-0.0029374966 	-1.8802388e-09 	0
0.46036036 	0 	0.0019466006 	0 	0 	0 	-0.0029334589 	-1.848589e-09 	0
0.46246246 	0 	0.0019389232 	0 	0 	0 	-0.0029294213 	-1.8169392e-09 	0
0.46456456 	0 	0.0019312458 	0 	0 	0 	-0.0029253837 	-1.7852894e-09 	0
0.46666667 	0 	0.0019235683 	0 	0 	0 	-0.002921346 	-1.7536397e-09 	0
0.46876877 	0 	0.0019161248 	0 	0 	0 	-0.0029175451 	-1.7218226e-09 	-3.7464972e-38
0.47087087 	0 	0.0019087875 	0 	0 	0 	-0.0029138514 	-1.6899298e-09 	-9.1924182e-38
0.47297297 	0 	0.0019014501 	0 	0 	0 	-0.0029101578 	-1.6580369e-09 	-1.4638339e-37
0.47507508 	0 	0.0018941127 	0 	0 	0 	-0.0029064642 	-1.626144e-09 	-2.008426e-37
0.47717718 	0 	0.0018867753 	0 	0 	0 	-0.0029027705 	-1.5942512e-09 	-2.5530181e-37
0.47927928 	0 	0.0018796296 	0 	0 	0 	-0.0028992059 	-1.5626833e-09 	-2.8951854e-37
0.48138138 	0 	0.001872808 	0 	0 	0 	-0.0028958594 	-1.5316648e-09 	-2.8951876e-37
0.48348348 	0 	0.0018659863 	0 	0 	0 	-0.0028925129 	-1.5006463e-09 	-2.8951898e-37
0.48558559 	0 	0.0018591647 	0 	0 	0 	-0.0028891664 	-1.4696278e-09 	-2.895192e-37
0.48768769 	0 	0.001852343 	0 	0 	0 	-0.0028858199 	-1.4386094e-09 	-2.8951943e-37
0.48978979 	0 	0.0018455213 	0 	0 	0 	-0.0028824734 	-1.4075909e-09 	-2.8951965e-37
0.49189189 	0 	0.0018393679 	0 	0 	0 	-0.0028794391 	-1.3847196e-09 	-2.4411363e-37
0.49399399 	0 	0.0018332988 	0 	0 	0 	-0.0028764442 	-1.3628779e-09 	-1.9296938e-37
0.4960961 	0 	0.0018272298 	0 	0 	0 	-0.0028734492 	-1.3410362e-09 	-1.4182513e-37
0.4981982 	0 	0.0018211608 	0 	0 	0 	-0.0028704543 	-1.3191945e-09 	-9.068088e-38
0.5003003 	0 	0.0018150918 	0 	0 	0 	-0.0028674594 	-1.2973528e-09 	-3.9536631e-38
0.5024024 	0 	0.0018092805 	0 	0 	0 	-0.0028645498 	-1.2858991e-09 	0
0.5045045 	0 	0.001804347 	0 	0 	0 	-0.0028619306 	-1.3098282e-09 	0
0.50660661 	0 	0.0017994136 	0 	0 	0 	-0.0028593115 	-1.3337572e-09 	0
0.50870871 	0 	0.0017944802 	0 	0 	0 	-0.0028566924 	-1.3576863e-09 	0
0.51081081 	0 	0.0017895468 	0 	0 	0 	-0.0028540733 	-1.3816153e-09 	0
0.51291291 	0 	0.0017846133 	0 	0 	0 	-0.0028514541 	-1.4055443e-09 	0
0.51501502 	0 	0.0017801307 	0 	0 	0 	-0.0028489825 	-1.4579839e-09 	0
0.51711712 	0 	0.001776386 	0 	0 	0 	-0.0028467525 	-1.5571022e-09 	0
0.51921922 	0 	0.0017726413 	0 	0 	0 	-0.0028445226 	-1.6562205e-09 	0
0.52132132 	0 	0.0017688967 	0 	0 	0 	-0.0028422926 	-1.7553387e-09 	0
0.52342342 	0 	0.001765152 	0 	0 	0 	-0.0028400626 	-1.854457e-09 	0
0.52552553 	0 	0.0017614073 	0 	0 	0 	-0.0028378326 	-1.9535752e-09 	0
0.52762763 	0 	0.0017581351 	0 	0 	0 	-0.0028357407 	-2.1861323e-09 	0
0.52972973 	0 	0.0017558063 	0 	0 	0 	-0.0028339245 	-2.6850738e-09 	0
0.53183183 	0 	0.0017534774 	0 	0 	0 	-0.0028321083 	-3.1840152e-09 	0
0.53393393 	0 	0.0017511485 	0 	0 	0 	-0.0028302922 	-3.6829567e-09 	0
0.53603604 	0 	0.0017488196 	0 	0 	0 	-0.002828476 	-4.1818981e-09 	0
0.53813814 	0 	0.0017464908 	0 	0 	0 	-0.0028266598 	-4.6808395e-09 	0
0.54024024 	0 	0.0017444218 	0 	0 	0 	-0.0028248779 	-5.1297735e-09 	0
0.54234234 	0 	0.0017453791 	0 	0 	0 	-0.0028234945 	-4.9963389e-09 	0
0.54444444 	0 	0.0017463364 	0 	0 	0 	-0.0028221111 	-4.8629044e-09 	0
0.54654655 	0 	0.0017472937 	0 	0 	0 	-0.0028207277 	-4.7294699e-09 	0
0.54864865 	0 	0.001748251 	0 	0 	0 	-0.0028193443 	-4.5960354e-09 	0
0.55075075 	0 	0.0017492083 	0 	0 	0 	-0.0028179609 	-4.4626009e-09 	0
0.55285285 	0 	0.0017501656 	0 	0 	0 	-0.0028165775 	-4.3291664e-09 	0
0.55495495 	0 	0.0017532178 	0 	0 	0 	-0.0028154809 	-3.9310224e-09 	0
0.55705706 	0 	0.0017576508 	0 	0 	0 	-0.0028145734 	-3.3583942e-09 	0
0.55915916 	0 	0.0017620839 	0 	0 	0 	-0.0028136659 	-2.785766e-09 	0
0.56126126 	0 	0.0017665169 	0 	0 	0 	-0.0028127583 	-2.2131378e-09 	0
0.56336336 	0 	0.0017709499 	0 	0 	0 	-0.0028118508 	-1.6405096e-09 	0
0.56546547 	0 	0.001775383 	0 	0 	0 	-0.0028109432 	-1.0678814e-09 	0
0.56756757 	0 	0.001779816 	0 	0 	0 	-0.0028100357 	-4.9525321e-10 	0
0.56966967 	0 	0.0017866606 	0 	0 	0 	-0.0028095966 	-3.8458341e-10 	0
0.57177177 	0 	0.0017937996 	0 	0 	0 	-0.0028092147 	-3.3031584e-10 	0
0.57387387 	0 	0.0018009386 	0 	0 	0 	-0.0028088327 	-2.7604828e-10 	0
0.57597598 	0 	0.0018080776 	0 	0 	0 	-0.0028084508 	-2.2178071e-10 	0
0.57807808 	0 	0.0018152166 	0 	0 	0 	-0.0028080689 	-1.6751315e-10 	0
0.58018018 	0 	0.0018223557 	0 	0 	0 	-0.0028076869 	-1.1324558e-10 	0
0.58228228 	0 	0.0018294947 	0 	0 	0 	-0.002807305 	-5.8978015e-11 	0
0.58438438 	0 	0.0018399699 	0 	0 	0 	-0.0028074224 	-2.3631429e-11 	0
0.58648649 	0 	0.0018506966 	0 	0 	0 	-0.0028075774 	1.0289512e-11 	0
0.58858859 	0 	0.0018614232 	0 	0 	0 	-0.0028077325 	4.4210454e-11 	0
0.59069069 	0 	0.0018721499 	0 	0 	0 	-0.0028078875 	7.8131395e-11 	0
0.59279279 	0 	0.0018828765 	0 	0 	0 	-0.0028080426 	1.1205234e-10 	0
0.59489489 	0 	0.0018936032 	0 	0 	0 	-0.0028081976 	1.4597328e-10 	0
0.596997 	0 	0.0019043298 	0 	0 	0 	-0.0028083526 	1.7989422e-10 	0
0.5990991 	0 	0.0019179761 	0 	0 	0 	-0.0028089078 	2.1452605e-10 	0
0.6012012 	0 	0.0019328549 	0 	0 	0 	-0.0028096319 	2.49458e-10 	0
0.6033033 	0 	0.0019477337 	0 	0 	0 	-0.0028103559 	2.8438994e-10 	0
0.60540541 	0 	0.0019626125 	0 	0 	0 	-0.00281108 	3.1932188e-10 	0
0.60750751 	0 	0.0019774913 	0 	0 	0 	-0.0028118041 	3.5425383e-10 	0
0.60960961 	0 	0.0019923702 	0 	0 	0 	-0.0028125281 	3.8918577e-10 	0
0.61171171 	0 	0.002007249 	0 	0 	0 	-0.0028132522 	4.2411771e-10 	0
0.61381381 	0 	0.0020229462 	0 	0 	0 	-0.0028140918 	4.5894088e-10 	0
0.61591592 	0 	0.0020420495 	0 	0 	0 	-0.0028154122 	4.933113e-10 	0
0.61801802 	0 	0.0020611528 	0 	0 	0 	-0.0028167327 	5.2768173e-10 	0
0.62012012 	0 	0.0020802561 	0 	0 	0 	-0.0028180531 	5.6205215e-10 	0
0.62222222 	0 	0.0020993594 	0 	0 	0 	-0.0028193735 	5.9642258e-10 	0
0.62432432 	0 	0.0021184627 	0 	0 	0 	-0.002820694 	6.3079301e-10 	0
0.62642643 	0 	0.0021375659 	0 	0 	0 	-0.0028220144 	6.6516343e-10 	0
0.62852853 	0 	0.0021566692 	0 	0 	0 	-0.0028233348 	6.9953386e-10 	0
0.63063063 	0 	0.0021772503 	0 	0 	0 	-0.002824887 	7.3294617e-10 	0
0.63273273 	0 	0.0022002118 	0 	0 	0 	-0.0028268123 	7.6481515e-10 	0
0.63483483 	0 	0.0022231733 	0 	0 	0 	-0.0028287376 	7.9668412e-10 	0
0.63693694 	0 	0.0022461348 	0 	0 	0 	-0.0028306629 	8.285531e-10 	0
0.63903904 	0 	0.0022690963 	0 	0 	0 	-0.0028325882 	8.6042207e-10 	0
0.64114114 	0 	0.0022920578 	0 	0 	0 	-0.0028345135 	8.9229105e-10 	0
0.64324324 	0 	0.0023150193 	0 	0 	0 	-0.0028364389 	9.2416002e-10 	0
0.64534535 	0 	0.0023379808 	0 	0 	0 	-0.0028383642 	9.5602899e-10 	0
0.64744745 	0 	0.0023616082 	0 	0 	0 	-0.0028404326 	9.8657419e-10 	0
0.64954955 	0 	0.0023872256 	0 	0 	0 	-0.0028429284 	1.0131641e-09 	0
0.65165165 	0 	0.002412843 	0 	0 	0 	-0.0028454243 	1.0397539e-09 	0
0.65375375 	0 	0.0024384603 	0 	0 	0 	-0.0028479202 	1.0663438e-09 	0
0.65585586 	0 	0.0024640777 	0 	0 	0 	-0.0028504161 	1.0929337e-09 	0
0.65795796 	0 	0.0024896951 	0 	0 	0 	-0.002852912 	1.1195236e-09 	0
0.66006006 	0 	0.0025153124 	0 	0 	0 	-0.0028554078 	1.1461134e-09 	0
0.66216216 	0 	0.0025409298 	0 	0 	0 	-0.0028579037 	1.1727033e-09 	0
0.66426426 	0 	0.0025665472 	0 	0 	0 	-0.0028603996 	1.1992932e-09 	0
0.66636637 	0 	0.0025924509 	0 	0 	0 	-0.0028632409 	1.2176842e-09 	2.3499521e-38
0.66846847 	0 	0.0026184378 	0 	0 	0 	-0.0028661826 	1.2336921e-09 	5.3829436e-38
0.67057057 	0 	0.0026444247 	0 	0 	0 	-0.0028691244 	1.2497e-09 	8.4159352e-38
0.67267267 	0 	0.0026704116 	0 	0 	0 	-0.0028720661 	1.2657079e-09 	1.1448927e-37
0.67477477 	0 	0.0026963986 	0 	0 	0 	-0.0028750078 	1.2817158e-09 	1.4481918e-37
0.67687688 	0 	0.0027223855 	0 	0 	0 	-0.0028779495 	1.2977237e-09 	1.751491e-37
0.67897898 	0 	0.0027483724 	0 	0 	0 	-0.0028808913 	1.3137316e-09 	2.0547901e-37
0.68108108 	0 	0.0027743593 	0 	0 	0 	-0.002883833 	1.3297395e-09 	2.3580893e-37
0.68318318 	0 	0.0028003462 	0 	0 	0 	-0.0028867747 	1.3457474e-09 	2.6613885e-37
0.68528529 	0 	0.0028237136 	0 	0 	0 	-0.0028898853 	1.346541e-09 	2.682339e-37
0.68738739 	0 	0.0028468867 	0 	0 	0 	-0.0028930083 	1.3462059e-09 	2.6823438e-37
0.68948949 	0 	0.0028700597 	0 	0 	0 	-0.0028961314 	1.3458709e-09 	2.6823487e-37
0.69159159 	0 	0.0028932328 	0 	0 	0 	-0.0028992545 	1.3455358e-09 	2.6823535e-37
0.69369369 	0 	0.0029164059 	0 	0 	0 	-0.0029023776 	1.3452007e-09 	2.6823584e-37
0.6957958 	0 	0.0029395789 	0 	0 	0 	-0.0029055007 	1.3448657e-09 	2.6823632e-37
0.6978979 	0 	0.002962752 	0 	0 	0 	-0.0029086238 	1.3445306e-09 	2.6823681e-37
0.7 	0 	0.002985925 	0 	0 	0 	-0.0029117469 	1.3441956e-09 	2.6823729e-37
0.7021021 	0 	0.0030090981 	0 	0 	0 	-0.0029148699 	1.3438605e-09 	2.6823778e-37
0.7042042 	0 	0.003028133 	0 	0 	0 	-0.0029178652 	1.3280044e-09 	2.4900743e-37
0.70630631 	0 	0.003045332 	0 	0 	0 	-0.0029208037 	1.3052619e-09 	2.2124466e-37
0.70840841 	0 	0.003062531 	0 	0 	0 	-0.0029237423 	1.2825194e-09 	1.934819e-37
0.71051051 	0 	0.0030797299 	0 	0 	0 	-0.0029266808 	1.2597768e-09 	1.6571913e-37
0.71261261 	0 	0.0030969289 	0 	0 	0 	-0.0029296194 	1.2370343e-09 	1.3795637e-37
0.71471471 	0 	0.0031141279 	0 	0 	0 	-0.0029325579 	1.2142918e-09 	1.101936e-37
0.71681682 	0 	0.0031313268 	0 	0 	0 	-0.0029354965 	1.1915493e-09 	8.2430834e-38
0.71891892 	0 	0.0031485258 	0 	0 	0 	-0.002938435 	1.1688067e-09 	5.4668068e-38
0.72102102 	0 	0.0031657247 	0 	0 	0 	-0.0029413736 	1.1460642e-09 	2.6905303e-38
0.72312312 	0 	0.0031826876 	0 	0 	0 	-0.0029442952 	1.1451437e-09 	0
0.72522523 	0 	0.0031922412 	0 	0 	0 	-0.0029466846 	1.8289495e-09 	0
0.72732733 	0 	0.0032017949 	0 	0 	0 	-0.0029490741 	2.5127553e-09 	0
0.72942943 	0 	0.0032113485 	0 	0 	0 	-0.0029514635 	3.1965612e-09 	0
0.73153153 	0 	0.0032209021 	0 	0 	0 	-0.002953853 	3.880367e-09 	0
0.73363363 	0 	0.0032304558 	0 	0 	0 	-0.0029562424 	4.5641728e-09 	0
0.73573574 	0 	0.0032400094 	0 	0 	0 	-0.0029586319 	5.2479786e-09 	0
0.73783784 	0 	0.0032495631 	0 	0 	0 	-0.0029610213 	5.9317845e-09 	0
0.73993994 	0 	0.0032591167 	0 	0 	0 	-0.0029634108 	6.6155903e-09 	0
0.74204204 	0 	0.0032686704 	0 	0 	0 	-0.0029658002 	7.2993961e-09 	0
0.74414414 	0 	0.003278224 	0 	0 	0 	-0.0029681897 	7.983202e-09 	0
0.74624625 	0 	0.0032790582 	0 	0 	0 	-0.0029698736 	8.062895e-09 	0
0.74834835 	0 	0.0032790672 	0 	0 	0 	-0.0029714907 	8.0854175e-09 	0
0.75045045 	0 	0.0032790762 	0 	0 	0 	-0.0029731079 	8.10794e-09 	0
0.75255255 	0 	0.0032790852 	0 	0 	0 	-0.002974725 	8.1304625e-09 	0
0.75465465 	0 	0.0032790942 	0 	0 	0 	-0.0029763422 	8.1529851e-09 	0
0.75675676 	0 	0.0032791032 	0 	0 	0 	-0.0029779593 	8.1755076e-09 	0
0.75885886 	0 	0.0032791123 	0 	0 	0 	-0.0029795764 	8.1980301e-09 	0
0.76096096 	0 	0.0032791213 	0 	0 	0 	-0.0029811936 	8.2205527e-09 	0
0.76306306 	0 	0.0032791303 	0 	0 	0 	-0.0029828107 	8.2430752e-09 	0
0.76516517 	0 	0.0032791393 	0 	0 	0 	-0.0029844279 	8.2655977e-09 	0
0.76726727 	0 	0.0032769179 	0 	0 	0 	-0.002985796 	8.0723258e-09 	0
0.76936937 	0 	0.0032696219 	0 	0 	0 	-0.0029865976 	7.3880748e-09 	0
0.77147147 	0 	0.0032623259 	0 	0 	0 	-0.0029873991 	6.7038237e-09 	0
0.77357357 	0 	0.0032550299 	0 	0 	0 	-0.0029882006 	6.0195726e-09 	0
0.77567568 	0 	0.0032477339 	0 	0 	0 	-0.0029890022 	5.3353215e-09 	0
0.77777778 	0 	0.0032404378 	0 	0 	0 	-0.0029898037 	4.6510704e-09 	0
0.77987988 	0 	0.0032331418 	0 	0 	0 	-0.0029906053 	3.9668193e-09 	0
0.78198198 	0 	0.0032258458 	0 	0 	0 	-0.0029914068 	3.2825682e-09 	0
0.78408408 	0 	0.0032185498 	0 	0 	0 	-0.0029922083 	2.5983171e-09 	0
0.78618619 	0 	0.0032112538 	0 	0 	0 	-0.0029930099 	1.914066e-09 	0
0.78828829 	0 	0.0032039578 	0 	0 	0 	-0.0029938114 	1.2298149e-09 	0
0.79039039 	0 	0.0031961784 	0 	0 	0 	-0.0029945006 	6.4876869e-10 	0
0.79249249 	0 	0.0031859905 	0 	0 	0 	-0.00299463 	5.8195963e-10 	0
0.79459459 	0 	0.0031758027 	0 	0 	0 	-0.0029947594 	5.1515056e-10 	0
0.7966967 	0 	0.0031656148 	0 	0 	0 	-0.0029948888 	4.4834149e-10 	0
0.7987988 	0 	0.003155427 	0 	0 	0 	-0.0029950181 	3.8153243e-10 	0
0.8009009 	0 	0.0031452391 	0 	0 	0 	-0.0029951475 	3.1472336e-10 	0
0.803003 	0 	0.0031350513 	0 	0 	0 	-0.0029952769 	2.4791429e-10 	0
0.80510511 	0 	0.0031248634 	0 	0 	0 	-0.0029954063 	1.8110522e-10 	0
0.80720721 	0 	0.0031146756 	0 	0 	0 	-0.0029955357 	1.1429616e-10 	0
0.80930931 	0 	0.0031044877 	0 	0 	0 	-0.002995665 	4.748709e-11 	0
0.81141141 	0 	0.0030942999 	0 	0 	0 	-0.0029957944 	-1.9321977e-11 	0
0.81351351 	0 	0.003084112 	0 	0 	0 	-0.0029959238 	-8.6131044e-11 	0
0.81561562 	0 	0.0030733832 	0 	0 	0 	-0.0029958527 	-1.2520078e-10 	0
0.81771772 	0 	0.0030620082 	0 	0 	0 	-0.0029955422 	-1.3113969e-10 	0
0.81981982 	0 	0.0030506332 	0 	0 	0 	-0.0029952318 	-1.3707859e-10 	0
0.82192192 	0 	0.0030392583 	0 	0 	0 	-0.0029949213 	-1.430175e-10 	0
0.82402402 	0 	0.0030278833 	0 	0 	0 	-0.0029946108 	-1.4895641e-10 	0
0.82612613 	0 	0.0030165084 	0 	0 	0 	-0.0029943003 	-1.5489532e-10 	0
0.82822823 	0 	0.0030051334 	0 	0 	0 	-0.0029939899 	-1.6083423e-10 	0
0.83033033 	0 	0.0029937584 	0 	0 	0 	-0.0029936794 	-1.6677314e-10 	0
0.83243243 	0 	0.0029823835 	0 	0 	0 	-0.0029933689 	-1.7271205e-10 	0
0.83453453 	0 	0.0029710085 	0 	0 	0 	-0.0029930584 	-1.7865096e-10 	0
0.83663664 	0 	0.0029596336 	0 	0 	0 	-0.002992748 	-1.8458987e-10 	0
0.83873874 	0 	0.0029482586 	0 	0 	0 	-0.0029924375 	-1.9052877e-10 	0
0.84084084 	0 	0.0029368959 	0 	0 	0 	-0.0029920951 	-1.9655761e-10 	0
0.84294294 	0 	0.0029256205 	0 	0 	0 	-0.0029915252 	-2.0322838e-10 	0
0.84504505 	0 	0.0029143452 	0 	0 	0 	-0.0029909553 	-2.0989915e-10 	0
0.84714715 	0 	0.0029030699 	0 	0 	0 	-0.0029903854 	-2.1656993e-10 	0
0.84924925 	0 	0.0028917946 	0 	0 	0 	-0.0029898155 	-2.232407e-10 	0
0.85135135 	0 	0.0028805193 	0 	0 	0 	-0.0029892456 	-2.2991147e-10 	0
0.85345345 	0 	0.0028692439 	0 	0 	0 	-0.0029886757 	-2.3658225e-10 	0
0.85555556 	0 	0.0028579686 	0 	0 	0 	-0.0029881058 	-2.4325302e-10 	0
0.85765766 	0 	0.0028466933 	0 	0 	0 	-0.0029875359 	-2.4992379e-10 	0
0.85975976 	0 	0.002835418 	0 	0 	0 	-0.002986966 	-2.5659457e-10 	0
0.86186186 	0 	0.0028241426 	0 	0 	0 	-0.0029863961 	-2.6326534e-10 	0
0.86396396 	0 	0.0028128673 	0 	0 	0 	-0.0029858262 	-2.6993611e-10 	0
0.86606607 	0 	0.002801592 	0 	0 	0 	-0.0029852563 	-2.7660689e-10 	0
0.86816817 	0 	0.0027904046 	0 	0 	0 	-0.0029846714 	-2.8284141e-10 	0
0.87027027 	0 	0.0027798942 	0 	0 	0 	-0.0029839712 	-2.857167e-10 	0
0.87237237 	0 	0.0027693837 	0 	0 	0 	-0.0029832711 	-2.88592e-10 	0
0.87447447 	0 	0.0027588733 	0 	0 	0 	-0.0029825709 	-2.9146729e-10 	0