0 	0 	0.00010958414 	0 	0 	0 	-0.0026717379 	-1.3039065e-08 	0
0.0001001001 	5.3925866e-13 	0.00011255121 	0.016428987 	1.3076746e-07 	1.5441338e-39 	0 	0 	0
0.0002002002 	2.0733702e-11 	0.00011412979 	0.031539185 	3.9025912e-07 	-1.9974888e-37 	0 	0 	0
0.0003003003 	1.764765e-10 	0.00011531458 	0.046189692 	7.7168103e-07 	0 	0 	0 	0
0.0004004004 	7.7871459e-10 	0.00011625998 	0.060584422 	1.2562015e-06 	0 	0 	0 	0
0.0005005005 	2.5438561e-09 	0.00011711055 	0.074791089 	1.8606503e-06 	0 	0 	0 	0
0.0006006006 	6.5783678e-09 	0.00011779986 	0.088865915 	2.5462674e-06 	0 	0 	0 	0
0.0007007007 	1.480341e-08 	0.00011849227 	0.10281465 	3.3608207e-06 	0 	0 	0 	0
0.0008008008 	2.9403296e-08 	0.00011912055 	0.11666159 	4.2707721e-06 	0 	0 	0 	0
0.0009009009 	5.3659063e-08 	0.00011969451 	0.13040767 	5.2767803e-06 	0 	0 	0 	0
0.001001001 	9.1161696e-08 	0.00012022322 	0.14405194 	6.3750867e-06 	0 	0 	0 	0
0.0011011011 	1.4433074e-07 	0.00012071479 	0.15759607 	7.5558822e-06 	0 	0 	0 	0
0.0012012012 	2.1840831e-07 	0.00012123351 	0.17101391 	8.8607487e-06 	0 	0 	0 	0
0.0013013013 	3.2472349e-07 	0.00012172449 	0.18425921 	1.0278149e-05 	0 	0 	0 	0
0.0014014014 	4.5118729e-07 	0.00012213152 	0.197405 	1.1710373e-05 	0 	0 	0 	0
0.0015015015 	6.1721135e-07 	0.00012265026 	0.21032014 	1.3328498e-05 	0 	0 	0 	0
0.0016016016 	8.1446377e-07 	0.0001230152 	0.22306888 	1.4924821e-05 	0 	0 	0 	0
0.0017017017 	1.0467427e-06 	0.00012350879 	0.23559079 	1.6685203e-05 	0 	0 	0 	0
0.0018018018 	1.3132176e-06 	0.00012384129 	0.24789747 	1.841032e-05 	0 	0 	0 	0
0.0019019019 	1.6201379e-06 	0.00012431362 	0.25990069 	2.0304576e-05 	0 	0 	0 	0
0.002002002 	1.9406438e-06 	0.00012462041 	0.27181189 	2.2119358e-05 	0 	0 	0 	0
0.0021021021 	2.3208885e-06 	0.00012507427 	0.28317104 	2.4130917e-05 	0 	0 	0 	0
0.0022022022 	2.7017533e-06 	0.00012546388 	0.2945356 	2.6106426e-05 	0 	0 	0 	0
0.0023023023 	3.1167234e-06 	0.00012579683 	0.30546473 	2.811281e-05 	0 	0 	0 	0
0.0024024024 	3.5537136e-06 	0.00012623297 	0.31608325 	3.0220076e-05 	0 	0 	0 	0
0.0025025025 	3.9917886e-06 	0.00012656253 	0.32670957 	3.2276164e-05 	0 	0 	0 	0
0.0026026026 	4.4454343e-06 	0.00012690425 	0.33679625 	3.4399193e-05 	0 	0 	0 	0
0.0027027027 	4.9055084e-06 	0.00012732103 	0.34663053 	3.6586256e-05 	0 	0 	0 	0
0.0028028028 	5.3659932e-06 	0.00012768347 	0.35646835 	3.8753083e-05 	0 	0 	0 	0
0.0029029029 	5.8274304e-06 	0.0001279447 	0.36599832 	4.091556e-05 	1.8203208e-36 	0 	0 	0
0.003003003 	6.2881471e-06 	0.00012833835 	0.37505019 	4.3177143e-05 	6.3589482e-36 	0 	0 	0
0.0031031031 	6.7488638e-06 	0.000128732 	0.38410205 	4.5438725e-05 	1.0897576e-35 	0 	0 	0
0.0032032032 	7.2105295e-06 	0.00012898468 	0.39316249 	4.7665828e-05 	1.2630308e-35 	0 	0 	0
0.0033033033 	7.6708811e-06 	0.00012928845 	0.40168967 	4.9962199e-05 	1.2633451e-35 	0 	0 	0
0.0034034034 	8.1303798e-06 	0.00012965422 	0.40997514 	5.2299217e-05 	1.2638006e-35 	0 	0 	0
0.0035035035 	8.5898785e-06 	0.00013001998 	0.41826062 	5.4636234e-05 	1.264256e-35 	0 	0 	0
0.0036036036 	9.0503172e-06 	0.00013027163 	0.42655274 	5.6962165e-05 	1.2644626e-35 	0 	0 	0
0.0037037037 	9.5058446e-06 	0.00013051627 	0.43447126 	5.9325832e-05 	9.1803492e-36 	0 	0 	0
0.0038038038 	9.9556309e-06 	0.00013084946 	0.4420074 	6.1736845e-05 	2.2220573e-36 	0 	0 	0
0.0039039039 	1.0405417e-05 	0.00013118265 	0.44954354 	6.4147857e-05 	-4.7362346e-36 	0 	0 	0
0.004004004 	1.0855203e-05 	0.00013151583 	0.45707967 	6.655887e-05 	-1.1694526e-35 	0 	0 	0
0.0041041041 	1.1306301e-05 	0.00013167222 	0.46462597 	6.8984969e-05 	-1.2070225e-35 	0 	0 	0
0.0042042042 	1.1734786e-05 	0.0001319324 	0.47161121 	7.1455573e-05 	-1.2072943e-35 	0 	0 	0
0.0043043043 	1.2156169e-05 	0.00013222824 	0.4784206 	7.3939843e-05 	-1.2076511e-35 	0 	0 	0
0.0044044044 	1.2577551e-05 	0.00013252407 	0.48522999 	7.6424113e-05 	-1.2080079e-35 	0 	0 	0
0.0045045045 	1.2998933e-05 	0.00013281991 	0.49203938 	7.8908383e-05 	-1.2083648e-35 	0 	0 	0
0.0046046046 	1.3421002e-05 	0.00013299439 	0.4988561 	8.1432721e-05 	-1.2084544e-35 	0 	0 	0
0.0047047047 	1.3823332e-05 	0.00013317758 	0.50538503 	8.3982704e-05 	-9.4002368e-36 	0 	0 	0
0.0048048048 	1.4197007e-05 	0.00013343167 	0.51149747 	8.6550202e-05 	-2.8640978e-36 	0 	0 	0
0.0049049049 	1.4570683e-05 	0.00013368577 	0.51760992 	8.9117699e-05 	3.6720412e-36 	0 	0 	0
0.005005005 	1.4944358e-05 	0.00013393986 	0.52372237 	9.1685197e-05 	1.020818e-35 	0 	0 	0
0.0051051051 	1.5318033e-05 	0.00013419396 	0.52983482 	9.4252694e-05 	1.6744319e-35 	0 	0 	0
0.0052052052 	1.5692195e-05 	0.00013432982 	0.53595532 	9.6899282e-05 	2.0941827e-35 	0 	0 	0
0.0053053053 	1.6041646e-05 	0.00013448226 	0.54183448 	9.9561623e-05 	2.2946048e-35 	0 	0 	0
0.0054054054 	1.634809e-05 	0.00013469221 	0.54729279 	0.00010223211 	2.1711063e-35 	0 	0 	0
0.0055055055 	1.6654534e-05 	0.00013490216 	0.5527511 	0.00010490259 	2.0476078e-35 	0 	0 	0
0.0056056056 	1.6960978e-05 	0.00013511211 	0.55820941 	0.00010757308 	1.9241092e-35 	0 	0 	0
0.0057057057 	1.7267422e-05 	0.00013532205 	0.56366772 	0.00011024356 	1.8006107e-35 	0 	0 	0
0.0058058058 	1.7573853e-05 	0.00013550616 	0.5691282 	0.00011294426 	1.628713e-35 	0 	0 	0
0.0059059059 	1.7880245e-05 	0.00013561016 	0.5745954 	0.00011573859 	1.306812e-35 	0 	0 	0
0.006006006 	1.8142942e-05 	0.0001357474 	0.57973912 	0.00011853486 	9.0780349e-36 	0 	0 	0
0.0061061061 	1.8367818e-05 	0.00013591339 	0.58460281 	0.00012133281 	4.4204962e-36 	0 	0 	0
0.0062062062 	1.8592694e-05 	0.00013607939 	0.58946651 	0.00012413075 	-2.3704242e-37 	0 	0 	0
0.0063063063 	1.881757e-05 	0.00013624538 	0.5943302 	0.0001269287 	-4.8945811e-36 	0 	0 	0
0.0064064064 	1.9042446e-05 	0.00013641138 	0.5991939 	0.00012972665 	-9.5521197e-36 	0 	0 	0
0.0065065065 	1.9267322e-05 	0.00013657737 	0.6040576 	0.00013252459 	-1.4209658e-35 	0 	0 	0
0.0066066066 	1.9491839e-05 	0.00013668572 	0.60892796 	0.00013543725 	-1.7648582e-35 	0 	0 	0
0.0067067067 	1.9716236e-05 	0.00013677484 	0.61380055 	0.00013838817 	-2.0681045e-35 	0 	0 	0
0.0068068068 	1.9875559e-05 	0.00013689329 	0.6182301 	0.00014134695 	-2.0432075e-35 	0 	0 	0
0.0069069069 	2.002063e-05 	0.00013701815 	0.62256263 	0.00014430745 	-1.9464477e-35 	0 	0 	0
0.007007007 	2.0165701e-05 	0.00013714302 	0.62689517 	0.00014726796 	-1.8496879e-35 	0 	0 	0
0.0071071071 	2.0310771e-05 	0.00013726788 	0.6312277 	0.00015022846 	-1.7529281e-35 	0 	0 	0
0.0072072072 	2.0455842e-05 	0.00013739275 	0.63556023 	0.00015318896 	-1.6561683e-35 	0 	0 	0
0.0073073073 	2.0600913e-05 	0.00013751761 	0.63989276 	0.00015614947 	-1.5594085e-35 	0 	0 	0
0.0074074074 	2.0745801e-05 	0.00013762851 	0.64422784 	0.00015915902 	-1.4185883e-35 	0 	0 	0
0.0075075075 	2.0890226e-05 	0.00013770409 	0.64856932 	0.00016229258 	-1.1663822e-35 	0 	0 	0
0.0076076076 	2.1027559e-05 	0.00013778114 	0.65286071 	0.00016542994 	-9.2710715e-36 	0 	0 	0
0.0077077077 	2.1103501e-05 	0.00013787082 	0.65671832 	0.00016860025 	-7.9978418e-36 	0 	0 	0
0.0078078078 	2.1179443e-05 	0.00013796051 	0.66057593 	0.00017177055 	-6.724612e-36 	0 	0 	0
0.0079079079 	2.1255385e-05 	0.0001380502 	0.66443354 	0.00017494086 	-5.4513822e-36 	0 	0 	0
0.008008008 	2.1331327e-05 	0.00013813988 	0.66829114 	0.00017811116 	-4.1781525e-36 	0 	0 	0
0.0081081081 	2.1407269e-05 	0.00013822957 	0.67214875 	0.00018128147 	-2.9049227e-36 	0 	0 	0
0.0082082082 	2.1483211e-05 	0.00013831926 	0.67600636 	0.00018445178 	-1.6316929e-36 	0 	0 	0
0.0083083083 	2.1559153e-05 	0.00013840895 	0.67986397 	0.00018762208 	-3.5846316e-37 	0 	0 	0
0.0084084084 	2.1634505e-05 	0.00013848063 	0.68372804 	0.00019092087 	0 	0 	0 	0
0.0085085085 	2.1709626e-05 	0.00013854526 	0.68759463 	0.00019427001 	0 	0 	0 	0
0.0086086086 	2.1772451e-05 	0.0001386095 	0.69134937 	0.00019763981 	0 	0 	0 	0
0.0087087087 	2.1799488e-05 	0.00013867262 	0.69477856 	0.00020106974 	0 	0 	0 	0
0.0088088088 	2.1826524e-05 	0.00013873575 	0.69820775 	0.00020449968 	0 	0 	0 	0
0.0089089089 	2.1853561e-05 	0.00013879887 	0.70163693 	0.00020792961 	0 	0 	0 	0
0.009009009 	2.1880598e-05 	0.00013886199 	0.70506612 	0.00021135955 	0 	0 	0 	0
0.0091091091 	2.1907635e-05 	0.00013892511 	0.70849531 	0.00021478948 	0 	0 	0 	0
0.0092092092 	2.1934672e-05 	0.00013898824 	0.7119245 	0.00021821942 	0 	0 	0 	0
0.0093093093 	2.1961709e-05 	0.00013905136 	0.71535368 	0.00022164935 	0 	0 	0 	0
0.0094094094 	2.1988746e-05 	0.00013911448 	0.71878287 	0.00022507929 	0 	0 	0 	0
0.0095095095 	2.2015277e-05 	0.00013917254 	0.72222006 	0.0002286628 	0 	0 	0 	0
0.0096096096 	2.204176e-05 	0.00013923011 	0.72565802 	0.00023226106 	0 	0 	0 	0
0.0097097097 	2.2065979e-05 	0.00013928614 	0.7290429 	0.00023587502 	0 	0 	0 	0
0.0098098098 	2.2075054e-05 	0.00013933183 	0.73207291 	0.00023959399 	0 	0 	0 	0
0.0099099099 	2.2084129e-05 	0.00013937752 	0.73510291 	0.00024331297 	0 	0 	0 	0
0.01001001 	2.2093204e-05 	0.0001394232 	0.73813291 	0.00024703194 	0 	0 	0 	0
0.01011011 	2.2102278e-05 	0.00013946889 	0.74116291 	0.00025075092 	0 	0 	0 	0
0.01021021 	2.2111353e-05 	0.00013951458 	0.74419291 	0.00025446989 	0 	0 	0 	0
0.01031031 	2.2120428e-05 	0.00013956027 	0.74722291 	0.00025818887 	0 	0 	0 	0
0.01041041 	2.2129503e-05 	0.00013960596 	0.75025292 	0.00026190784 	0 	0 	0 	0
0.010510511 	2.2138578e-05 	0.00013965164 	0.75328292 	0.00026562682 	0 	0 	0 	0
0.010610611 	2.2147653e-05 	0.00013969733 	0.75631292 	0.00026934579 	0 	0 	0 	0
0.010710711 	2.2156693e-05 	0.00013974954 	0.75934851 	0.00027316815 	0 	0 	0 	0
0.010810811 	2.2165718e-05 	0.00013980448 	0.76238644 	0.00027703394 	0 	0 	0 	0
0.010910911 	2.2174743e-05 	0.00013985942 	0.76542437 	0.00028089972 	0 	0 	0 	0
0.011011011 	2.2186071e-05 	0.00013990335 	0.76823896 	0.00028483539 	0 	0 	0 	0
0.011111111 	2.2199202e-05 	0.00013993866 	0.77087872 	0.00028882576 	0 	0 	0 	0
0.011211211 	2.2212334e-05 	0.00013997396 	0.77351847 	0.00029281614 	0 	0 	0 	0
0.011311311 	2.2225465e-05 	0.00014000927 	0.77615823 	0.00029680651 	0 	0 	0 	0
0.011411411 	2.2238597e-05 	0.00014004458 	0.77879798 	0.00030079688 	0 	0 	0 	0
0.011511512 	2.2251728e-05 	0.00014007988 	0.78143773 	0.00030478725 	0 	0 	0 	0
0.011611612 	2.226486e-05 	0.00014011519 	0.78407749 	0.00030877763 	0 	0 	0 	0
0.011711712 	2.2277991e-05 	0.0001401505 	0.78671724 	0.000312768 	0 	0 	0 	0
0.011811812 	2.2291122e-05 	0.00014018581 	0.789357 	0.00031675837 	0 	0 	0 	0
0.011911912 	2.2304254e-05 	0.00014022111 	0.79199675 	0.00032074875 	0 	0 	0 	0
0.012012012 	2.2317385e-05 	0.00014025642 	0.79463651 	0.00032473912 	0 	0 	0 	0
0.012112112 	2.2330742e-05 	0.00014031061 	0.79728203 	0.00032884498 	0 	0 	0 	0
0.012212212 	2.2344119e-05 	0.00014036662 	0.79992811 	0.00033296199 	0 	0 	0 	0
0.012312312 	2.2357497e-05 	0.00014042263 	0.80257419 	0.000337079 	0 	0 	0 	0
0.012412412 	2.2373559e-05 	0.00014046851 	0.80507736 	0.00034122371 	0 	0 	0 	0
0.012512513 	2.2394375e-05 	0.00014049642 	0.80732736 	0.00034541746 	0 	0 	0 	0
0.012612613 	2.241519e-05 	0.00014052432 	0.80957735 	0.00034961121 	0 	0 	0 	0
0.012712713 	2.2436006e-05 	0.00014055223 	0.81182735 	0.00035380497 	0 	0 	0 	0
0.012812813 	2.2456822e-05 	0.00014058014 	0.81407735 	0.00035799872 	0 	0 	0 	0
0.012912913 	2.2477638e-05 	0.00014060805 	0.81632735 	0.00036219248 	0 	0 	0 	0
0.013013013 	2.2498454e-05 	0.00014063596 	0.81857735 	0.00036638623 	0 	0 	0 	0
0.013113113 	2.251927e-05 	0.00014066387 	0.82082734 	0.00037057999 	0 	0 	0 	0
0.013213213 	2.2540086e-05 	0.00014069178 	0.82307734 	0.00037477374 	0 	0 	0 	0
0.013313313 	2.2560902e-05 	0.00014071969 	0.82532734 	0.0003789675 	0 	0 	0 	0
0.013413413 	2.2581717e-05 	0.0001407476 	0.82757734 	0.00038316125 	0 	0 	0 	0
0.013513514 	2.2602533e-05 	0.00014077551 	0.82982734 	0.00038735501 	0 	0 	0 	0
0.013613614 	2.2623452e-05 	0.00014081369 	0.8320787 	0.00039158829 	0 	0 	0 	0
0.013713714 	2.2644579e-05 	0.00014087271 	0.83433282 	0.00039590177 	0 	0 	0 	0
0.013813814 	2.2665706e-05 	0.00014093173 	0.83658694 	0.00040021525 	0 	0 	0 	0
0.013913914 	2.2686833e-05 	0.00014099075 	0.83884105 	0.00040452873 	0 	0 	0 	0
0.014014014 	2.2707474e-05 	0.00014103695 	0.84097221 	0.00040883706 	0 	0 	0 	0
0.014114114 	2.2727072e-05 	0.0001410557 	0.8428399 	0.00041313432 	0 	0 	0 	0
0.014214214 	2.2746671e-05 	0.00014107444 	0.84470759 	0.00041743159 	0 	0 	0 	0
0.014314314 	2.2766269e-05 	0.00014109318 	0.84657528 	0.00042172886 	0 	0 	0 	0
0.014414414 	2.2785868e-05 	0.00014111193 	0.84844297 	0.00042602613 	0 	0 	0 	0
0.014514515 	2.2805467e-05 	0.00014113067 	0.85031066 	0.00043032339 	0 	0 	0 	0
0.014614615 	2.2825065e-05 	0.00014114941 	0.85217835 	0.00043462066 	0 	0 	0 	0
0.014714715 	2.2844664e-05 	0.00014116816 	0.85404603 	0.00043891793 	0 	0 	0 	0
0.014814815 	2.2864262e-05 	0.0001411869 	0.85591372 	0.0004432152 	0 	0 	0 	0
0.014914915 	2.2883861e-05 	0.00014120564 	0.85778141 	0.00044751246 	0 	0 	0 	0
0.015015015 	2.290346e-05 	0.00014122438 	0.8596491 	0.00045180973 	0 	0 	0 	0
0.015115115 	2.2923058e-05 	0.00014124313 	0.86151679 	0.000456107 	0 	0 	0 	0
0.015215215 	2.2942657e-05 	0.00014126187 	0.86338448 	0.00046040427 	0 	0 	0 	0
0.015315315 	2.2962255e-05 	0.00014128061 	0.86525217 	0.00046470154 	0 	0 	0 	0
0.015415415 	2.298196e-05 	0.0001413308 	0.86712107 	0.00046908861 	0 	0 	0 	0
0.015515516 	2.3001704e-05 	0.00014139281 	0.86899043 	0.0004735095 	0 	0 	0 	0
0.015615616 	2.3021449e-05 	0.00014145483 	0.87085979 	0.00047793038 	0 	0 	0 	0
0.015715716 	2.3041193e-05 	0.00014151684 	0.87272914 	0.00048235126 	0 	0 	0 	0
0.015815816 	2.3057406e-05 	0.00014156756 	0.87452845 	0.00048674585 	0 	0 	0 	0
0.015915916 	2.3058952e-05 	0.00014157137 	0.87603677 	0.00049103118 	0 	0 	0 	0
0.016016016 	2.3060498e-05 	0.00014157518 	0.8775451 	0.00049531652 	0 	0 	0 	0
0.016116116 	2.3062044e-05 	0.00014157898 	0.87905342 	0.00049960185 	0 	0 	0 	0
0.016216216 	2.306359e-05 	0.00014158279 	0.88056175 	0.00050388719 	0 	0 	0 	0
0.016316316 	2.3065136e-05 	0.00014158659 	0.88207007 	0.00050817252 	0 	0 	0 	0
0.016416416 	2.3066682e-05 	0.0001415904 	0.8835784 	0.00051245786 	0 	0 	0 	0
0.016516517 	2.3068228e-05 	0.00014159421 	0.88508672 	0.00051674319 	0 	0 	0 	0
0.016616617 	2.3069774e-05 	0.00014159801 	0.88659505 	0.00052102853 	0 	0 	0 	0
0.016716717 	2.307132e-05 	0.00014160182 	0.88810337 	0.00052531387 	0 	0 	0 	0
0.016816817 	2.3072866e-05 	0.00014160563 	0.8896117 	0.0005295992 	0 	0 	0 	0
0.016916917 	2.3074412e-05 	0.00014160943 	0.89112002 	0.00053388454 	0 	0 	0 	0
0.017017017 	2.3075958e-05 	0.00014161324 	0.89262835 	0.00053816987 	0 	0 	0 	0
0.017117117 	2.3077504e-05 	0.00014161705 	0.89413667 	0.00054245521 	0 	0 	0 	0
0.017217217 	2.307905e-05 	0.00014162085 	0.895645 	0.00054674054 	0 	0 	0 	0
0.017317317 	2.3080596e-05 	0.00014162466 	0.89715332 	0.00055102588 	0 	0 	0 	0
0.017417417 	2.308111e-05 	0.00014167845 	0.89866144 	0.00055542094 	0 	0 	0 	0
0.017517518 	2.3081424e-05 	0.00014174185 	0.90016951 	0.00055983709 	0 	0 	0 	0
0.017617618 	2.3081739e-05 	0.00014180524 	0.90167759 	0.00056425324 	0 	0 	0 	0
0.017717718 	2.3082054e-05 	0.00014186864 	0.90318566 	0.00056866939 	0 	0 	0 	0
0.017817818 	2.3082368e-05 	0.00014193204 	0.90469374 	0.00057308554 	0 	0 	0 	0
0.017917918 	2.3039857e-05 	0.0001419394 	0.90597725 	0.00057737797 	0 	0 	0 	0
0.018018018 	2.2980541e-05 	0.00014192478 	0.90717265 	0.00058162185 	0 	0 	0 	0
0.018118118 	2.2921226e-05 	0.00014191016 	0.90836805 	0.00058586573 	0 	0 	0 	0
0.018218218 	2.2861911e-05 	0.00014189554 	0.90956345 	0.00059010961 	0 	0 	0 	0
0.018318318 	2.2802595e-05 	0.00014188092 	0.91075885 	0.00059435349 	0 	0 	0 	0
0.018418418 	2.274328e-05 	0.0001418663 	0.91195425 	0.00059859738 	0 	0 	0 	0
0.018518519 	2.2683965e-05 	0.00014185168 	0.91314965 	0.00060284126 	0 	0 	0 	0
0.018618619 	2.2624649e-05 	0.00014183706 	0.91434505 	0.00060708514 	0 	0 	0 	0
0.018718719 	2.2565334e-05 	0.00014182244 	0.91554045 	0.00061132902 	0 	0 	0 	0
0.018818819 	2.2506018e-05 	0.00014180782 	0.91673585 	0.0006155729 	0 	0 	0 	0
0.018918919 	2.2446703e-05 	0.0001417932 	0.91793125 	0.00061981679 	0 	0 	0 	0
0.019019019 	2.2387388e-05 	0.00014177858 	0.91912665 	0.00062406067 	0 	0 	0 	0
0.019119119 	2.2328072e-05 	0.00014176395 	0.92032205 	0.00062830455 	0 	0 	0 	0
0.019219219 	2.2268757e-05 	0.00014174933 	0.92151746 	0.00063254843 	0 	0 	0 	0
0.019319319 	2.2209441e-05 	0.00014173471 	0.92271286 	0.00063679231 	0 	0 	0 	0
0.019419419 	2.2150126e-05 	0.00014172009 	0.92390826 	0.0006410362 	0 	0 	0 	0
0.01951952 	2.2090811e-05 	0.00014170547 	0.92510366 	0.00064528008 	0 	0 	0 	0
0.01961962 	2.2029657e-05 	0.00014171986 	0.92629873 	0.00064957067 	0 	0 	0 	0
0.01971972 	2.1965381e-05 	0.00014178352 	0.92749323 	0.00065394061 	0 	0 	0 	0
0.01981982 	2.1901104e-05 	0.00014184717 	0.92868774 	0.00065831055 	0 	0 	0 	0
0.01991992 	2.1836828e-05 	0.00014191083 	0.92988225 	0.00066268049 	0 	0 	0 	0
0.02002002 	2.1772552e-05 	0.00014197449 	0.93107676 	0.00066705042 	0 	0 	0 	0
0.02012012 	2.1708275e-05 	0.00014203814 	0.93227127 	0.00067142036 	0 	0 	0 	0
0.02022022 	2.1611283e-05 	0.00014204677 	0.93331479 	0.00067570354 	0 	0 	0 	0
0.02032032 	2.1491134e-05 	0.00014201644 	0.93425143 	0.0006799253 	0 	0 	0 	0
0.02042042 	2.1370985e-05 	0.00014198611 	0.93518808 	0.00068414707 	0 	0 	0 	0
0.020520521 	2.1250836e-05 	0.00014195578 	0.93612473 	0.00068836883 	0 	0 	0 	0
0.020620621 	2.1130687e-05 	0.00014192545 	0.93706138 	0.0006925906 	0 	0 	0 	0
0.020720721 	2.1010538e-05 	0.00014189513 	0.93799803 	0.00069681237 	0 	0 	0 	0
0.020820821 	2.089039e-05 	0.0001418648 	0.93893468 	0.00070103413 	0 	0 	0 	0
0.020920921 	2.0770241e-05 	0.00014183447 	0.93987133 	0.0007052559 	0 	0 	0 	0
0.021021021 	2.0650092e-05 	0.00014180414 	0.94080797 	0.00070947766 	0 	0 	0 	0
0.021121121 	2.0529943e-05 	0.00014177381 	0.94174462 	0.00071369943 	0 	0 	0 	0
0.021221221 	2.0409794e-05 	0.00014174348 	0.94268127 	0.0007179212 	0 	0 	0 	0
0.021321321 	2.0289645e-05 	0.00014171316 	0.94361792 	0.00072214296 	0 	0 	0 	0
0.021421421 	2.0169496e-05 	0.00014168283 	0.94455457 	0.00072636473 	0 	0 	0 	0
0.021521522 	2.0049347e-05 	0.0001416525 	0.94549122 	0.00073058649 	0 	0 	0 	0
0.021621622 	1.9929198e-05 	0.00014162217 	0.94642787 	0.00073480826 	0 	0 	0 	0
0.021721722 	1.980905e-05 	0.00014159184 	0.94736451 	0.00073903003 	0 	0 	0 	0
0.021821822 	1.9688901e-05 	0.00014156151 	0.94830116 	0.00074325179 	0 	0 	0 	0
0.021921922 	1.9568752e-05 	0.00014153119 	0.94923781 	0.00074747356 	0 	0 	0 	0
0.022022022 	1.9448603e-05 	0.00014150086 	0.95017446 	0.00075169532 	0 	0 	0 	0
0.022122122 	1.9328454e-05 	0.00014147053 	0.95111111 	0.00075591709 	0 	0 	0 	0
0.022222222 	1.920245e-05 	0.00014153446 	0.95204609 	0.00076024805 	0 	0 	0 	0
0.022322322 	1.907637e-05 	0.00014159962 	0.95298105 	0.00076458044 	0 	0 	0 	0
0.022422422 	1.8950289e-05 	0.00014166479 	0.95391601 	0.00076891284 	0 	0 	0 	0
0.022522523 	1.8824209e-05 	0.00014172996 	0.95485097 	0.00077324524 	0 	0 	0 	0
0.022622623 	1.8698128e-05 	0.00014179512 	0.95578592 	0.00077757763 	0 	0 	0 	0
0.022722723 	1.8572048e-05 	0.00014186029 	0.95672088 	0.00078191003 	0 	0 	0 	0
0.022822823 	1.8437683e-05 	0.00014187625 	0.95755291 	0.00078612369 	0 	0 	0 	0
0.022922923 	1.8293248e-05 	0.00014183239 	0.95825981 	0.00079019304 	0 	0 	0 	0
0.023023023 	1.8148814e-05 	0.00014178853 	0.95896672 	0.00079426239 	0 	0 	0 	0
0.023123123 	1.8004379e-05 	0.00014174468 	0.95967363 	0.00079833174 	0 	0 	0 	0
0.023223223 	1.7859944e-05 	0.00014170082 	0.96038054 	0.00080240109 	0 	0 	0 	0
0.023323323 	1.771551e-05 	0.00014165697 	0.96108745 	0.00080647044 	0 	0 	0 	0
0.023423423 	1.7571075e-05 	0.00014161311 	0.96179435 	0.00081053979 	0 	0 	0 	0
0.023523524 	1.742664e-05 	0.00014156926 	0.96250126 	0.00081460914 	0 	0 	0 	0
0.023623624 	1.7282206e-05 	0.0001415254 	0.96320817 	0.00081867849 	0 	0 	0 	0
0.023723724 	1.7137771e-05 	0.00014148154 	0.96391508 	0.00082274784 	0 	0 	0 	0
0.023823824 	1.6993337e-05 	0.00014143769 	0.96462198 	0.00082681718 	0 	0 	0 	0
0.023923924 	1.6848902e-05 	0.00014139383 	0.96532889 	0.00083088653 	0 	0 	0 	0
0.024024024 	1.6704467e-05 	0.00014134998 	0.9660358 	0.00083495588 	0 	0 	0 	0
0.024124124 	1.6560033e-05 	0.00014130612 	0.96674271 	0.00083902523 	0 	0 	0 	0
0.024224224 	1.6415598e-05 	0.00014126226 	0.96744961 	0.00084309458 	0 	0 	0 	0
0.024324324 	1.6271164e-05 	0.00014121841 	0.96815652 	0.00084716393 	0 	0 	0 	0
0.024424424 	1.6126729e-05 	0.00014117455 	0.96886343 	0.00085123328 	0 	0 	0 	0
0.024524525 	1.5982294e-05 	0.0001411307 	0.96957034 	0.00085530263 	0 	0 	0 	0
0.024624625 	1.583786e-05 	0.00014108684 	0.97027724 	0.00085937198 	0 	0 	0 	0
0.024724725 	1.5693425e-05 	0.00014104299 	0.97098415 	0.00086344133 	0 	0 	0 	0
0.024824825 	1.5548991e-05 	0.00014099913 	0.97169106 	0.00086751068 	0 	0 	0 	0
0.024924925 	1.5404556e-05 	0.00014095527 	0.97239797 	0.00087158003 	0 	0 	0 	0
0.025025025 	1.5258818e-05 	0.00014094611 	0.97310333 	0.0008756717 	0 	0 	0 	0
0.025125125 	1.5110176e-05 	0.00014101421 	0.97380526 	0.0008798131 	0 	0 	0 	0
0.025225225 	1.4961535e-05 	0.00014108231 	0.97450719 	0.00088395449 	0 	0 	0 	0
0.025325325 	1.4812893e-05 	0.00014115041 	0.97520911 	0.00088809589 	0 	0 	0 	0
0.025425425 	1.4664252e-05 	0.00014121851 	0.97591104 	0.00089223728 	0 	0 	0 	0
0.025525526 	1.451561e-05 	0.00014128661 	0.97661297 	0.00089637868 	0 	0 	0 	0
0.025625626 	1.4366969e-05 	0.00014135471 	0.9773149 	0.00090052007 	0 	0 	0 	0
0.025725726 	1.4218327e-05 	0.00014142281 	0.97801682 	0.00090466147 	0 	0 	0 	0
0.025825826 	1.4071798e-05 	0.00014137288 	0.97851393 	0.00090823131 	0 	0 	0 	0
0.025925926 	1.3925437e-05 	0.00014131355 	0.97899472 	0.0009117556 	0 	0 	0 	0
0.026026026 	1.3779075e-05 	0.00014125422 	0.97947551 	0.0009152799 	0 	0 	0 	0
0.026126126 	1.3632714e-05 	0.00014119489 	0.9799563 	0.00091880419 	0 	0 	0 	0
0.026226226 	1.3486353e-05 	0.00014113556 	0.98043709 	0.00092232849 	0 	0 	0 	0
0.026326326 	1.3339991e-05 	0.00014107623 	0.98091787 	0.00092585278 	0 	0 	0 	0
0.026426426 	1.319363e-05 	0.0001410169 	0.98139866 	0.00092937708 	0 	0 	0 	0
0.026526527 	1.3047269e-05 	0.00014095756 	0.98187945 	0.00093290137 	0 	0 	0 	0
0.026626627 	1.2900908e-05 	0.00014089823 	0.98236024 	0.00093642567 	0 	0 	0 	0
0.026726727 	1.2754546e-05 	0.0001408389 	0.98284103 	0.00093994996 	0 	0 	0 	0
0.026826827 	1.2608185e-05 	0.00014077957 	0.98332181 	0.00094347425 	0 	0 	0 	0
0.026926927 	1.2461824e-05 	0.00014072024 	0.9838026 	0.00094699855 	0 	0 	0 	0
0.027027027 	1.2315462e-05 	0.00014066091 	0.98428339 	0.00095052284 	0 	0 	0 	0
0.027127127 	1.2169101e-05 	0.00014060158 	0.98476418 	0.00095404714 	0 	0 	0 	0
0.027227227 	1.202274e-05 	0.00014054225 	0.98524497 	0.00095757143 	0 	0 	0 	0
0.027327327 	1.1876379e-05 	0.00014048291 	0.98572576 	0.00096109573 	0 	0 	0 	0
0.027427427 	1.1730017e-05 	0.00014042358 	0.98620654 	0.00096462002 	0 	0 	0 	0
0.027527528 	1.1583656e-05 	0.00014036425 	0.98668733 	0.00096814432 	0 	0 	0 	0
0.027627628 	1.1437295e-05 	0.00014030492 	0.98716812 	0.00097166861 	0 	0 	0 	0
0.027727728 	1.1290933e-05 	0.00014024559 	0.98764891 	0.0009751929 	0 	0 	0 	0
0.027827828 	1.1144572e-05 	0.00014018626 	0.9881297 	0.0009787172 	0 	0 	0 	0
0.027927928 	1.0998211e-05 	0.00014012693 	0.98861048 	0.00098224149 	0 	0 	0 	0
0.028028028 	1.0851849e-05 	0.00014006759 	0.98909127 	0.00098576579 	0 	0 	0 	0
0.028128128 	1.0705488e-05 	0.00014000826 	0.98957206 	0.00098929008 	0 	0 	0 	0
0.028228228 	1.0559127e-05 	0.00013994893 	0.99005285 	0.00099281438 	0 	0 	0 	0
0.028328328 	1.0411008e-05 	0.0001400074 	0.99052386 	0.00099634093 	0 	0 	0 	0
0.028428428 	1.026272e-05 	0.00014007728 	0.99099392 	0.0009998677 	0 	0 	0 	0
0.028528529 	1.0114431e-05 	0.00014014715 	0.99146398 	0.0010033945 	0 	0 	0 	0
0.028628629 	9.9661426e-06 	0.00014021703 	0.99193405 	0.0010069212 	0 	0 	0 	0
0.028728729 	9.817854e-06 	0.0001402869 	0.99240411 	0.001010448 	0 	0 	0 	0
0.028828829 	9.6695654e-06 	0.00014035677 	0.99287417 	0.0010139748 	0 	0 	0 	0
0.028928929 	9.5212767e-06 	0.00014042665 	0.99334424 	0.0010175016 	0 	0 	0 	0
0.029029029 	9.3729881e-06 	0.00014049652 	0.9938143 	0.0010210283 	0 	0 	0 	0
0.029129129 	9.2401428e-06 	0.00014047677 	0.99416567 	0.0010238362 	1.429268e-36 	0 	0 	0
0.029229229 	9.1189461e-06 	0.00014038943 	0.99442751 	0.0010261017 	3.9366023e-36 	0 	0 	0
0.029329329 	8.9977494e-06 	0.00014030208 	0.99468934 	0.0010283673 	6.4439367e-36 	0 	0 	0
0.029429429 	8.8765526e-06 	0.00014021474 	0.99495118 	0.0010306329 	8.951271e-36 	0 	0 	0
0.02952953 	8.7553559e-06 	0.00014012739 	0.99521302 	0.0010328984 	1.1458605e-35 	0 	0 	0
0.02962963 	8.6341592e-06 	0.00014004005 	0.99547486 	0.001035164 	1.396594e-35 	0 	0 	0
0.02972973 	8.5129625e-06 	0.0001399527 	0.9957367 	0.0010374295 	1.6473274e-35 	0 	0 	0
0.02982983 	8.3917657e-06 	0.00013986536 	0.99599854 	0.0010396951 	1.8980608e-35 	0 	0 	0
0.02992993 	8.270569e-06 	0.00013977801 	0.99626038 	0.0010419606 	2.1487943e-35 	0 	0 	0
0.03003003 	8.1493723e-06 	0.00013969067 	0.99652221 	0.0010442262 	2.3995277e-35 	0 	0 	0
0.03013013 	8.0281755e-06 	0.00013960332 	0.99678405 	0.0010464918 	2.6502611e-35 	0 	0 	0
0.03023023 	7.9069788e-06 	0.00013951597 	0.99704589 	0.0010487573 	2.9009946e-35 	0 	0 	0
0.03033033 	7.7857821e-06 	0.00013942863 	0.99730773 	0.0010510229 	3.151728e-35 	0 	0 	0
0.03043043 	7.6645853e-06 	0.00013934128 	0.99756957 	0.0010532884 	3.4024614e-35 	0 	0 	0
0.030530531 	7.5433886e-06 	0.00013925394 	0.99783141 	0.001055554 	3.6531949e-35 	0 	0 	0
0.030630631 	7.4221919e-06 	0.00013916659 	0.99809324 	0.0010578196 	3.9039283e-35 	0 	0 	0
0.030730731 	7.3009951e-06 	0.00013907925 	0.99835508 	0.0010600851 	4.1546618e-35 	0 	0 	0
0.030830831 	7.1797984e-06 	0.0001389919 	0.99861692 	0.0010623507 	4.4053952e-35 	0 	0 	0
0.030930931 	7.0586017e-06 	0.00013890456 	0.99887876 	0.0010646162 	4.6561286e-35 	0 	0 	0
0.031031031 	6.9374049e-06 	0.00013881721 	0.9991406 	0.0010668818 	4.9068621e-35 	0 	0 	0
0.031131131 	6.8162082e-06 	0.00013872987 	0.99940244 	0.0010691474 	5.1575955e-35 	0 	0 	0
0.031231231 	6.6950115e-06 	0.00013864252 	0.99966428 	0.0010714129 	5.4083289e-35 	0 	0 	0
0.031331331 	6.5738147e-06 	0.00013855518 	0.99992611 	0.0010736785 	5.6590624e-35 	0 	0 	0
0.031431431 	6.452618e-06 	0.00013846783 	1.000188 	0.001075944 	5.9097958e-35 	0 	0 	0
0.031531532 	6.3314213e-06 	0.00013838048 	1.0004498 	0.0010782096 	6.1605292e-35 	0 	0 	0
0.031631632 	6.2102245e-06 	0.00013829314 	1.0007116 	0.0010804751 	6.4112627e-35 	0 	0 	0
0.031731732 	6.0890278e-06 	0.00013820579 	1.0009735 	0.0010827407 	6.6619961e-35 	0 	0 	0
0.031831832 	5.9678311e-06 	0.00013811845 	1.0012353 	0.0010850063 	6.9127295e-35 	0 	0 	0
0.031931932 	5.8470092e-06 	0.00013807851 	1.0014927 	0.0010872602 	7.163463e-35 	0 	0 	0
0.032032032 	5.727022e-06 	0.00013814416 	1.0017403 	0.0010894884 	7.4141964e-35 	0 	0 	0
0.032132132 	5.6070347e-06 	0.0001382098 	1.0019879 	0.0010917165 	7.6649298e-35 	0 	0 	0
0.032232232 	5.4870475e-06 	0.00013827544 	1.0022354 	0.0010939447 	7.9156633e-35 	0 	0 	0
0.032332332 	5.3670603e-06 	0.00013834109 	1.002483 	0.0010961728 	8.1663967e-35 	0 	0 	0
0.032432432 	5.2470731e-06 	0.00013840673 	1.0027306 	0.001098401 	8.4171301e-35 	0 	0 	0
0.032532533 	5.1270859e-06 	0.00013847238 	1.0029781 	0.0011006291 	8.6678636e-35 	0 	0 	0
0.032632633 	5.0070987e-06 	0.00013853802 	1.0032257 	0.0011028573 	8.918597e-35 	0 	0 	0
0.032732733 	4.8871114e-06 	0.00013860366 	1.0034733 	0.0011050854 	9.1693304e-35 	0 	0 	0
0.032832833 	4.7671242e-06 	0.00013866931 	1.0037208 	0.0011073136 	9.4200639e-35 	0 	0 	0
0.032932933 	4.6876274e-06 	0.00013857646 	1.0038339 	0.001108345 	9.2676174e-35 	0 	0 	0
0.033033033 	4.6133503e-06 	0.00013846319 	1.0039296 	0.0011092221 	9.063195e-35 	0 	0 	0
0.033133133 	4.5390733e-06 	0.00013834991 	1.0040253 	0.0011100991 	8.8587726e-35 	0 	0 	0
0.033233233 	4.4647963e-06 	0.00013823664 	1.004121 	0.0011109762 	8.6543502e-35 	0 	0 	0
0.033333333 	4.3905192e-06 	0.00013812336 	1.0042167 	0.0011118533 	8.4499278e-35 	0 	0 	0
0.033433433 	4.3162422e-06 	0.00013801008 	1.0043124 	0.0011127304 	8.2455055e-35 	0 	0 	0
0.033533534 	4.2419652e-06 	0.00013789681 	1.0044081 	0.0011136075 	8.0410831e-35 	0 	0 	0
0.033633634 	4.1676881e-06 	0.00013778353 	1.0045038 	0.0011144846 	7.8366607e-35 	0 	0 	0
0.033733734 	4.0934111e-06 	0.00013767025 	1.0045995 	0.0011153617 	7.6322383e-35 	0 	0 	0
0.033833834 	4.0191341e-06 	0.00013755698 	1.0046952 	0.0011162387 	7.4278159e-35 	0 	0 	0
0.033933934 	3.944857e-06 	0.0001374437 	1.0047909 	0.0011171158 	7.2233936e-35 	0 	0 	0
0.034034034 	3.87058e-06 	0.00013733043 	1.0048866 	0.0011179929 	7.0189712e-35 	0 	0 	0
0.034134134 	3.796303e-06 	0.00013721715 	1.0049823 	0.00111887 	6.8145488e-35 	0 	0 	0
0.034234234 	3.7220259e-06 	0.00013710387 	1.005078 	0.0011197471 	6.6101264e-35 	0 	0 	0
0.034334334 	3.6477489e-06 	0.0001369906 	1.0051737 	0.0011206242 	6.4057041e-35 	0 	0 	0
0.034434434 	3.5734719e-06 	0.00013687732 	1.0052694 	0.0011215013 	6.2012817e-35 	0 	0 	0
0.034534535 	3.4991948e-06 	0.00013676404 	1.0053651 	0.0011223784 	5.9968593e-35 	0 	0 	0
0.034634635 	3.4249178e-06 	0.00013665077 	1.0054608 	0.0011232554 	5.7924369e-35 	0 	0 	0
0.034734735 	3.3506408e-06 	0.00013653749 	1.0055565 	0.0011241325 	5.5880145e-35 	0 	0 	0
0.034834835 	3.2763637e-06 	0.00013642422 	1.0056522 	0.0011250096 	5.3835922e-35 	0 	0 	0
0.034934935 	3.2020867e-06 	0.00013631094 	1.0057479 	0.0011258867 	5.1791698e-35 	0 	0 	0
0.035035035 	3.1278097e-06 	0.00013619766 	1.0058436 	0.0011267638 	4.9747474e-35 	0 	0 	0
0.035135135 	3.0535326e-06 	0.00013608439 	1.0059393 	0.0011276409 	4.770325e-35 	0 	0 	0
0.035235235 	2.9792556e-06 	0.00013597111 	1.006035 	0.001128518 	4.5659026e-35 	0 	0 	0
0.035335335 	2.9049786e-06 	0.00013585783 	1.0061307 	0.001129395 	4.3614803e-35 	0 	0 	0