# Region        : all region0
# Cells         : 13056
# Volume        : 2.33333000e+00
# Time          	max(nuTilda)	max(nut)
1               	2.00000933e-06	1.32457449e-11
2               	2.00002756e-06	1.32462279e-11
3               	2.00007300e-06	1.32474318e-11
4               	2.00015868e-06	1.32497019e-11
5               	2.00026576e-06	1.32525393e-11
6               	2.00038968e-06	1.32558238e-11
7               	2.00052844e-06	1.32595020e-11
8               	2.00067646e-06	1.32634269e-11
9               	2.00083821e-06	1.32677167e-11
10              	2.00101382e-06	1.32723753e-11
11              	2.00120067e-06	1.32773331e-11
12              	2.00139891e-06	1.32825951e-11
13              	2.00170518e-06	1.32907272e-11
14              	2.00210855e-06	1.33014436e-11
15              	2.00258334e-06	1.33140653e-11
16              	2.00309185e-06	1.33275936e-11
17              	2.00363270e-06	1.33419936e-11
18              	2.00420376e-06	1.33572104e-11
19              	2.00480331e-06	1.33732008e-11
20              	2.00542950e-06	1.33899166e-11
21              	2.01356164e-06	1.36084278e-11
22              	2.02552609e-06	1.39347620e-11
23              	2.04208351e-06	1.43960090e-11
24              	2.05944409e-06	1.48918298e-11
25              	2.07950102e-06	1.54804824e-11
26              	2.10202719e-06	1.61622251e-11
27              	2.12556499e-06	1.68983880e-11
28              	2.15209178e-06	1.77578648e-11
29              	2.18074860e-06	1.87227594e-11
30              	2.21227493e-06	1.98291305e-11
31              	2.24615144e-06	2.10718778e-11
32              	2.28389252e-06	2.25242086e-11
33              	2.32546431e-06	2.42094748e-11
34              	2.37073542e-06	2.61504243e-11
35              	2.42832778e-06	2.87855985e-11
36              	2.50705028e-06	3.27037601e-11
37              	2.59360981e-06	3.74596282e-11
38              	2.69039776e-06	4.33720697e-11
39              	2.79618840e-06	5.06068185e-11
40              	2.91306714e-06	5.96134512e-11
41              	3.04308342e-06	7.09898856e-11
42              	3.18510413e-06	8.51989223e-11
43              	3.34052723e-06	1.03085561e-10
44              	3.51509961e-06	1.26382257e-10
45              	3.70591267e-06	1.56139795e-10
46              	3.91441134e-06	1.94354884e-10
47              	4.14415239e-06	2.44156593e-10
48              	4.40091415e-06	3.10521819e-10
49              	4.68162340e-06	3.97649268e-10
50              	4.98834693e-06	5.12546359e-10
51              	5.32349970e-06	6.64792140e-10
52              	5.70143918e-06	8.74626302e-10
53              	6.11438403e-06	1.15685745e-09
54              	6.56486021e-06	1.53727441e-09
55              	7.05557851e-06	2.05095169e-09
56              	7.58928065e-06	2.74534229e-09
57              	8.16874114e-06	3.68447643e-09
58              	8.79672027e-06	4.95438369e-09
59              	9.49276645e-06	6.71761207e-09
60              	1.02503211e-05	9.13090917e-09
61              	1.10683382e-05	1.24106243e-08
62              	1.19493186e-05	1.68543006e-08
63              	1.28954476e-05	2.28521235e-08
64              	1.39084756e-05	3.09102885e-08
65              	1.49896296e-05	4.16778747e-08
66              	1.61396379e-05	5.59780048e-08
67              	1.73586506e-05	7.48408198e-08
68              	1.86462221e-05	9.95382513e-08
69              	2.00336302e-05	1.32467270e-07
70              	2.15078094e-05	1.75700706e-07
71              	2.30508632e-05	2.31376174e-07
72              	2.46591952e-05	3.02349269e-07
73              	2.63284366e-05	3.91867210e-07
74              	2.80535950e-05	5.03545963e-07
75              	2.98285722e-05	6.41272316e-07
76              	3.16471194e-05	8.09169007e-07
77              	3.35027962e-05	1.01148982e-06
78              	3.53888381e-05	1.25247019e-06
79              	3.73194010e-05	1.53954966e-06
80              	3.93399088e-05	1.88768213e-06
81              	4.13774484e-05	2.29221328e-06
82              	4.34256055e-05	2.75706742e-06
83              	4.54786855e-05	3.28561040e-06
84              	4.75316280e-05	3.88055767e-06
85              	4.95791903e-05	4.54364973e-06
86              	5.16177119e-05	5.27616045e-06
87              	5.36442098e-05	6.07871464e-06
88              	5.56561986e-05	6.95127770e-06
89              	5.77021205e-05	7.91802894e-06
90              	5.98172631e-05	9.00351374e-06
91              	6.19169729e-05	1.01689103e-05
92              	6.39992759e-05	1.14118978e-05
93              	6.60626264e-05	1.27296037e-05
94              	6.81052559e-05	1.41182871e-05
95              	7.01250610e-05	1.55732737e-05
96              	7.21213821e-05	1.70903500e-05
97              	7.40934336e-05	1.86648377e-05
98              	7.60406034e-05	2.02918965e-05
99              	7.81268812e-05	2.21130234e-05
100             	8.01911766e-05	2.39917845e-05
101             	8.22289118e-05	2.59186490e-05
102             	8.42389174e-05	2.78868457e-05
103             	8.62202199e-05	2.98897341e-05
104             	8.81706023e-05	3.19193854e-05
105             	9.00895454e-05	3.39696570e-05
106             	9.19768902e-05	3.60349975e-05
107             	9.38322943e-05	3.81099074e-05
108             	9.56814974e-05	4.02191728e-05
109             	9.76503571e-05	4.25073002e-05
110             	9.95852735e-05	4.47955939e-05
111             	1.01485290e-04	4.70779747e-05
112             	1.03349984e-04	4.93493408e-05
113             	1.05179103e-04	5.16051629e-05
114             	1.06971700e-04	5.38404019e-05
115             	1.08727242e-04	5.60508568e-05
116             	1.10446156e-04	5.82338728e-05
117             	1.12128769e-04	6.03870101e-05
118             	1.13775366e-04	6.25080846e-05
119             	1.15386178e-04	6.45951256e-05
120             	1.17052503e-04	6.67652975e-05
121             	1.18757963e-04	6.89968648e-05
122             	1.20425437e-04	7.11876328e-05
123             	1.22055177e-04	7.33361701e-05
124             	1.23647482e-04	7.54413386e-05
125             	1.25202738e-04	7.75023294e-05
126             	1.26721339e-04	7.95185264e-05
127             	1.28203040e-04	8.14886293e-05
128             	1.29647962e-04	8.34119738e-05
129             	1.31056791e-04	8.52887738e-05
130             	1.32430539e-04	8.71197929e-05
131             	1.33769865e-04	8.89054270e-05
132             	1.35075360e-04	9.06460674e-05
133             	1.36347593e-04	9.23421516e-05
134             	1.37587108e-04	9.39941444e-05
135             	1.38794463e-04	9.56025889e-05
136             	1.40044784e-04	9.72673249e-05
137             	1.41317781e-04	9.89610330e-05
138             	1.42557556e-04	1.00609142e-04
139             	1.43764453e-04	1.02212034e-04
140             	1.44939074e-04	1.03770469e-04
141             	1.46082013e-04	1.05285222e-04
142             	1.47193875e-04	1.06757110e-04
143             	1.48275316e-04	1.08187033e-04
144             	1.49326986e-04	1.09575902e-04
145             	1.50349497e-04	1.10924587e-04
146             	1.51343450e-04	1.12233955e-04
147             	1.52308850e-04	1.13504096e-04
148             	1.53246346e-04	1.14735952e-04
149             	1.54156839e-04	1.15930803e-04
150             	1.55041093e-04	1.17089744e-04
151             	1.55899775e-04	1.18213749e-04
152             	1.56733520e-04	1.19303744e-04
153             	1.57542944e-04	1.20360631e-04
154             	1.58328668e-04	1.21385315e-04
155             	1.59091312e-04	1.22378701e-04
156             	1.59831468e-04	1.23341648e-04
157             	1.60549670e-04	1.24274943e-04
158             	1.61246429e-04	1.25179336e-04
159             	1.61922243e-04	1.26055555e-04
160             	1.62577612e-04	1.26904332e-04
161             	1.63213067e-04	1.27726431e-04
162             	1.63829166e-04	1.28522652e-04
163             	1.64426475e-04	1.29293796e-04
164             	1.65005541e-04	1.30040637e-04
165             	1.65566870e-04	1.30763896e-04
166             	1.66110937e-04	1.31464245e-04
167             	1.66662862e-04	1.32174033e-04
168             	1.67230557e-04	1.32903389e-04
169             	1.67780595e-04	1.33609370e-04
170             	1.68313319e-04	1.34292477e-04
171             	1.68829225e-04	1.34953406e-04
172             	1.69328866e-04	1.35592924e-04
173             	1.69812795e-04	1.36211788e-04
174             	1.70281503e-04	1.36810679e-04
175             	1.70735414e-04	1.37390185e-04
176             	1.71174914e-04	1.37950844e-04
177             	1.71600368e-04	1.38493163e-04
178             	1.72012122e-04	1.39017623e-04
179             	1.72410519e-04	1.39524701e-04
180             	1.72795908e-04	1.40014874e-04
181             	1.73168644e-04	1.40488630e-04
182             	1.73529096e-04	1.40946468e-04
183             	1.73877647e-04	1.41388905e-04
184             	1.74214690e-04	1.41816469e-04
185             	1.74540624e-04	1.42229690e-04
186             	1.74855847e-04	1.42629100e-04
187             	1.75160746e-04	1.43015208e-04
188             	1.75455686e-04	1.43388503e-04
189             	1.75741028e-04	1.43749458e-04
190             	1.76017119e-04	1.44098532e-04
191             	1.76284286e-04	1.44436156e-04
192             	1.76542830e-04	1.44762725e-04
193             	1.76793017e-04	1.45078592e-04
194             	1.77035090e-04	1.45384078e-04
195             	1.77269276e-04	1.45679481e-04
196             	1.77495786e-04	1.45965083e-04
197             	1.77714828e-04	1.46241154e-04
198             	1.77926598e-04	1.46507956e-04
199             	1.78131290e-04	1.46765742e-04
200             	1.78329092e-04	1.47014760e-04
201             	1.78520197e-04	1.47255259e-04
202             	1.78704797e-04	1.47487493e-04
203             	1.78883089e-04	1.47711718e-04
204             	1.79055274e-04	1.47928191e-04
205             	1.79221551e-04	1.48137172e-04
206             	1.79382119e-04	1.48338919e-04
207             	1.79537174e-04	1.48533682e-04
208             	1.79686908e-04	1.48721708e-04
209             	1.79831507e-04	1.48903238e-04
210             	1.79971155e-04	1.49078506e-04
211             	1.80106020e-04	1.49247729e-04
212             	1.80236265e-04	1.49411115e-04
213             	1.80362051e-04	1.49568871e-04
214             	1.80483504e-04	1.49721158e-04
215             	1.80600782e-04	1.49868177e-04
216             	1.80714060e-04	1.50010153e-04
217             	1.80823469e-04	1.50147251e-04
218             	1.80929167e-04	1.50279672e-04
219             	1.81031311e-04	1.50407618e-04
220             	1.81130046e-04	1.50531269e-04
221             	1.81225502e-04	1.50650794e-04
222             	1.81317804e-04	1.50766349e-04
223             	1.81407069e-04	1.50878084e-04
224             	1.81493408e-04	1.50986139e-04
225             	1.81576926e-04	1.51090647e-04
226             	1.81657723e-04	1.51191734e-04
227             	1.81735891e-04	1.51289519e-04
228             	1.81811521e-04	1.51384115e-04
229             	1.81884697e-04	1.51475630e-04
230             	1.81955501e-04	1.51564166e-04
231             	1.82024011e-04	1.51649822e-04
232             	1.82090302e-04	1.51732694e-04
233             	1.82154446e-04	1.51812873e-04
234             	1.82216514e-04	1.51890447e-04
235             	1.82276574e-04	1.51965504e-04
236             	1.82334693e-04	1.52038127e-04
237             	1.82390934e-04	1.52108396e-04
238             	1.82445360e-04	1.52176390e-04
239             	1.82498029e-04	1.52242184e-04
240             	1.82549001e-04	1.52305850e-04
241             	1.82598332e-04	1.52367462e-04
242             	1.82646078e-04	1.52427090e-04
243             	1.82692295e-04	1.52484801e-04
244             	1.82737032e-04	1.52540662e-04
245             	1.82780342e-04	1.52594735e-04
246             	1.82822271e-04	1.52647080e-04
247             	1.82862865e-04	1.52697755e-04
248             	1.82902168e-04	1.52746815e-04
249             	1.82940223e-04	1.52794312e-04
250             	1.82977068e-04	1.52840298e-04
251             	1.83012745e-04	1.52884822e-04
252             	1.83047288e-04	1.52927929e-04
253             	1.83080736e-04	1.52969666e-04
254             	1.83113123e-04	1.53010076e-04
255             	1.83144481e-04	1.53049202e-04
256             	1.83174844e-04	1.53087082e-04
257             	1.83204241e-04	1.53123757e-04
258             	1.83232702e-04	1.53159261e-04
259             	1.83260255e-04	1.53193631e-04
260             	1.83286926e-04	1.53226899e-04
261             	1.83312743e-04	1.53259100e-04
262             	1.83337730e-04	1.53290265e-04
263             	1.83361915e-04	1.53320427e-04
264             	1.83385322e-04	1.53349618e-04
265             	1.83407975e-04	1.53377869e-04
266             	1.83429901e-04	1.53405210e-04
267             	1.83451122e-04	1.53431672e-04
268             	1.83471661e-04	1.53457283e-04
269             	1.83491541e-04	1.53482071e-04
270             	1.83510783e-04	1.53506062e-04
271             	1.83529408e-04	1.53529283e-04
272             	1.83547436e-04	1.53551760e-04
273             	1.83564886e-04	1.53573514e-04
274             	1.83581776e-04	1.53594571e-04
275             	1.83598125e-04	1.53614952e-04
276             	1.83613950e-04	1.53634679e-04
277             	1.83629267e-04	1.53653772e-04
278             	1.83644092e-04	1.53672252e-04
279             	1.83658441e-04	1.53690138e-04
280             	1.83672329e-04	1.53707449e-04
281             	1.83685770e-04	1.53724203e-04
282             	1.83698780e-04	1.53740418e-04
283             	1.83711372e-04	1.53756112e-04
284             	1.83723559e-04	1.53771302e-04
285             	1.83735355e-04	1.53786003e-04
286             	1.83746772e-04	1.53800232e-04
287             	1.83757823e-04	1.53814003e-04
288             	1.83768518e-04	1.53827333e-04
289             	1.83778871e-04	1.53840234e-04
290             	1.83788892e-04	1.53852722e-04
291             	1.83798591e-04	1.53864809e-04
292             	1.83807979e-04	1.53876508e-04
293             	1.83817067e-04	1.53887832e-04
294             	1.83825863e-04	1.53898793e-04
295             	1.83834378e-04	1.53909404e-04
296             	1.83842620e-04	1.53919674e-04
297             	1.83850599e-04	1.53929615e-04
298             	1.83858322e-04	1.53939239e-04
299             	1.83865798e-04	1.53948554e-04
300             	1.83873036e-04	1.53957572e-04
301             	1.83880041e-04	1.53966301e-04
302             	1.83886823e-04	1.53974751e-04
303             	1.83893388e-04	1.53982931e-04
304             	1.83899744e-04	1.53990849e-04
305             	1.83905896e-04	1.53998514e-04
306             	1.83911852e-04	1.54005934e-04
307             	1.83917617e-04	1.54013118e-04
308             	1.83923198e-04	1.54020071e-04
309             	1.83928601e-04	1.54026802e-04
310             	1.83933831e-04	1.54033318e-04
311             	1.83938894e-04	1.54039625e-04
312             	1.83943794e-04	1.54045730e-04
313             	1.83948536e-04	1.54051637e-04
314             	1.83953123e-04	1.54057352e-04
315             	1.83957564e-04	1.54062885e-04
316             	1.83961895e-04	1.54068280e-04
317             	1.83966066e-04	1.54073476e-04
318             	1.83970100e-04	1.54078502e-04
319             	1.83974005e-04	1.54083366e-04
320             	1.83977785e-04	1.54088076e-04
321             	1.83981445e-04	1.54092634e-04
322             	1.83984987e-04	1.54097047e-04
323             	1.83988417e-04	1.54101319e-04
324             	1.83991736e-04	1.54105455e-04
325             	1.83994949e-04	1.54109458e-04
326             	1.83998060e-04	1.54113332e-04
327             	1.84001071e-04	1.54117083e-04
328             	1.84003985e-04	1.54120713e-04
329             	1.84006806e-04	1.54124227e-04
330             	1.84009537e-04	1.54127629e-04
331             	1.84012180e-04	1.54130921e-04
332             	1.84014738e-04	1.54134107e-04
333             	1.84017214e-04	1.54137192e-04
334             	1.84019611e-04	1.54140177e-04
335             	1.84021930e-04	1.54143067e-04
336             	1.84024175e-04	1.54145864e-04
337             	1.84026349e-04	1.54148570e-04
338             	1.84028452e-04	1.54151190e-04
339             	1.84030488e-04	1.54153726e-04
340             	1.84032458e-04	1.54156180e-04
341             	1.84034365e-04	1.54158555e-04
342             	1.84036210e-04	1.54160854e-04
343             	1.84037996e-04	1.54163079e-04
344             	1.84039725e-04	1.54165232e-04
345             	1.84041398e-04	1.54167316e-04
346             	1.84043017e-04	1.54169333e-04
347             	1.84044584e-04	1.54171284e-04
348             	1.84046100e-04	1.54173173e-04
349             	1.84047567e-04	1.54175001e-04
350             	1.84048988e-04	1.54176770e-04
351             	1.84050362e-04	1.54178482e-04
352             	1.84051692e-04	1.54180138e-04
353             	1.84052979e-04	1.54181741e-04
354             	1.84054224e-04	1.54183293e-04
355             	1.84055430e-04	1.54184794e-04
356             	1.84056596e-04	1.54186247e-04
357             	1.84057725e-04	1.54187653e-04
358             	1.84058817e-04	1.54189013e-04
359             	1.84059874e-04	1.54190330e-04
360             	1.84060897e-04	1.54191603e-04
361             	1.84061887e-04	1.54192836e-04
