# Region        : all region0
# Cells         : 13056
# Volume        : 2.33333000e+00
# Time          	min(U)
1               	(4.82568994e-01 -4.40546620e-11 -8.74904914e-16)
2               	(2.88126968e-01 -1.52798761e-06 -9.08915802e-16)
3               	(2.02640171e-01 -3.91914071e-08 -7.38628960e-16)
4               	(1.59114816e-01 -5.99731284e-07 -5.31639666e-16)
5               	(1.33579444e-01 -2.39060760e-06 -3.65098224e-16)
6               	(1.16779468e-01 -3.00037944e-06 -2.44015354e-16)
7               	(1.04743874e-01 -2.07007665e-06 -2.74182193e-18)
8               	(9.55779292e-02 -2.82924384e-06 -3.11661630e-18)
9               	(8.82838517e-02 -4.35766498e-06 -3.23543683e-18)
10              	(8.22890167e-02 -5.93928562e-06 -2.72553086e-18)
11              	(7.72402880e-02 -6.94641158e-06 -2.77048157e-18)
12              	(7.29068018e-02 -7.03381021e-06 -2.82620330e-18)
13              	(6.91303345e-02 -6.59536179e-06 -2.89434290e-18)
14              	(6.57982132e-02 -6.17623747e-06 -2.96320782e-18)
15              	(6.28276432e-02 -5.83236883e-06 -3.02867329e-18)
16              	(6.01561775e-02 -5.67582161e-06 -3.10435984e-18)
17              	(5.77356693e-02 -5.55049866e-06 -3.18643172e-18)
18              	(5.55282940e-02 -5.51646620e-06 -3.27856150e-18)
19              	(5.35038507e-02 -5.35818694e-06 -3.36970334e-18)
20              	(5.16378821e-02 -5.18576453e-06 -3.46169796e-18)
21              	(4.99103341e-02 -5.12303238e-06 -3.56106711e-18)
22              	(4.83045799e-02 -4.98399926e-06 -3.66629738e-18)
23              	(4.68066979e-02 -4.79558051e-06 -3.77747393e-18)
24              	(4.54049268e-02 -4.72629984e-06 -3.89500364e-18)
25              	(4.40892506e-02 -4.62617190e-06 -4.01994294e-18)
26              	(4.28510768e-02 -4.49272496e-06 -4.15415565e-18)
27              	(4.16829850e-02 -4.38435654e-06 -4.29701529e-18)
28              	(4.05785273e-02 -4.35616317e-06 -4.44865019e-18)
29              	(3.95320694e-02 -4.30488974e-06 -4.60658071e-18)
30              	(3.85386622e-02 -4.24189577e-06 -4.77305107e-18)
31              	(3.75939377e-02 -4.17386216e-06 -4.94815684e-18)
32              	(3.66940230e-02 -4.17094602e-06 -5.13178331e-18)
33              	(3.58354703e-02 -4.17474968e-06 -5.32337983e-18)
34              	(3.50151982e-02 -4.17222362e-06 -5.52373536e-18)
35              	(3.42304425e-02 -4.16396291e-06 -5.73346652e-18)
36              	(3.34787152e-02 -4.15151884e-06 -5.95346995e-18)
37              	(3.27577697e-02 -4.13758717e-06 -6.18389936e-18)
38              	(3.20655713e-02 -4.12605203e-06 -6.42563806e-18)
39              	(3.14002719e-02 -4.20123199e-06 -6.67946477e-18)
40              	(3.07601882e-02 -4.48482412e-06 -6.94567698e-18)
41              	(3.01437834e-02 -4.76340700e-06 -7.22449938e-18)
42              	(2.95496509e-02 -5.03422025e-06 -7.51664539e-18)
43              	(2.89765003e-02 -5.29547006e-06 -7.82255266e-18)
44              	(2.84231452e-02 -5.54554790e-06 -8.14248427e-18)
45              	(2.78884927e-02 -5.78284989e-06 -8.47211783e-18)
46              	(2.73715338e-02 -6.00572289e-06 -8.81522096e-18)
47              	(2.68713357e-02 -6.21251669e-06 -9.17232953e-18)
48              	(2.63870338e-02 -6.40157241e-06 -9.54222883e-18)
49              	(2.59178258e-02 -6.57119878e-06 -9.92646378e-18)
50              	(2.54629661e-02 -6.71970100e-06 -1.03266001e-17)
51              	(2.50217602e-02 -6.84530300e-06 -1.07434759e-17)
52              	(2.45935607e-02 -6.94627362e-06 -1.11740425e-17)
53              	(2.41777629e-02 -7.02093405e-06 -1.16177327e-17)
54              	(2.37738016e-02 -7.10975506e-06 -1.20768887e-17)
55              	(2.33811473e-02 -7.39116759e-06 -1.25517028e-17)
56              	(2.29993039e-02 -7.65974871e-06 -1.30434375e-17)
57              	(2.26278053e-02 -7.92884466e-06 -1.35502393e-17)
58              	(2.22662139e-02 -8.21003037e-06 -1.40714408e-17)
59              	(2.19141176e-02 -8.47610009e-06 -1.46073038e-17)
60              	(2.15711285e-02 -8.72589331e-06 -1.51584161e-17)
61              	(2.12368808e-02 -8.95705813e-06 -1.57199528e-17)
62              	(2.09110291e-02 -9.16682756e-06 -1.62898220e-17)
63              	(2.05932472e-02 -9.35239803e-06 -1.68720930e-17)
64              	(2.02832266e-02 -9.51058829e-06 -1.74778583e-17)
65              	(1.99806752e-02 -9.63871026e-06 -1.80986076e-17)
66              	(1.96853164e-02 -9.73438551e-06 -1.87391498e-17)
67              	(1.93968878e-02 -9.79507085e-06 -1.93962016e-17)
68              	(1.91151404e-02 -9.82416786e-06 -2.00710281e-17)
69              	(1.88398378e-02 -9.81913552e-06 -2.07587239e-17)
70              	(1.85707551e-02 -9.84416640e-06 -2.14537305e-17)
71              	(1.83076786e-02 -9.89265574e-06 -2.21501635e-17)
72              	(1.80504047e-02 -9.90422019e-06 -2.28467379e-17)
73              	(1.77987395e-02 -9.88127071e-06 -2.35554735e-17)
74              	(1.75524982e-02 -9.82270882e-06 -2.42953261e-17)
75              	(1.73115044e-02 -9.72667855e-06 -2.50629692e-17)
76              	(1.70755897e-02 -9.59133445e-06 -2.58504224e-17)
77              	(1.68445935e-02 -9.42075161e-06 -2.66380620e-17)
78              	(1.66183620e-02 -9.24595424e-06 -2.74145364e-17)
79              	(1.63967484e-02 -9.16481096e-06 -2.82203352e-17)
80              	(1.61796118e-02 -9.04358113e-06 -2.90392456e-17)
81              	(1.59668178e-02 -8.88907491e-06 -2.98662221e-17)
82              	(1.57582374e-02 -8.70238684e-06 -3.06913919e-17)
83              	(1.55537468e-02 -8.48285548e-06 -3.15220115e-17)
84              	(1.53532276e-02 -8.23146484e-06 -3.23476829e-17)
85              	(1.51565659e-02 -7.97268890e-06 -3.31738867e-17)
86              	(1.49636526e-02 -7.82419331e-06 -3.40097478e-17)
87              	(1.47743828e-02 -7.64027854e-06 -3.48598075e-17)
88              	(1.45886556e-02 -7.42834098e-06 -3.57335796e-17)
89              	(1.44063742e-02 -7.18988012e-06 -3.66381350e-17)
90              	(1.42274454e-02 -6.92460154e-06 -3.75602794e-17)
91              	(1.40517794e-02 -6.63743456e-06 -3.84571154e-17)
92              	(1.38792900e-02 -6.43938529e-06 -3.93490835e-17)
93              	(1.37098939e-02 -6.24699308e-06 -4.02363434e-17)
94              	(1.35435111e-02 -6.03030333e-06 -4.11263084e-17)
95              	(1.33800644e-02 -5.79243939e-06 -4.20204488e-17)
96              	(1.32194792e-02 -5.53374854e-06 -4.29135572e-17)
97              	(1.30616838e-02 -5.25881265e-06 -4.38047392e-17)
98              	(1.29066089e-02 -5.08429341e-06 -4.46974822e-17)
99              	(1.27541874e-02 -4.89325832e-06 -4.55888695e-17)
100             	(1.26043549e-02 -4.68440943e-06 -4.64944721e-17)
101             	(1.24570487e-02 -4.45967237e-06 -4.74132957e-17)
102             	(1.23122087e-02 -4.22011357e-06 -4.83481672e-17)
103             	(1.21697765e-02 -4.02682363e-06 -4.92999179e-17)
104             	(1.20296956e-02 -3.86371516e-06 -5.02706656e-17)
105             	(1.18919114e-02 -3.68503597e-06 -5.11941718e-17)
106             	(1.17563713e-02 -3.49392746e-06 -5.21111726e-17)
107             	(1.16230239e-02 -3.29105168e-06 -5.30191521e-17)
108             	(1.14918198e-02 -3.12189865e-06 -5.39215915e-17)
109             	(1.13627111e-02 -2.98296089e-06 -5.48218012e-17)
110             	(1.12356512e-02 -2.83167001e-06 -5.57214958e-17)
111             	(1.11105951e-02 -2.67066824e-06 -5.66151709e-17)
112             	(1.09874992e-02 -2.50105671e-06 -5.75103781e-17)
113             	(1.08663210e-02 -2.37348709e-06 -5.84230773e-17)
114             	(1.07470195e-02 -2.25474226e-06 -5.93486828e-17)
115             	(1.06295548e-02 -2.12739889e-06 -6.02783474e-17)
116             	(1.05138882e-02 -1.99302636e-06 -6.12097531e-17)
117             	(1.03999821e-02 -1.86313112e-06 -6.21379553e-17)
118             	(1.02878001e-02 -1.77068121e-06 -6.30780748e-17)
119             	(1.01769901e-02 -1.67029804e-06 -6.40245428e-17)
120             	(1.00676170e-02 -1.56425653e-06 -6.49325536e-17)
121             	(9.95984999e-03 -1.45347957e-06 -6.58304439e-17)
122             	(9.85365654e-03 -1.37438814e-06 -6.67318975e-17)
123             	(9.74900504e-03 -1.29549382e-06 -6.76445615e-17)
124             	(9.64586484e-03 -1.21194481e-06 -6.85560145e-17)
125             	(9.54420610e-03 -1.12447213e-06 -6.94685525e-17)
126             	(9.44399973e-03 -1.05590402e-06 -7.03876805e-17)
127             	(9.34521745e-03 -9.93744725e-07 -7.13089520e-17)
128             	(9.24783170e-03 -9.27744373e-07 -7.22298682e-17)
129             	(9.15181565e-03 -8.58707387e-07 -7.31523143e-17)
130             	(9.05714319e-03 -8.02988935e-07 -7.40697879e-17)
131             	(8.96378891e-03 -7.53716029e-07 -7.49811829e-17)
132             	(8.87172804e-03 -7.01488656e-07 -7.58833636e-17)
133             	(8.78093649e-03 -6.46976305e-07 -7.67814168e-17)
134             	(8.69139076e-03 -6.03933756e-07 -7.76822901e-17)
135             	(8.60306799e-03 -5.64716987e-07 -7.85884267e-17)
136             	(8.51594588e-03 -5.23320666e-07 -7.94511884e-17)
137             	(8.43000270e-03 -4.80213831e-07 -8.02928322e-17)
138             	(8.34521729e-03 -4.48278170e-07 -8.11299640e-17)
139             	(8.26156900e-03 -4.16899695e-07 -8.19668123e-17)
140             	(8.17903769e-03 -3.83963642e-07 -8.28021696e-17)
141             	(8.09760377e-03 -3.50576428e-07 -8.36349961e-17)
142             	(8.01724805e-03 -3.26952602e-07 -8.44712434e-17)
143             	(7.93795181e-03 -3.01695732e-07 -8.53143185e-17)
144             	(7.85969671e-03 -2.75339559e-07 -8.61702658e-17)
145             	(7.78246489e-03 -2.51747241e-07 -8.70196726e-17)
146             	(7.70623889e-03 -2.32521026e-07 -8.78601237e-17)
147             	(7.63100165e-03 -2.12181981e-07 -8.86963846e-17)
148             	(7.55673651e-03 -1.91032248e-07 -8.95350058e-17)
149             	(7.48342717e-03 -1.75271299e-07 -9.03728376e-17)
150             	(7.41105859e-03 -1.59545507e-07 -9.12065381e-17)
151             	(7.33961576e-03 -1.43071175e-07 -9.20312391e-17)
152             	(7.26908305e-03 -1.28454433e-07 -9.28516245e-17)
153             	(7.19944537e-03 -1.16223106e-07 -9.36173212e-17)
154             	(7.13068808e-03 -1.03318280e-07 -9.43851797e-17)
155             	(7.06279694e-03 -9.08468987e-08 -9.51617110e-17)
156             	(6.99573683e-03 -8.13186807e-08 -9.59388417e-17)
157             	(6.92924068e-03 -7.12247886e-08 -9.67039465e-17)
158             	(6.86355670e-03 -6.13069805e-08 -9.74679076e-17)
159             	(6.79867174e-03 -5.38720681e-08 -9.82388887e-17)
160             	(6.73457291e-03 -4.59985492e-08 -9.90072213e-17)
161             	(6.67124760e-03 -3.87036211e-08 -9.97710719e-17)
162             	(6.60868345e-03 -3.29222754e-08 -1.00528451e-16)
163             	(6.54686839e-03 -2.68294106e-08 -1.01281235e-16)
164             	(6.48579057e-03 -2.20251434e-08 -1.02026203e-16)
165             	(6.42543841e-03 -1.75662131e-08 -1.02763869e-16)
166             	(6.36580055e-03 -1.34987124e-08 -1.03495437e-16)
167             	(6.30686589e-03 -1.03139842e-08 -1.04224209e-16)
168             	(6.24862353e-03 -7.28763141e-09 -1.04949855e-16)
169             	(6.19106279e-03 -5.07656712e-09 -1.05667427e-16)
170             	(6.13417324e-03 -3.15228571e-09 -1.06339088e-16)
171             	(6.07794461e-03 -1.68656490e-09 -1.07003539e-16)
172             	(6.02236688e-03 -7.69938631e-10 -1.07661763e-16)
173             	(5.96743021e-03 -1.78682153e-10 -1.08315807e-16)
174             	(5.91312493e-03 -9.99674247e-17 -1.08963855e-16)
175             	(5.85944161e-03 -1.03295135e-16 -1.09602034e-16)
176             	(5.80637097e-03 -1.05410661e-16 -1.10235492e-16)
177             	(5.75390391e-03 -1.06222935e-16 -1.10867946e-16)
178             	(5.70203151e-03 -1.05582222e-16 -1.11500112e-16)
179             	(5.65074504e-03 -1.03737026e-16 -1.12131542e-16)
180             	(5.60003592e-03 -1.00837310e-16 -1.12759720e-16)
181             	(5.54989573e-03 -9.66444253e-17 -1.13386776e-16)
182             	(5.50031621e-03 -9.07162013e-17 -1.14016373e-16)
183             	(5.45128927e-03 -8.28238145e-17 -1.14640958e-16)
184             	(5.40280695e-03 -7.31340582e-17 -1.15259237e-16)
185             	(5.35486147e-03 -6.15821072e-17 -1.15871903e-16)
186             	(5.30744515e-03 -4.79941520e-17 -1.16477717e-16)
187             	(5.26055049e-03 -3.22962178e-17 -1.17080455e-16)
188             	(5.21417011e-03 -1.42456499e-17 -1.17686445e-16)
189             	(5.16829677e-03 7.04745759e-18 -1.18251379e-16)
190             	(5.12292336e-03 3.14864732e-17 -1.18808852e-16)
191             	(5.07804289e-03 5.94303205e-17 -1.19362500e-16)
192             	(5.03364852e-03 9.04234629e-17 -1.19915051e-16)
193             	(4.98973351e-03 1.24957187e-16 -1.20465065e-16)
194             	(4.94629125e-03 1.63322303e-16 -1.21002382e-16)
195             	(4.90331523e-03 2.05585566e-16 -1.21525007e-16)
196             	(4.86079909e-03 2.51739017e-16 -1.22037929e-16)
197             	(4.81873656e-03 3.01917808e-16 -1.22545476e-16)
198             	(4.77712147e-03 3.56490088e-16 -1.23045260e-16)
199             	(4.73594777e-03 4.15792505e-16 -1.23540890e-16)
200             	(4.69520953e-03 4.79988778e-16 -1.24033602e-16)
201             	(4.65490088e-03 5.49197128e-16 -1.24523895e-16)
202             	(4.61501610e-03 6.23641293e-16 -1.25009831e-16)
203             	(4.57554954e-03 7.03477641e-16 -1.25493249e-16)
204             	(4.53649565e-03 7.89062522e-16 -1.25972582e-16)
205             	(4.49784897e-03 8.80768839e-16 -1.26450268e-16)
206             	(4.45960414e-03 9.78985649e-16 -1.26931107e-16)
207             	(4.42175589e-03 1.08363381e-15 -1.27412581e-16)
208             	(4.38429904e-03 1.19491827e-15 -1.27886528e-16)
209             	(4.34722849e-03 1.31317007e-15 -1.28347744e-16)
210             	(4.31053922e-03 1.43870774e-15 -1.28814072e-16)
211             	(4.27422631e-03 1.57180329e-15 -1.29281515e-16)
212             	(4.23828491e-03 1.71275390e-15 -1.29738738e-16)
213             	(4.20271024e-03 1.86191213e-15 -1.30171946e-16)
214             	(4.16749762e-03 2.01944048e-15 -1.30594890e-16)
215             	(4.13264244e-03 2.18555503e-15 -1.31012030e-16)
216             	(4.09814014e-03 2.36065045e-15 -1.31425967e-16)
217             	(4.06398627e-03 2.54500372e-15 -1.31834149e-16)
218             	(4.03017642e-03 2.73890410e-15 -1.32234904e-16)
219             	(3.99670628e-03 2.94269357e-15 -1.32625515e-16)
220             	(3.96357158e-03 3.15668214e-15 -1.33008147e-16)
221             	(3.93076814e-03 3.38108915e-15 -1.33387544e-16)
222             	(3.89829183e-03 3.61631101e-15 -1.33758930e-16)
223             	(3.86613860e-03 3.86266277e-15 -1.34126933e-16)
224             	(3.83430446e-03 4.12042248e-15 -1.34490278e-16)
225             	(3.80278546e-03 4.38989756e-15 -1.34850050e-16)
226             	(3.77157774e-03 4.67142672e-15 -1.35206404e-16)
227             	(3.74067749e-03 4.96532747e-15 -1.35562200e-16)
228             	(3.71008095e-03 5.27195524e-15 -1.35903405e-16)
229             	(3.67978444e-03 5.59176316e-15 -1.36232372e-16)
230             	(3.64978431e-03 5.92491288e-15 -1.36561755e-16)
231             	(3.62007699e-03 6.27169651e-15 -1.36888391e-16)
232             	(3.59065893e-03 6.63274123e-15 -1.37214352e-16)
233             	(3.56152668e-03 7.00820859e-15 -1.37542588e-16)
234             	(3.53267681e-03 7.39831869e-15 -1.37871185e-16)
235             	(3.50410594e-03 7.80347353e-15 -1.38197719e-16)
236             	(3.47581076e-03 8.22409168e-15 -1.38522929e-16)
237             	(3.44778799e-03 8.66053424e-15 -1.38845406e-16)
238             	(3.42003442e-03 9.11314262e-15 -1.39167223e-16)
239             	(3.39254687e-03 9.58225455e-15 -1.39487280e-16)
240             	(3.36532221e-03 1.00682117e-14 -1.39806461e-16)
241             	(3.33835737e-03 1.05713829e-14 -1.40125118e-16)
242             	(3.31164930e-03 1.10921289e-14 -1.40444056e-16)
243             	(3.28519501e-03 1.16308074e-14 -1.40760937e-16)
244             	(3.25899156e-03 1.21877716e-14 -1.41074976e-16)
245             	(3.23303604e-03 1.27633691e-14 -1.41382860e-16)
246             	(3.20732558e-03 1.33579636e-14 -1.39782322e-16)
247             	(3.18185737e-03 1.39719870e-14 -1.39494271e-16)
248             	(3.15662862e-03 1.46057739e-14 -1.39241554e-16)
249             	(3.13163659e-03 1.52596562e-14 -1.38988083e-16)
250             	(3.10687858e-03 1.59339796e-14 -1.38734162e-16)
251             	(3.08235191e-03 1.66290890e-14 -1.38479646e-16)
252             	(3.05805398e-03 1.73453547e-14 -1.38212663e-16)
253             	(3.03398218e-03 1.80831739e-14 -1.37944021e-16)
254             	(3.01013396e-03 1.88428386e-14 -1.37674438e-16)
255             	(2.98650681e-03 1.96247579e-14 -1.37402007e-16)
256             	(2.96309824e-03 2.04293738e-14 -1.37126476e-16)
257             	(2.93990580e-03 2.12569914e-14 -1.36854687e-16)
258             	(2.91692709e-03 2.21078953e-14 -1.36586737e-16)
259             	(2.89415971e-03 2.29824667e-14 -1.36323033e-16)
260             	(2.87160133e-03 2.38811689e-14 -1.36056217e-16)
261             	(2.84924963e-03 2.48042884e-14 -1.35795340e-16)
262             	(2.82710231e-03 2.57521339e-14 -1.35542575e-16)
263             	(2.80515715e-03 2.67250811e-14 -1.35295949e-16)
264             	(2.78341189e-03 2.77234800e-14 -1.35067806e-16)
265             	(2.76186437e-03 2.87476750e-14 -1.34840616e-16)
266             	(2.74051242e-03 2.97979478e-14 -1.34611606e-16)
267             	(2.71935389e-03 3.08746871e-14 -1.34377104e-16)
268             	(2.69838670e-03 3.19782870e-14 -1.34143239e-16)
269             	(2.67760876e-03 3.31090371e-14 -1.33906666e-16)
270             	(2.65701802e-03 3.42672590e-14 -1.33657700e-16)
271             	(2.63661247e-03 3.54532615e-14 -1.33412923e-16)
272             	(2.61639011e-03 3.66674912e-14 -1.33178626e-16)
273             	(2.59634897e-03 3.79102153e-14 -1.32944552e-16)
274             	(2.57648711e-03 3.91817578e-14 -1.32683859e-16)
275             	(2.55680262e-03 4.04823998e-14 -1.32427102e-16)
276             	(2.53729360e-03 4.18124959e-14 -1.32177158e-16)
277             	(2.51795818e-03 4.31723574e-14 -1.31932209e-16)
278             	(2.49879454e-03 4.45622550e-14 -1.31691928e-16)
279             	(2.47980084e-03 4.59824846e-14 -1.31456673e-16)
280             	(2.46097529e-03 4.74333318e-14 -1.31231898e-16)
281             	(2.44231613e-03 4.89151847e-14 -1.31014965e-16)
282             	(2.42382160e-03 5.04282983e-14 -1.30800880e-16)
283             	(2.40548998e-03 5.19728950e-14 -1.30588111e-16)
284             	(2.38731956e-03 5.35492082e-14 -1.30376573e-16)
285             	(2.36930867e-03 5.51576061e-14 -1.30164975e-16)
286             	(2.35145563e-03 5.67983899e-14 -1.29948739e-16)
287             	(2.33375882e-03 5.84717867e-14 -1.29730538e-16)
288             	(2.31621662e-03 6.01780981e-14 -1.29512107e-16)
289             	(2.29882742e-03 6.19176297e-14 -1.29294492e-16)
290             	(2.28158965e-03 6.36904083e-14 -1.29077780e-16)
291             	(2.26450174e-03 6.54969134e-14 -1.28855459e-16)
292             	(2.24756217e-03 6.73373902e-14 -1.28629112e-16)
293             	(2.23076942e-03 6.92120090e-14 -1.28406573e-16)
294             	(2.21412197e-03 7.11210337e-14 -1.28187953e-16)
295             	(2.19761835e-03 7.30645961e-14 -1.27971115e-16)
296             	(2.18125710e-03 7.50430998e-14 -1.27753904e-16)
297             	(2.16503677e-03 7.70565534e-14 -1.27546339e-16)
298             	(2.14895593e-03 7.91051924e-14 -1.27345006e-16)
299             	(2.13301318e-03 8.11893579e-14 -1.27145155e-16)
300             	(2.11720711e-03 8.33091999e-14 -1.26944402e-16)
301             	(2.10153636e-03 8.54648255e-14 -1.26731136e-16)
302             	(2.08599957e-03 8.76566476e-14 -1.26513501e-16)
303             	(2.07059539e-03 8.98848025e-14 -1.26292662e-16)
304             	(2.05532250e-03 9.21492065e-14 -1.26071342e-16)
305             	(2.04017959e-03 9.44503143e-14 -1.25851545e-16)
306             	(2.02516536e-03 9.67881328e-14 -1.25632921e-16)
307             	(2.01027853e-03 9.91627363e-14 -1.25415619e-16)
308             	(1.99551785e-03 1.01574426e-13 -1.25199006e-16)
309             	(1.98088206e-03 1.04023497e-13 -1.24982550e-16)
310             	(1.96636993e-03 1.06510436e-13 -1.24766498e-16)
311             	(1.95198025e-03 1.09034865e-13 -1.24555338e-16)
312             	(1.93771180e-03 1.11596377e-13 -1.24346756e-16)
313             	(1.92356340e-03 1.14195733e-13 -1.24140565e-16)
314             	(1.90953387e-03 1.16833152e-13 -1.23935118e-16)
315             	(1.89562205e-03 1.19508823e-13 -1.23729389e-16)
316             	(1.88182679e-03 1.22222470e-13 -1.23525809e-16)
317             	(1.86814697e-03 1.24974334e-13 -1.23324286e-16)
318             	(1.85458144e-03 1.27764882e-13 -1.23124242e-16)
319             	(1.84112912e-03 1.30594014e-13 -1.22921275e-16)
320             	(1.82778890e-03 1.33461249e-13 -1.22718619e-16)
321             	(1.81455970e-03 1.36366898e-13 -1.22516556e-16)
322             	(1.80144045e-03 1.39311475e-13 -1.22315076e-16)
323             	(1.78843009e-03 1.42294454e-13 -1.22115062e-16)
324             	(1.77552757e-03 1.45316309e-13 -1.21916482e-16)
325             	(1.76273187e-03 1.48377115e-13 -1.21724764e-16)
326             	(1.75004197e-03 1.51476858e-13 -1.21535705e-16)
327             	(1.73745684e-03 1.54615420e-13 -1.21346531e-16)
328             	(1.72497549e-03 1.57792799e-13 -1.21163478e-16)
329             	(1.71259695e-03 1.61009245e-13 -1.20981987e-16)
330             	(1.70032022e-03 1.64264741e-13 -1.20800153e-16)
331             	(1.68814434e-03 1.67559476e-13 -1.20619426e-16)
332             	(1.67606837e-03 1.70893390e-13 -1.20440038e-16)
333             	(1.66409136e-03 1.74265475e-13 -1.20261799e-16)
334             	(1.65221237e-03 1.77676829e-13 -1.20082755e-16)
335             	(1.64043049e-03 1.81127458e-13 -1.19902859e-16)
336             	(1.62874480e-03 1.84617165e-13 -1.19724636e-16)
337             	(1.61715440e-03 1.88145690e-13 -1.19546344e-16)
338             	(1.60565840e-03 1.91712272e-13 -1.19368190e-16)
339             	(1.59425592e-03 1.95317012e-13 -1.19191083e-16)
340             	(1.58294608e-03 1.98961561e-13 -1.19015043e-16)
341             	(1.57172803e-03 2.02645846e-13 -1.18840216e-16)
342             	(1.56060091e-03 2.06368153e-13 -1.18666891e-16)
343             	(1.54956388e-03 2.10129516e-13 -1.18495159e-16)
344             	(1.53861610e-03 2.13929059e-13 -1.18322942e-16)
345             	(1.52775675e-03 2.17767596e-13 -1.18151678e-16)
346             	(1.51698502e-03 2.21644510e-13 -1.17982307e-16)
347             	(1.50630010e-03 2.25560092e-13 -1.17815195e-16)
348             	(1.49570118e-03 2.29514004e-13 -1.17650310e-16)
349             	(1.48518749e-03 2.33506306e-13 -1.17485829e-16)
350             	(1.47475824e-03 2.37536850e-13 -1.17323434e-16)
351             	(1.46441265e-03 2.41605590e-13 -1.17163651e-16)
352             	(1.45414997e-03 2.45712372e-13 -1.17004866e-16)
353             	(1.44396944e-03 2.49857084e-13 -1.16847173e-16)
354             	(1.43387031e-03 2.54039748e-13 -1.16688476e-16)
355             	(1.42385184e-03 2.58260218e-13 -1.16530296e-16)
356             	(1.41391330e-03 2.62518281e-13 -1.16372328e-16)
357             	(1.40405397e-03 2.66813867e-13 -1.16205947e-16)
358             	(1.39427313e-03 2.71146854e-13 -1.16040599e-16)
359             	(1.38457007e-03 2.75517087e-13 -1.15877763e-16)
360             	(1.37494409e-03 2.79924275e-13 -1.15716980e-16)
361             	(1.36539449e-03 2.84368350e-13 -1.15553380e-16)
362             	(1.35592060e-03 2.88849334e-13 -1.15388631e-16)
363             	(1.34652174e-03 2.93367198e-13 -1.15225053e-16)
364             	(1.33719722e-03 2.97921558e-13 -1.15061350e-16)
365             	(1.32794639e-03 3.02512138e-13 -1.14896446e-16)
366             	(1.31876859e-03 3.07138980e-13 -1.14731447e-16)
367             	(1.30966317e-03 3.11801946e-13 -1.14567108e-16)
368             	(1.30062948e-03 3.16500812e-13 -1.14403814e-16)
369             	(1.29166689e-03 3.21235396e-13 -1.14242586e-16)
370             	(1.28277477e-03 3.26005507e-13 -1.14082407e-16)
371             	(1.27395248e-03 3.30810982e-13 -1.13923274e-16)
372             	(1.26519943e-03 3.35651643e-13 -1.13765342e-16)
373             	(1.25651498e-03 3.40527309e-13 -1.13606032e-16)
374             	(1.24789855e-03 3.45437801e-13 -1.13447796e-16)
375             	(1.23934952e-03 3.50382913e-13 -1.13290156e-16)
376             	(1.23086731e-03 3.55362403e-13 -1.13133956e-16)
377             	(1.22245134e-03 3.60376083e-13 -1.12980088e-16)
378             	(1.21410101e-03 3.65423798e-13 -1.12827241e-16)
379             	(1.20581576e-03 3.70505298e-13 -1.12675361e-16)
380             	(1.19759502e-03 3.75620360e-13 -1.12524536e-16)
381             	(1.18943822e-03 3.80768852e-13 -1.12374672e-16)
382             	(1.18134481e-03 3.85811428e-13 -1.12224233e-16)
383             	(1.17331423e-03 3.90759853e-13 -1.12073314e-16)
384             	(1.16534594e-03 3.95736958e-13 -1.11923595e-16)
385             	(1.15743941e-03 4.00742416e-13 -1.11775697e-16)
386             	(1.14959409e-03 4.05776231e-13 -1.11629414e-16)
387             	(1.14180945e-03 4.10838495e-13 -1.11486225e-16)
388             	(1.13408497e-03 4.15927803e-13 -1.11352963e-16)
389             	(1.12642014e-03 4.21044272e-13 -1.11220469e-16)
390             	(1.11881443e-03 4.26187943e-13 -1.11083405e-16)
391             	(1.11126735e-03 4.31358324e-13 -1.10941310e-16)
392             	(1.10377837e-03 4.36555215e-13 -1.10799125e-16)
393             	(1.09634702e-03 4.41779931e-13 -1.10656727e-16)
394             	(1.08897279e-03 4.47030511e-13 -1.10513759e-16)
395             	(1.08165519e-03 4.52306461e-13 -1.10370314e-16)
396             	(1.07439374e-03 4.57607583e-13 -1.10227453e-16)
397             	(1.06718797e-03 4.62934888e-13 -1.10085242e-16)
398             	(1.06003739e-03 4.68287832e-13 -1.09943203e-16)
399             	(1.05294154e-03 4.73665811e-13 -1.09801026e-16)
400             	(1.04589995e-03 4.79068504e-13 -1.09658697e-16)
401             	(1.03891216e-03 4.84495690e-13 -1.09516639e-16)
402             	(1.03197772e-03 4.89947540e-13 -1.09374305e-16)
403             	(1.02509617e-03 4.95423713e-13 -1.09233827e-16)
404             	(1.01826706e-03 5.00922550e-13 -1.09089883e-16)
405             	(1.01148996e-03 5.06445580e-13 -1.08946112e-16)
406             	(1.00476443e-03 5.11991201e-13 -1.08802518e-16)
407             	(9.98090024e-04 5.17560606e-13 -1.08658516e-16)
408             	(9.91466319e-04 5.23152187e-13 -1.08511998e-16)
409             	(9.84892888e-04 5.28766943e-13 -1.08363279e-16)
410             	(9.78369309e-04 5.34403250e-13 -1.08212531e-16)
411             	(9.71895165e-04 5.40060872e-13 -1.08061889e-16)
412             	(9.65470042e-04 5.45741041e-13 -1.07911024e-16)
413             	(9.59093529e-04 5.51443486e-13 -1.07761851e-16)
414             	(9.52765221e-04 5.57166430e-13 -1.07631869e-16)
415             	(9.46484715e-04 5.62909918e-13 -1.07504357e-16)
416             	(9.40251614e-04 5.68673721e-13 -1.07373322e-16)
417             	(9.34065523e-04 5.74457765e-13 -1.07240167e-16)
418             	(9.27926052e-04 5.80262842e-13 -1.07105117e-16)
419             	(9.21832813e-04 5.86087007e-13 -1.06969861e-16)
420             	(9.15785423e-04 5.91931591e-13 -1.06836248e-16)
421             	(9.09783502e-04 5.97795487e-13 -1.06711875e-16)
422             	(9.03826675e-04 6.03677805e-13 -1.06602278e-16)
423             	(8.97914569e-04 6.09579336e-13 -1.06495744e-16)
424             	(8.92046814e-04 6.15499092e-13 -1.06388089e-16)
425             	(8.86223046e-04 6.21437192e-13 -1.06288388e-16)
426             	(8.80442901e-04 6.27393280e-13 -1.06191694e-16)
427             	(8.74706022e-04 6.33367045e-13 -1.06093305e-16)
428             	(8.69012053e-04 6.39358136e-13 -1.05992999e-16)
429             	(8.63360641e-04 6.45366435e-13 -1.05891724e-16)
430             	(8.57751439e-04 6.51391425e-13 -1.05790304e-16)
431             	(8.52184100e-04 6.57433328e-13 -1.05689356e-16)
432             	(8.46658282e-04 6.63491723e-13 -1.05589320e-16)
433             	(8.41173645e-04 6.69566235e-13 -1.05490310e-16)
434             	(8.35729855e-04 6.75656557e-13 -1.05392343e-16)
435             	(8.30326578e-04 6.81762531e-13 -1.05295310e-16)
436             	(8.24963484e-04 6.87883915e-13 -1.05199141e-16)
437             	(8.19640246e-04 6.94019923e-13 -1.05103746e-16)
438             	(8.14356540e-04 7.00171015e-13 -1.05009070e-16)
439             	(8.09112046e-04 7.06336896e-13 -1.04915324e-16)
440             	(8.03906446e-04 7.12516393e-13 -1.04823095e-16)
441             	(7.98739425e-04 7.18709991e-13 -1.04726956e-16)
442             	(7.93610670e-04 7.24917039e-13 -1.04631487e-16)
443             	(7.88519873e-04 7.31136872e-13 -1.04537540e-16)
444             	(7.83466727e-04 7.37370942e-13 -1.04445616e-16)
445             	(7.78450928e-04 7.43617889e-13 -1.04355609e-16)
446             	(7.73472176e-04 7.49877816e-13 -1.04266907e-16)
447             	(7.68530172e-04 7.56150484e-13 -1.04179258e-16)
448             	(7.63624621e-04 7.62434704e-13 -1.04092076e-16)
449             	(7.58755230e-04 7.68730786e-13 -1.04005518e-16)
450             	(7.53921710e-04 7.75038527e-13 -1.03919759e-16)
451             	(7.49123771e-04 7.81358001e-13 -1.03834905e-16)
452             	(7.44361130e-04 7.87688769e-13 -1.03750684e-16)
453             	(7.39633505e-04 7.94029877e-13 -1.03665728e-16)
454             	(7.34940615e-04 8.00382308e-13 -1.03578574e-16)
455             	(7.30282182e-04 8.06746137e-13 -1.03489613e-16)
456             	(7.25657933e-04 8.13116983e-13 -1.03399242e-16)