/*--------------------------------*- C++ -*----------------------------------*\
| =========                 |                                                 |
| \\      /  F ield         | OpenFOAM: The Open Source CFD Toolbox           |
|  \\    /   O peration     | Version:  2206                                  |
|   \\  /    A nd           | Website:  www.openfoam.com                      |
|    \\/     M anipulation  |                                                 |
\*---------------------------------------------------------------------------*/
FoamFile
{
    version     2.0;
    format      ascii;
    arch        "LSB;label=32;scalar=64";
    class       surfaceScalarField;
    location    "1000";
    object      phi;
}
// * * * * * * * * * * * * * * * * * * * * * * * * * * * * * * * * * * * * * //

dimensions      [0 3 -1 0 0 0 0];

oriented        oriented;

internalField   nonuniform List<scalar> 
5870
(
-2.62252904234e-08
1.26032276796e-06
-9.82008270421e-08
3.40466758524e-06
-2.06755104001e-07
5.05768458988e-06
-3.44779463859e-07
6.30551510004e-06
-5.06519892124e-07
7.22023297579e-06
-6.8713679006e-07
7.86215154269e-06
-8.82446097969e-07
8.28173860808e-06
-1.08876476132e-06
8.52119445342e-06
-1.30281979643e-06
8.61576766309e-06
-1.5216956603e-06
8.59485714187e-06
-1.74280373195e-06
8.48293744083e-06
-1.96386357612e-06
8.3003371796e-06
-2.18288952321e-06
8.06389474887e-06
-2.39817872513e-06
7.7875112978e-06
-2.60829863143e-06
7.48261755732e-06
-2.81207261116e-06
7.15856785464e-06
-3.00856106328e-06
6.8229706947e-06
-3.19703497036e-06
6.48196461242e-06
-3.3769590824e-06
6.14046732403e-06
-3.54806471049e-06
5.80246758829e-06
-3.71061045176e-06
5.4713837463e-06
-3.86556114569e-06
5.15012571275e-06
-4.01326842711e-06
4.83971756552e-06
-4.14773168331e-06
4.53497965485e-06
-4.24361468453e-06
4.21736962444e-06
-4.23711307442e-06
3.84890477842e-06
-4.00863520406e-06
3.37403523324e-06
-3.37945719054e-06
2.73366805225e-06
-2.12810320572e-06
1.88493402358e-06
7.94496394838e-07
-2.05617407395e-08
1.28088450874e-06
-7.55378139021e-08
3.45964365829e-06
-1.56661928042e-07
5.138808704e-06
-2.56916913376e-07
6.40577008544e-06
-3.70494889433e-07
7.33381095189e-06
-4.92698881032e-07
7.9843555345e-06
-6.19812970835e-07
8.40885269799e-06
-7.48966308558e-07
8.65034779127e-06
-8.78001189601e-07
8.74480254415e-06
-1.0053499171e-06
8.72220586909e-06
-1.12992284885e-06
8.60751037299e-06
-1.25100880896e-06
8.42142313899e-06
-1.36818825143e-06
8.18107419216e-06
-1.48125912597e-06
7.90058217167e-06
-1.59017482672e-06
7.591533258e-06
-1.69499222054e-06
7.26338524848e-06
-1.79582647345e-06
6.92380494745e-06
-1.89282203001e-06
6.57896016898e-06
-1.98619324e-06
6.23383853491e-06
-2.07638702451e-06
5.89266137269e-06
-2.16406055695e-06
5.55905727808e-06
-2.2485513877e-06
5.23461654378e-06
-2.32258721587e-06
4.91375339417e-06
-2.36258383644e-06
4.57497627476e-06
-2.31989669081e-06
4.17468247878e-06
-2.12553787338e-06
3.65454596103e-06
-1.72072290206e-06
2.96922026216e-06
-1.1127833881e-06
2.12572853834e-06
-4.36108570958e-07
1.20825920661e-06
3.58387823843e-07
-1.06067004413e-08
1.2914912092e-06
-3.88679271067e-08
3.48790488491e-06
-8.11528150694e-08
5.18109359196e-06
-1.34501987073e-07
6.45911925747e-06
-1.96497174489e-07
7.39580613933e-06
-2.65157499529e-07
8.05301585964e-06
-3.38848302857e-07
8.48254350136e-06
-4.16207012034e-07
8.7277065005e-06
-4.96084829467e-07
8.82468036159e-06
-5.77502080569e-07
8.80362312008e-06
-6.59615045851e-07
8.68962333844e-06
-7.41692086604e-07
8.50350017943e-06
-8.23096982545e-07
8.26247908845e-06
-9.03277639184e-07
7.98076282803e-06
-9.81758076591e-07
7.67001369537e-06
-1.05813070991e-06
7.3397578818e-06
-1.13205091106e-06
6.99772514854e-06
-1.20326372434e-06
6.65017298226e-06
-1.27171065735e-06
6.30228546832e-06
-1.33754691943e-06
5.95849763472e-06
-1.40013275457e-06
5.62164311292e-06
-1.45423552299e-06
5.28871931233e-06
-1.48298233021e-06
4.94250020161e-06
-1.45246081753e-06
4.54445476178e-06
-1.31874231077e-06
4.04096397201e-06
-1.05496436043e-06
3.3907680107e-06
-6.88714441855e-07
2.60297034366e-06
-3.17668904387e-07
1.75468300089e-06
-6.78711301654e-08
9.58461432423e-07
2.90516693672e-07
-1.03183865082e-08
1.30180959572e-06
-3.84009433479e-08
3.51598744172e-06
-8.01948314297e-08
5.22288748004e-06
-1.32376615276e-07
6.51130104133e-06
-1.92197532951e-07
7.45562705701e-06
-2.57371946802e-07
8.11819027355e-06
-3.26000001136e-07
8.55117155572e-06
-3.96509400979e-07
8.79821590038e-06
-4.67609978471e-07
8.89578093909e-06
-5.38256394531e-07
8.87426953606e-06
-6.07616172055e-07
8.75898311608e-06
-6.75041387295e-07
8.57092539446e-06
-7.40043121311e-07
8.32748082271e-06
-8.02268149252e-07
8.04298785576e-06
-8.61476805498e-07
7.7292223516e-06
-9.17521542744e-07
7.39580261905e-06
-9.70338851511e-07
7.05054245726e-06
-1.01999291028e-06
6.69982704103e-06
-1.06672526705e-06
6.34901782538e-06
-1.11047710264e-06
6.00224947027e-06
-1.14855525854e-06
5.6597212686e-06
-1.17056797226e-06
5.31073202615e-06
-1.15362741531e-06
4.92555964483e-06
-1.06614126021e-06
4.45696860645e-06
-8.86802657621e-07
3.86162536942e-06
-6.30974236346e-07
3.13493958943e-06
-3.59432534774e-07
2.33142864214e-06
-1.47594432081e-07
1.5428448982e-06
-3.2757467899e-08
8.43624468254e-07
2.57759225772e-07
-8.8384932394e-09
1.31064808897e-06
-3.27950774099e-08
3.53994402586e-06
-6.82288655042e-08
5.25832126812e-06
-1.12120198747e-07
6.5551923746e-06
-1.61993983942e-07
7.50550084222e-06
-2.15844018187e-07
8.17204030786e-06
-2.72063853376e-07
8.60739139094e-06
-3.2938311504e-07
8.85553516208e-06
-3.86810808706e-07
8.95320863276e-06
-4.43585657198e-07
8.93104438448e-06
-4.99133412234e-07
8.81453087124e-06
-5.53030740628e-07
8.62482272265e-06
-6.04975108179e-07
8.3794251905e-06
-6.54759739583e-07
8.09277248698e-06
-7.02252077656e-07
7.77671468965e-06
-7.47377992626e-07
7.44092853403e-06
-7.90131954286e-07
7.09329641887e-06
-8.30624693444e-07
6.74031978019e-06
-8.68943375039e-07
6.38733650724e-06
-9.03970729101e-07
6.0372768243e-06
-9.30067925079e-07
5.68581846438e-06
-9.32683908764e-07
5.31334800992e-06
-8.88562405762e-07
4.88143814197e-06
-7.77203501442e-07
4.34560970196e-06
-6.00654697118e-07
3.68507656509e-06
-3.94210354744e-07
2.92849524707e-06
-2.10343565856e-07
2.14756185327e-06
-8.43731614537e-08
1.4168744938e-06
-1.86645939933e-08
7.77915900803e-07
2.39094631777e-07
-7.19040534968e-09
1.31783849433e-06
-2.65688811509e-08
3.55932250163e-06
-5.53389244335e-08
5.2870913114e-06
-9.11880933323e-08
6.59104154351e-06
-1.32215091053e-07
7.54652783995e-06
-1.7686596694e-07
8.2166911838e-06
-2.23878021653e-07
8.65440344568e-06
-2.72231516975e-07
8.90388865743e-06
-3.21108903854e-07
9.00208601964e-06
-3.6986042132e-07
8.97979590188e-06
-4.17975294972e-07
8.86264574498e-06
-4.65057693642e-07
8.67190512116e-06
-5.10806655543e-07
8.42517415258e-06
-5.5499893004e-07
8.13696476133e-06
-5.97474011445e-07
7.81918977104e-06
-6.38128416866e-07
7.48158293945e-06
-6.76939099033e-07
7.132107101e-06
-7.13958553315e-07
6.77733923447e-06
-7.4884116004e-07
6.42221911418e-06
-7.78942172127e-07
6.06737783636e-06
-7.95761134949e-07
5.70263742704e-06
-7.8281935918e-07
5.30040623422e-06
-7.20966775385e-07
4.81958555828e-06
-6.02573371721e-07
4.22721629816e-06
-4.44194935315e-07
3.52669812868e-06
-2.82146331254e-07
2.76644664301e-06
-1.5025608462e-07
2.01567160666e-06
-6.1983797217e-08
1.3286022064e-06
-1.43156317207e-08
7.3024773531e-07
2.24779000055e-07
-6.629458675e-09
1.32446795301e-06
-2.45091634896e-08
3.57720220643e-06
-5.10700048234e-08
5.31365215273e-06
-8.41898454345e-08
6.62416138413e-06
-1.22120815399e-07
7.58445880992e-06
-1.63429417353e-07
8.25799978579e-06
-2.06945938949e-07
8.6979199673e-06
-2.51721888531e-07
8.94866460703e-06
-2.9699425496e-07
9.04735838608e-06
-3.42155211265e-07
9.02495685813e-06
-3.86726469266e-07
8.90721700306e-06
-4.30337532916e-07
8.71551618466e-06
-4.72707175492e-07
8.46754379532e-06
-5.13627243801e-07
8.1778848295e-06
-5.5294974688e-07
7.8585122741e-06
-5.90588278353e-07
7.51922147093e-06
-6.26536998621e-07
7.16805582124e-06
-6.60740672528e-07
6.81154290838e-06
-6.92193272169e-07
6.45367171401e-06
-7.16519343327e-07
6.0917039075e-06
-7.23046160808e-07
5.70916424438e-06
-6.95675145893e-07
5.27303521936e-06
-6.2152931184e-07
4.74543972432e-06
-5.03307464399e-07
4.10899445061e-06
-3.63036141477e-07
3.38642680575e-06
-2.30197942068e-07
2.6336084436e-06
-1.2489530653e-07
1.91036897113e-06
-5.30123027571e-08
1.25671920263e-06
-1.26889341708e-08
6.89924366729e-07
2.12090065884e-07
-6.27924084622e-09
1.33074719386e-06
-2.32414254607e-08
3.59416439102e-06
-4.84227495485e-08
5.33883347682e-06
-7.978856942e-08
6.65552720401e-06
-1.15666088349e-07
7.62033632886e-06
-1.54687324656e-07
8.29702102214e-06
-1.95740233862e-07
8.73897287652e-06
-2.37927021705e-07
8.9908513949e-06
-2.80528791975e-07
9.08996015635e-06
-3.22975522728e-07
9.06740358883e-06
-3.64820729757e-07
8.94906221017e-06
-4.05720109161e-07
8.75641556393e-06
-4.45413428891e-07
8.50723711521e-06
-4.83708981573e-07
8.21618038206e-06
-5.20473647003e-07
7.89527693952e-06
-5.55639568353e-07
7.55438739228e-06
-5.89192333867e-07
7.20160858673e-06
-6.20845334639e-07
6.84319590915e-06
-6.48709555189e-07
6.48153593474e-06
-6.66742246511e-07
6.1097365988e-06
-6.63167158756e-07
5.70558915649e-06
-6.2412574453e-07
5.23399380519e-06
-5.43285917607e-07
4.66459989749e-06
-4.29918717211e-07
3.99562725012e-06
-3.05980145628e-07
3.26248823416e-06
-1.93550500924e-07
2.5211787989e-06
-1.05262880186e-07
1.82208135041e-06
-4.46804943799e-08
1.19613681683e-06
-1.06296240226e-08
6.55873496377e-07
2.0146044186e-07
-5.8741037743e-09
1.33662129765e-06
-2.17428111522e-08
3.61003309838e-06
-4.53044648723e-08
5.36239513053e-06
-7.465891396e-08
6.68488165311e-06
-1.08243910489e-07
7.6539213254e-06
-1.4478144589e-07
8.33355855758e-06
-1.83231882044e-07
8.77742331269e-06
-2.22755064022e-07
9.0303745769e-06
-2.62677418822e-07
9.12988251115e-06
-3.02464090573e-07
9.10719026054e-06
-3.41695460326e-07
8.98829357999e-06
-3.80047340166e-07
8.79476744364e-06
-4.17274109414e-07
8.5444638846e-06
-4.53194705094e-07
8.25210097762e-06
-4.87686526832e-07
7.92976876124e-06
-5.20690924263e-07
7.58739178972e-06
-5.52136196504e-07
7.23305385894e-06
-5.81368039415e-07
6.87242775206e-06
-6.05492230036e-07
6.50566012553e-06
-6.17131585578e-07
6.12137595432e-06
-6.04539469356e-07
5.69299704014e-06
-5.5715310703e-07
5.18660744292e-06
-4.74206832798e-07
4.58165362333e-06
-3.68250767002e-07
3.88967118424e-06
-2.58851180448e-07
3.15308864761e-06
-1.62456791749e-07
2.42478441021e-06
-8.77168652178e-08
1.74734142388e-06
-3.6911757886e-08
1.1453317095e-06
-8.67965943727e-09
6.27641397933e-07
1.92780782422e-07
-5.52492785947e-09
1.34214622551e-06
-2.04447904543e-08
3.62495296095e-06
-4.26004203648e-08
5.38455076044e-06
-7.02091777447e-08
6.7124904105e-06
-1.01804953936e-07
7.68551710159e-06
-1.36187824127e-07
8.3679414278e-06
-1.72381040355e-07
8.81361652894e-06
-2.09594707243e-07
9.06758824381e-06
-2.47195050762e-07
9.16748285467e-06
-2.84678408301e-07
9.14467361803e-06
-3.21649295181e-07
9.02526446694e-06
-3.5780185533e-07
8.83092000367e-06
-3.92904052772e-07
8.57956608218e-06
-4.26785416196e-07
8.28598234093e-06
-4.59334098146e-07
7.96231744318e-06
-4.90489791292e-07
7.61854748286e-06
-5.20066340838e-07
7.26263040846e-06
-5.4692701862e-07
6.89928842985e-06
-5.67174735193e-07
6.52590784226e-06
-5.72581845782e-07
6.12678306489e-06
-5.52340538855e-07
5.6727557331e-06
-4.99437493528e-07
5.13370439763e-06
-4.17197282752e-07
4.49941341262e-06
-3.19208875083e-07
3.7916827765e-06
-2.22149459575e-07
3.0560292321e-06
-1.38514586213e-07
2.34114953685e-06
-7.44681906402e-08
1.68329502832e-06
-3.12707415759e-08
1.10213426044e-06
-7.35649897189e-09
6.0372715533e-07
1.85424283449e-07
-5.2489439967e-09
1.34739516951e-06
-1.9422830066e-08
3.63912684701e-06
-4.0470535265e-08
5.40559846564e-06
-6.66985682024e-08
6.73871844345e-06
-9.6714188092e-08
7.71553272149e-06
-1.2937760889e-07
8.40060484864e-06
-1.63761115463e-07
8.84800003553e-06
-1.9911454808e-07
9.10294167645e-06
-2.34836066394e-07
9.20320437299e-06
-2.70447420572e-07
9.18028497217e-06
-3.05573093163e-07
9.06039013959e-06
-3.39922636509e-07
8.8652695469e-06
-3.7327575052e-07
8.61291919632e-06
-4.05471893301e-07
8.31817848361e-06
-4.36408214237e-07
7.9932537641e-06
-4.66004801435e-07
7.64814407006e-06
-4.93898055265e-07
7.29052366226e-06
-5.18389808594e-07
6.92378018318e-06
-5.34689413384e-07
6.5422074472e-06
-5.34235822532e-07
6.12632947402e-06
-5.07749253073e-07
5.64626916354e-06
-4.5149353463e-07
5.07744867923e-06
-3.71471461647e-07
4.4193913397e-06
-2.81043118292e-07
3.70125443308e-06
-1.94214827848e-07
2.96920094165e-06
-1.20657962602e-07
2.26759267161e-06
-6.4814081629e-08
1.62745114736e-06
-2.72573311095e-08
1.06457750992e-06
-6.43577857315e-09
5.82905602797e-07
1.78988504875e-07
-5.01329208204e-09
1.3524084616e-06
-1.85520451835e-08
3.65266560009e-06
-3.86566049365e-08
5.42570302539e-06
-6.37090730545e-08
6.76377091158e-06
-9.23789553276e-08
7.74420260377e-06
-1.23577441614e-07
8.43180333496e-06
-1.56418320476e-07
8.88084091441e-06
-1.90185008091e-07
9.13670836408e-06
-2.24302602319e-07
9.23732196722e-06
-2.58314261641e-07
9.21429663145e-06
-2.91861270849e-07
9.09393714886e-06
-3.24666149288e-07
8.89807442523e-06
-3.56518657279e-07
8.64477170443e-06
-3.87267212393e-07
8.34892703862e-06
-4.16813634176e-07
8.02280018587e-06
-4.45033811115e-07
7.67636424701e-06
-4.71325212214e-07
7.31681506334e-06
-4.9339397412e-07
6.94584894508e-06
-5.05742688946e-07
6.55455616217e-06
-4.99947709662e-07
6.12053449472e-06
-4.68550733401e-07
5.61487218718e-06
-4.10573168437e-07
5.0194711143e-06
-3.33583180945e-07
4.34240135226e-06
-2.50101510146e-07
3.61777276223e-06
-1.7186383793e-07
2.89096326943e-06
-1.06463367249e-07
2.20219220093e-06
-5.71313347385e-08
1.57811911485e-06
-2.40259159559e-08
1.03147209114e-06
-5.67421646546e-09
5.64553903308e-07
1.73314288409e-07
-4.80223616987e-09
1.35721069778e-06
-1.77713019241e-08
3.66563466583e-06
-3.70301261912e-08
5.44496184965e-06
-6.10290223152e-08
6.78776980771e-06
-8.84936053382e-08
7.7716671868e-06
-1.18380954255e-07
8.4616906839e-06
-1.49842165747e-07
8.91230212591e-06
-1.82190786749e-07
9.1690569851e-06
-2.1487604732e-07
9.27000722779e-06
-2.47460248825e-07
9.24688083291e-06
-2.79599666752e-07
9.12607656685e-06
-3.11028385439e-07
8.92950314382e-06
-3.41545326042e-07
8.67528864515e-06
-3.710069623e-07
8.37838867478e-06
-3.99313060586e-07
8.05110628415e-06
-4.26266426814e-07
7.70331761324e-06
-4.50973489313e-07
7.34152212582e-06
-4.70556594342e-07
6.96543205011e-06
-4.79039912656e-07
6.56303948062e-06
-4.68513419224e-07
6.11000800127e-06
-4.33401626567e-07
5.57976039443e-06
-3.74899131569e-07
4.96096861934e-06
-3.01348350474e-07
4.26885057121e-06
-2.2419444424e-07
3.54061885594e-06
-1.53295057996e-07
2.82006388319e-06
-9.46821170708e-08
2.14357926e-06
-5.07245726505e-08
1.53416157044e-06
-2.13090356917e-08
1.00205655418e-06
-5.02760468599e-09
5.48272472306e-07
1.68286683723e-07
-4.61361251995e-09
1.3618243103e-06
-1.70730634103e-08
3.67809411671e-06
-3.55752935866e-08
5.46346407983e-06
-5.86317169493e-08
6.81082623108e-06
-8.50181985573e-08
7.79805366841e-06
-1.13732920167e-07
8.49040540554e-06
-1.43960407838e-07
8.9425296136e-06
-1.75041215342e-07
9.20013779262e-06
-2.06446210299e-07
9.30141222275e-06
-2.37754861506e-07
9.27818948408e-06
-2.68636888035e-07
9.15695859343e-06
-2.98836789171e-07
8.95970304485e-06
-3.28161936271e-07
8.70461379237e-06
-3.56475444646e-07
8.40670218306e-06
-3.83665708864e-07
8.07829654836e-06
-4.09431781642e-07
7.72908368602e-06
-4.32551712847e-07
7.364642057e-06
-4.49615712343e-07
6.98249604961e-06
-4.54405251931e-07
6.56782902034e-06
-4.39787597184e-07
6.09539034651e-06
-4.01973818181e-07
5.54194661535e-06
-3.43783420515e-07
4.9027782217e-06
-2.73806209663e-07
4.19887336041e-06
-2.02367176937e-07
3.46917982317e-06
-1.37780569197e-07
2.75547727544e-06
-8.48834591207e-08
2.09068214993e-06
-4.54121444838e-08
1.49469025581e-06
-1.90649283812e-08
9.75709338075e-07
-4.49722619314e-09
5.33704770119e-07
1.63789457529e-07
-4.44550923631e-09
1.36626981954e-06
-1.64509180275e-08
3.69009952548e-06
-3.42790062254e-08
5.48129216802e-06
-5.6495543027e-08
6.83304276789e-06
-8.19211022471e-08
7.82347922764e-06
-1.09590442925e-07
8.51807474625e-06
-1.38717850919e-07
8.97165702161e-06
-1.68667931502e-07
9.23008787322e-06
-1.98930832304e-07
9.33167512356e-06
-2.2910132736e-07
9.3083599791e-06
-2.58861131793e-07
9.18671839792e-06
-2.87964111531e-07
8.98880602449e-06
-3.16225373213e-07
8.73287505416e-06
-3.43512436118e-07
8.43398924588e-06
-3.69690617829e-07
8.10447473006e-06
-3.94325317888e-07
7.75371838608e-06
-4.15846273178e-07
7.38616301227e-06
-4.30392538234e-07
6.99704231466e-06
-4.31721269925e-07
6.56915775215e-06
-4.1363485369e-07
6.07730393026e-06
-3.73945695186e-07
5.50225745676e-06
-3.16631606162e-07
4.84546413271e-06
-2.50196277662e-07
4.13243803195e-06
-1.83890176518e-07
3.40287372199e-06
-1.24757173343e-07
2.69634427227e-06
-7.67051733242e-08
2.04263014991e-06
-4.09977484662e-08
1.45898283095e-06
-1.72072350394e-08
9.51918824651e-07
-4.05978673018e-09
5.20557321811e-07
1.59729670799e-07
-4.29430037874e-09
1.37056411993e-06
-1.58914057404e-08
3.70169663083e-06
-3.31132398747e-08
5.49851400215e-06
-5.45744034419e-08
6.85450393146e-06
-7.91356384311e-08
7.84804046263e-06
-1.05864568447e-07
8.54480367629e-06
-1.34002222602e-07
8.99979467577e-06
-1.62934822801e-07
9.25902047344e-06
-1.92169849193e-07
9.36091014995e-06
-2.21315838021e-07
9.3375059679e-06
-2.50065302677e-07
9.21546786263e-06
-2.78180622688e-07
9.01692134441e-06
-3.05483904036e-07
8.76017833561e-06
-3.31843900291e-07
8.46034924205e-06
-3.57089325701e-07
8.12972015546e-06
-3.80625143265e-07
7.77725420364e-06
-4.0053056651e-07
7.4060684355e-06
-4.12592541175e-07
7.00910428933e-06
-4.10730505044e-07
6.56729571614e-06
-3.89752846457e-07
6.05632627166e-06
-3.48850365919e-07
5.46135497615e-06
-2.9278492177e-07
4.78939868859e-06
-2.29773190472e-07
4.06942630069e-06
-1.68074947511e-07
3.34117547899e-06
-1.13684501116e-07
2.64195382587e-06
-6.97788269025e-08
1.9987244757e-06
-3.726568406e-08
1.42646968812e-06
-1.56366651402e-08
9.30289805731e-07
-3.68930680601e-09
5.08609963476e-07
1.56040363993e-07
-4.1569292303e-09
1.37472104916e-06
-1.53830746886e-08
3.71292277627e-06
-3.20540979667e-08
5.51518502543e-06
-5.28289660757e-08
6.87527879958e-06
-7.6604914792e-08
7.87181641135e-06
-1.0247942566e-07
8.57067818719e-06
-1.29717825273e-07
9.0270330754e-06
-1.5772597507e-07
9.28702862325e-06
-1.86027103015e-07
9.3892112779e-06
-2.14242248974e-07
9.36572111382e-06
-2.420737518e-07
9.2432993655e-06
-2.69291815037e-07
9.04413940756e-06
-2.95724693712e-07
8.78661121439e-06
-3.21238216393e-07
8.48586276464e-06
-3.45609890356e-07
8.15409182941e-06
-3.6806242874e-07
7.79970674203e-06
-3.86338530935e-07
7.42434453767e-06
-3.95979717451e-07
7.01874547584e-06
-3.91216076129e-07
6.56253207493e-06
-3.67867550431e-07
6.03297774595e-06
-3.26275362544e-07
5.4197627882e-06
-2.71696263041e-07
4.73481958911e-06
-2.11946538618e-07
4.0096765763e-06
-1.54391664287e-07
3.28362060462e-06
-1.04155242361e-07
2.59171740395e-06
-6.38338344585e-08
1.95840306779e-06
-3.40649239988e-08
1.39670077766e-06
-1.42891111592e-08
9.1051399289e-07
-3.37104414488e-09
4.97691896463e-07
1.52669319847e-07
-4.03142545586e-09
1.37875247462e-06
-1.49186317986e-08
3.7238099826e-06
-3.10863845414e-08
5.53135277817e-06
-5.12341894988e-08
6.89542660455e-06
-7.42926263195e-08
7.89487484818e-06
-9.93864572789e-08
8.59577201817e-06
-1.2580321002e-07
9.05344982815e-06
-1.52966691133e-07
9.31419210438e-06
-1.80414518382e-07
9.41665910515e-06
-2.07779157859e-07
9.39308575327e-06
-2.34771948938e-07
9.27029215663e-06
-2.6117031917e-07
9.07053777771e-06
-2.86807597219e-07
8.81224849253e-06
-3.11541558912e-07
8.51059672625e-06
-3.35083641437e-07
8.17763391193e-06
-3.56458672376e-07
7.82108177297e-06
-3.73100328404e-07
7.44098619368e-06
-3.80410472065e-07
7.02605561951e-06
-3.73039366241e-07
6.55516096921e-06
-3.47778768267e-07
6.00771714796e-06
-3.05905893308e-07
5.37788991317e-06
-2.52954664789e-07
4.68186836061e-06
-1.96284121948e-07
3.95300603349e-06
-1.42461989026e-07
3.22979847167e-06
-9.58862886415e-08
2.54514170356e-06
-5.8688365486e-08
1.92120514464e-06
-3.12980450448e-08
1.36931045722e-06
-1.31248816716e-08
8.92340829517e-07
-3.09618763019e-09
4.8766320242e-07
1.49573132216e-07
-3.91627946683e-09
1.38266875409e-06
-1.4492520247e-08
3.73438622337e-06
-3.01985311199e-08
5.54705878904e-06
-4.97710038094e-08
6.91499907724e-06
-7.21711035672e-08
7.91727494794e-06
-9.65486173936e-08
8.62014953202e-06
-1.2221143939e-07
9.07911265016e-06
-1.48599839297e-07
9.3405805043e-06
-1.75264637498e-07
9.44332390335e-06
-2.01848786575e-07
9.41966990232e-06
-2.28071913875e-07
9.29651528398e-06
-2.53718111875e-07
9.09618397562e-06
-2.78624404862e-07
8.83715478562e-06
-3.02634533629e-07
8.53460685495e-06
-3.25379544533e-07
8.20037892282e-06
-3.45677476038e-07
7.84137970447e-06
-3.60690632762e-07
7.45599935039e-06
-3.65779879868e-07
7.03114486661e-06
-3.56089524258e-07
6.5454706137e-06
-3.29314822347e-07
5.98094244604e-06
-2.87477252684e-07
5.33605234344e-06
-2.36227285136e-07
4.63061839309e-06
-1.82445771697e-07
3.89922452008e-06
-1.31993565733e-07
3.17934626568e-06
-8.86610971734e-08
2.501809235e-06
-5.42034862418e-08
1.88674753371e-06
-2.88896116731e-08
1.34399658266e-06
-1.21121788488e-08
8.75563396694e-07
-2.85719886338e-09
4.78408222435e-07
1.46715933353e-07
-3.81015435454e-09
1.38647890845e-06
-1.40997958607e-08
3.74467586486e-06
-2.93802395912e-08
5.56233923277e-06
-4.84224430794e-08
6.93404128074e-06
-7.02157550817e-08
7.93906825995e-06
-9.3933022607e-08
8.64386679957e-06
-1.18900908217e-07
9.10408053578e-06
-1.44574853753e-07
9.36625444985e-06
-1.70517847778e-07
9.46926689738e-06
-1.96382512284e-07
9.44553456679e-06
-2.21896146583e-07
9.32202891832e-06
-2.46848954159e-07
9.12113678312e-06
-2.71079927478e-07
8.86138575903e-06
-2.94412121067e-07
8.55793904846e-06
-3.16383125185e-07
8.22234992693e-06
-3.35602005863e-07
7.86059858516e-06
-3.49004111282e-07
7.46940145579e-06
-3.51996941749e-07
7.03413769708e-06
-3.40262205106e-07
6.53373587716e-06
-3.1231461009e-07
5.95299485102e-06
-2.70754094966e-07
5.29449182826e-06
-2.21231380777e-07
4.58109567892e-06
-1.70150582645e-07
3.84814372197e-06
-1.22748435252e-07
3.13194411825e-06
-8.23040365926e-08
2.46136483634e-06
-5.02658419826e-08
1.8547093391e-06
-2.67772661107e-08
1.32050800679e-06
-1.12243066972e-08
8.6001043728e-07
-2.64765990714e-09
4.69831575647e-07
1.44068273445e-07
-3.71191670162e-09
1.39019082516e-06
-1.3736258864e-08
3.75470020702e-06
-2.86227596366e-08
5.57722573354e-06
-4.71740927241e-08
6.95259261383e-06
-6.84056928356e-08
7.96029986006e-06
-9.15117511434e-08
8.6669728579e-06
-1.15836302697e-07
9.12840508735e-06
-1.40848833283e-07
9.39126698045e-06
-1.66123595508e-07
9.49454165961e-06
-1.91322168594e-07
9.47073313985e-06
-2.16178985849e-07
9.34688573562e-06
-2.40489776906e-07
9.1454475741e-06
-2.64093402912e-07
8.88498938512e-06
-2.86785142899e-07
8.58063078837e-06
-3.07997896588e-07
8.24356268061e-06
-3.26135838799e-07
7.87873652737e-06
-3.37955410155e-07
7.48122102713e-06
-3.38985306592e-07
7.03516759352e-06
-3.25463234595e-07
6.52021380526e-06
-2.9663278826e-07
5.92416440467e-06
-2.55532269734e-07
5.25339130968e-06
-2.07730147497e-07
4.5332935567e-06
-1.59168788781e-07
3.79958236329e-06
-1.14534734826e-07
3.08731006427e-06
-7.66746462267e-08
2.42350474774e-06
-4.67852487291e-08
1.8248199416e-06
-2.49116936801e-08
1.29863445174e-06
-1.04403645521e-08
8.45539108153e-07
-2.46263425769e-09
4.61853845354e-07
1.41605639188e-07
-3.62063891403e-09
1.39381146408e-06
-1.33984758223e-08
3.76447804391e-06
-2.79189379684e-08
5.59174619568e-06
-4.6014166337e-08
6.97068784221e-06
-6.67238314382e-08
7.98100952517e-06
-8.92619551124e-08
8.6895109816e-06
-1.12988713416e-07
9.15213184566e-06
-1.37386640802e-07
9.41566490785e-06
-1.62040456463e-07
9.51919547527e-06
-1.86620070929e-07
9.49531275429e-06
-2.1086657156e-07
9.37113223629e-06
-2.34580564154e-07
9.16916156661e-06
-2.57598308807e-07
8.90800712986e-06
-2.79680034855e-07
8.60271251435e-06
-3.00144960877e-07
8.26402760663e-06
-3.17201950954e-07
7.89579351745e-06
-3.27477547057e-07
7.49149662322e-06
-3.26682514689e-07
7.03437256115e-06
-3.11609966882e-07
6.50514125754e-06
-2.82141536607e-07
5.89469597439e-06
-2.41637508725e-07
5.21288728174e-06
-1.95527033885e-07
4.48718308188e-06
-1.49313486599e-07
3.75336881602e-06
-1.07198507344e-07
3.04519508499e-06
-7.16612903044e-08
2.3879675307e-06
-4.36905857849e-08
1.79684923708e-06
-2.32542875873e-08
1.27819815355e-06
-9.74410269055e-09
8.32028923255e-07
-2.2983090458e-09
4.54408051711e-07
1.39307330141e-07
-3.53554579922e-09
1.39734700988e-06
-1.30835793241e-08
3.77402607743e-06
-2.72628009979e-08
5.60592541736e-06
-4.4932820492e-08
6.98835786171e-06
-6.51558999496e-08
8.00123260463e-06
-8.71645469048e-08
8.71151962858e-06
-1.10333984017e-07
9.17530128279e-06
-1.34158909918e-07
9.43948983376e-06
-1.58233802096e-07
9.54327036745e-06
-1.82236348436e-07
9.5193153006e-06
-2.05913850746e-07
9.39480973865e-06
-2.29071047642e-07
9.19231876343e-06
-2.5153878395e-07
8.93047486626e-06
-2.73035035053e-07
8.62420876538e-06
-2.92758839531e-07
8.2837514111e-06
-3.08737884944e-07
7.91177256286e-06
-3.17516656235e-07
7.50027539449e-06
-3.15035568345e-07
7.03189147326e-06
-2.98628334447e-07
6.48873402373e-06
-2.68727483743e-07
5.86479512367e-06
-2.28919869717e-07
5.17307966767e-06
-1.84457233318e-07
4.4427204455e-06
-1.4043073485e-07
3.70934231758e-06
-1.00614393601e-07
3.00537874372e-06
-6.71737012835e-08
2.35452683838e-06
-4.09245596438e-08
1.77060009545e-06
-2.17739750604e-08
1.25904756897e-06
-9.12241683126e-09
8.19377365026e-07
-2.15159279216e-09
4.47437227673e-07
1.37155737349e-07
-3.45597467027e-09
1.40080298455e-06
-1.2789117435e-08
3.78335922018e-06
-2.66492405463e-08
5.61978554047e-06
-4.39216381142e-08
7.00563025928e-06
-6.36896961122e-08
8.02100066263e-06
-8.52032070477e-08
8.73303313954e-06
-1.07851463081e-07
9.19794953883e-06
-1.31140537327e-07
9.46277890802e-06
-1.54674033697e-07
9.56680386382e-06
-1.78136924433e-07
9.5427781913e-06
-2.01282310901e-07
9.41795512516e-06
-2.23918206434e-07
9.21495465889e-06
-2.45866928053e-07
8.95242358796e-06
-2.66797302638e-07
8.6451391399e-06
-2.85784277001e-07
8.30273838545e-06
-3.00692033652e-07
7.92668031951e-06
-3.08028096916e-07
7.50761145774e-06
-3.03997849576e-07
7.02786122592e-06
-2.86450790415e-07
6.47118696465e-06
-2.56289249502e-07
5.83463358275e-06
-2.1724927495e-07
5.13403969307e-06
-1.74381143168e-07
4.39985231373e-06
-1.32392200071e-07
3.6673533745e-06
-9.46789024729e-08
2.9676654461e-06
-6.313774946e-08
2.32298568536e-06
-3.84402141088e-08
1.7459025601e-06
-2.04452824371e-08
1.2410526373e-06
-8.56454606261e-09
8.07496628651e-07
-2.01994044919e-09
4.40892622061e-07
1.351357969e-07
-3.3813564376e-09
1.40418434099e-06
-1.2512984069e-08
3.7924908478e-06
-2.60738687618e-08
5.63334642516e-06
-4.29733890533e-08
7.02252977958e-06
-6.23147385173e-08
8.0403420121e-06
-8.33639178778e-08
8.75408231892e-06
-1.05523412502e-07
9.22010903346e-06
-1.28309961771e-07
9.4855654573e-06
-1.51335729939e-07
9.58982963199e-06
-1.7429253196e-07
9.5657349933e-06
-1.96938864008e-07
9.44060145724e-06
-2.19085026721e-07
9.23710082153e-06
-2.40541460197e-07
8.97388002152e-06
-2.60921469601e-07
8.66551914923e-06
-2.7917454984e-07
8.32099146568e-06
-2.93021582767e-07
7.94052735244e-06
-2.9897440558e-07
7.51356428053e-06
-2.93527809674e-07
7.02241463002e-06
-2.75015667089e-07
6.45267482215e-06
-2.44736258356e-07
5.80435417401e-06
-2.06512688869e-07
5.09581612354e-06
-1.65180014951e-07
4.35851963983e-06
-1.25090274432e-07
3.62726363401e-06
-8.93060288386e-08
2.93188120049e-06
-5.94921482886e-08
2.29317180481e-06
-3.61988355703e-08
1.72260924738e-06
-1.92472388046e-08
1.22410104053e-06
-8.06164122865e-09
7.96311031077e-07
-1.90126210138e-09
4.34732242935e-07
1.33234534799e-07
-3.31120133961e-09
1.40749554234e-06
-1.22533668128e-08
3.80143301326e-06
-2.55329095842e-08
5.64662596793e-06
-4.20818510386e-08
7.03907872104e-06
-6.10220064688e-08
8.05928216753e-06
-8.16346146721e-08
8.77469492714e-06
-1.03334564643e-07
9.24180898345e-06
-1.25648623959e-07
9.50787951663e-06
-1.48197007854e-07
9.61237801589e-06
-1.70677974994e-07
9.58821596041e-06
-1.92855008314e-07
9.4627784906e-06
-2.14539571379e-07
9.25878538453e-06
-2.35526713984e-07
8.9948671642e-06
-2.55368542974e-07
8.68536097816e-06
-2.72890152884e-07
8.33851307559e-06
-2.85690928287e-07
7.95332812785e-06
-2.90323818081e-07
7.51819717031e-06
-2.83588111996e-07
7.01567892393e-06
-2.64266718977e-07
6.43335342921e-06
-2.33987692969e-07
5.77407514799e-06
-1.96611760321e-07
5.05844019085e-06
-1.56752486784e-07
4.3186603663e-06
-1.18434287149e-07
3.58894543439e-06
-8.44238989752e-08
2.8978708123e-06
-5.61859375795e-08
2.26493384341e-06
-3.41683295478e-08
1.70059163935e-06
-1.81624902166e-08
1.2080952012e-06
-7.60638788846e-09
7.85754928751e-07
-1.79383179556e-09
4.2891968684e-07
1.31440703004e-07
-3.24508513153e-09
1.41074062747e-06
-1.20086957959e-08
3.81019662392e-06
-2.50230922626e-08
5.65964036439e-06
-4.12416343394e-08
7.05529726312e-06
-5.98036860041e-08
8.0778442192e-06
-8.00048462838e-08
8.79489608744e-06
-1.01271693316e-07
9.26307583049e-06
-1.23140445577e-07
9.5297482689e-06
-1.45238909074e-07
9.63447647939e-06
-1.67271422033e-07
9.61024847335e-06
-1.89006030803e-07
9.48451309941e-06
-2.1025409977e-07
9.28003345343e-06
-2.30791688973e-07
9.01540475349e-06
-2.50104861591e-07
8.70467415071e-06
-2.66897558014e-07
8.355305772e-06
-2.78670240715e-07
7.96510081055e-06
-2.82048986367e-07
7.52157591595e-06
-2.74144850385e-07
7.00777478795e-06
-2.54152553374e-07
6.41336113227e-06
-2.23971353019e-07
5.74389394763e-06
-1.87460645915e-07
5.0219294837e-06
-1.49011612065e-07
4.28021133247e-06
-1.12347366364e-07
3.55228118871e-06
-7.99720269034e-08
2.86549547282e-06