/*--------------------------------*- C++ -*----------------------------------*\
| =========                 |                                                 |
| \\      /  F ield         | OpenFOAM: The Open Source CFD Toolbox           |
|  \\    /   O peration     | Version:  2206                                  |
|   \\  /    A nd           | Website:  www.openfoam.com                      |
|    \\/     M anipulation  |                                                 |
\*---------------------------------------------------------------------------*/
FoamFile
{
    version     2.0;
    format      ascii;
    arch        "LSB;label=32;scalar=64";
    class       volVectorField;
    location    "1000";
    object      U;
}
// * * * * * * * * * * * * * * * * * * * * * * * * * * * * * * * * * * * * * //

dimensions      [0 1 -1 0 0 0 0];

internalField   nonuniform List<vector> 
3000
(
(1.00514458058 -0.000744522705848 -2.80394353667e-13)
(1.00519974501 -0.00170310632629 -9.58343513846e-14)
(1.00531043585 -0.002698262834 -6.23700370293e-14)
(1.00546243557 -0.00365899422544 -4.93476951858e-14)
(1.00564683019 -0.00457985139381 -3.88791037853e-14)
(1.00585649185 -0.00546342722149 -3.40628576315e-14)
(1.00608551792 -0.00631206599348 -2.97707564614e-14)
(1.00632890799 -0.00712708042257 -2.73569778581e-14)
(1.00658237121 -0.0079089914683 -2.56679799973e-14)
(1.00684220526 -0.00865780863814 -2.41046584647e-14)
(1.00710521504 -0.00937326445994 -2.29206605171e-14)
(1.00736865455 -0.0100549961296 -2.13531345319e-14)
(1.00763018162 -0.010702677785 -2.23492782897e-14)
(1.00788782059 -0.011316111306 -1.79435798619e-14)
(1.00813993925 -0.0118952842332 -2.09622845931e-14)
(1.00838525053 -0.0124404027859 -1.89844497425e-14)
(1.00862271865 -0.0129519031656 -2.01308798651e-14)
(1.00885085624 -0.0134304281663 -2.36824574965e-14)
(1.00906629155 -0.0138767537746 -2.28932727261e-14)
(1.00926649507 -0.0142918094358 -1.13375481171e-14)
(1.00947305484 -0.0146774029245 -1.56305683576e-14)
(1.0097901034 -0.0150381337862 -2.52224103588e-14)
(1.01043763909 -0.0153812308444 -1.55483055901e-14)
(1.01149155889 -0.0157035996817 -7.74337316405e-15)
(1.01178906063 -0.0159580706889 -2.50490288796e-14)
(1.00640478836 -0.0160112342508 -2.22844084854e-14)
(0.982512281327 -0.0155819836085 -2.18014207055e-14)
(0.91370681667 -0.0140618328098 -1.41633364295e-14)
(0.75065883322 -0.0103476457079 -8.03108753648e-15)
(0.396854543207 -0.00366081918168 -1.0330581261e-14)
(1.02739406077 -0.000572460173058 -7.25386399522e-13)
(1.02756270324 -0.00131409350835 -2.63181178951e-13)
(1.027903575 -0.00205341167996 -1.73273518311e-13)
(1.02836903452 -0.002744382834 -1.2680670522e-13)
(1.02892964844 -0.00337624342104 -1.03147573794e-13)
(1.02956199524 -0.00395211505774 -8.60003883354e-14)
(1.03024694395 -0.0044756765552 -7.74925824586e-14)
(1.0309686355 -0.00495116960118 -7.16529014224e-14)
(1.03171385078 -0.00538312021309 -6.58750044023e-14)
(1.03247156688 -0.00577607826665 -5.77012179503e-14)
(1.03323262074 -0.00613446712538 -5.97433895462e-14)
(1.03398944227 -0.0064624852344 -4.76835934181e-14)
(1.03473583497 -0.00676403766897 -5.81462115441e-14)
(1.03546679823 -0.00704269039572 -3.62470672875e-14)
(1.03617839762 -0.00730164324384 -4.97215923216e-14)
(1.03686756915 -0.00754371771759 -4.57207591168e-14)
(1.03753131983 -0.007771349279 -4.62080288507e-14)
(1.03816530668 -0.00798657315415 -5.38768935993e-14)
(1.03876818296 -0.00819106359753 -5.61770977e-14)
(1.03937125704 -0.00838650173759 -2.87303707022e-14)
(1.04009628061 -0.00857557356484 -3.57798611997e-14)
(1.04109861044 -0.00876193594228 -5.43775638299e-14)
(1.04192554748 -0.00894100791089 -3.82545463448e-14)
(1.03959084349 -0.00906893657279 -2.57073302223e-14)
(1.0252489452 -0.00901810451988 -5.23191195232e-14)
(0.981179745672 -0.00856999173924 -4.79426641904e-14)
(0.881876216537 -0.00747530909848 -4.15857344961e-14)
(0.703343563578 -0.00554013740506 -2.68625418098e-14)
(0.442257350829 -0.00283907212677 -1.32029119371e-14)
(0.139647664065 -0.000247218215822 -7.4909101039e-15)
(1.04476400268 -0.000294306558232 -9.3831590332e-13)
(1.04492110378 -0.000684130957278 -3.66934287227e-13)
(1.04523857595 -0.0010650651712 -2.34835684051e-13)
(1.04567053242 -0.00143628829792 -1.63491645243e-13)
(1.04618902529 -0.00178623612457 -1.39737301942e-13)
(1.04677177085 -0.0021184548341 -1.18109682558e-13)
(1.04740072934 -0.00243415965447 -1.05110983216e-13)
(1.04806109901 -0.00273466732125 -9.76197358008e-14)
(1.04874071359 -0.00302110836369 -9.01262425288e-14)
(1.04942959267 -0.00329435380027 -7.85681570587e-14)
(1.05011958534 -0.00355505142968 -8.00770152428e-14)
(1.05080408081 -0.00380366534235 -6.62645214873e-14)
(1.05147777054 -0.00404051685213 -7.61901552663e-14)
(1.05213646605 -0.0042658254338 -5.35793529299e-14)
(1.0527769469 -0.00447974695329 -6.64035537252e-14)
(1.05339650114 -0.00468240264021 -6.24711211236e-14)
(1.05399160581 -0.00487388663804 -6.62117416718e-14)
(1.05455897287 -0.00505429655728 -7.67007828532e-14)
(1.05511477092 -0.00522400707679 -7.03321401302e-14)
(1.05574408032 -0.00538429301625 -4.44790448497e-14)
(1.05657215969 -0.00553679178515 -5.20249986719e-14)
(1.05722131333 -0.00567651101583 -6.7196280959e-14)
(1.05505233123 -0.00577094249664 -5.21486055958e-14)
(1.04213219955 -0.00572874502247 -4.53558823425e-14)
(1.00295313074 -0.00539161318271 -6.35371259594e-14)
(0.916976611813 -0.0045988670591 -5.75096597065e-14)
(0.768905690321 -0.00332334123868 -4.54094292078e-14)
(0.563372890361 -0.00180155812042 -3.00103255514e-14)
(0.330956354885 -0.000545069416757 -1.50116004018e-14)
(0.107742004256 -3.9426594044e-06 -4.92594725734e-15)
(1.052706044 -0.000287045120495 -1.06453675909e-12)
(1.05284838597 -0.000671771084623 -4.53425623699e-13)
(1.05313558708 -0.00104710943031 -2.84717693921e-13)
(1.05352718419 -0.00141094547309 -2.00475085069e-13)
(1.05399883747 -0.00174633276909 -1.69795552678e-13)
(1.05453096837 -0.00205805722979 -1.44742092235e-13)
(1.05510768825 -0.00234652807097 -1.27647757457e-13)
(1.05571581067 -0.00261295345698 -1.16933581573e-13)
(1.05634434607 -0.00285848721745 -1.08370124207e-13)
(1.05698412666 -0.00308423858709 -9.60603737032e-14)
(1.05762752059 -0.00329131049066 -9.54728682778e-14)
(1.05826820676 -0.00348080312334 -8.11657142831e-14)
(1.0589009971 -0.00365381431118 -8.91156980293e-14)
(1.05952170789 -0.00381143659006 -6.84210587881e-14)
(1.06012695669 -0.00395475086475 -7.95080567636e-14)
(1.06071338033 -0.0040848112359 -7.67394555136e-14)
(1.06127697415 -0.00420262198936 -8.11043027481e-14)
(1.06182154534 -0.00430921560706 -8.78473597058e-14)
(1.06239246619 -0.00440605923581 -7.91528377302e-14)
(1.06308597078 -0.00449517956762 -5.78354983096e-14)
(1.06372622706 -0.00457534744067 -6.5498352682e-14)
(1.06257812057 -0.00462799231258 -7.53317736583e-14)
(1.05381285493 -0.00459360776894 -6.2807358888e-14)
(1.02522459939 -0.00436151931843 -5.92068883516e-14)
(0.95979140463 -0.00381145914845 -6.82915109786e-14)
(0.843738488541 -0.00291404137814 -5.9778416695e-14)
(0.677905350848 -0.00182301094145 -4.52920866751e-14)
(0.481936368159 -0.000847836763137 -3.04882877738e-14)
(0.282001679737 -0.000250609889823 -1.64063700893e-14)
(0.0922358211498 -1.51502860074e-05 -5.43188509548e-15)
(1.05842793217 -0.000243669755088 -1.1610759398e-12)
(1.05857363262 -0.000574950795902 -5.28048452497e-13)
(1.05886701535 -0.000893351361523 -3.27994007251e-13)
(1.0592670067 -0.00120030734965 -2.32142603344e-13)
(1.05974834717 -0.00147775754178 -1.95160899499e-13)
(1.06029068252 -0.00173282579774 -1.6683686369e-13)
(1.06087756024 -0.00196565402908 -1.46414674587e-13)
(1.06149533857 -0.00217814672692 -1.33648314346e-13)
(1.06213269199 -0.00237199414642 -1.23040265357e-13)
(1.06278021727 -0.0025488089693 -1.10452518638e-13)
(1.06343013431 -0.00271011452956 -1.07716583466e-13)
(1.06407604833 -0.00285732093666 -9.28776226498e-14)
(1.06471276434 -0.00299172143733 -9.94884361276e-14)
(1.06533613177 -0.00311449424513 -8.1239505557e-14)
(1.06594267414 -0.00322670565126 -8.93386810571e-14)
(1.06652871191 -0.00332930864231 -8.87643625117e-14)
(1.06709231275 -0.0034231637993 -9.32264504978e-14)
(1.06765084316 -0.0035092260093 -9.66359045352e-14)
(1.06826696459 -0.00358886255071 -8.62094934818e-14)
(1.06891761719 -0.00366254602561 -6.86770257349e-14)
(1.06871748736 -0.00372201325798 -7.47222105203e-14)
(1.06399936838 -0.00373281150061 -8.1538529324e-14)
(1.04595354646 -0.00361963221838 -7.10923515788e-14)
(1.00063377935 -0.00328533931337 -6.76947729146e-14)
(0.914301203835 -0.00268030981529 -6.99311410622e-14)
(0.782707132868 -0.00187993044495 -5.94202765346e-14)
(0.616615355128 -0.00108180844253 -4.44891169042e-14)
(0.435827272026 -0.00048259941617 -3.02576653987e-14)
(0.256146575609 -0.000143785645421 -1.68482848093e-14)
(0.0842632978183 -6.14198594945e-06 -5.52315668864e-15)
(1.06474587045 -0.000197206062118 -1.21803396374e-12)
(1.0648900113 -0.00046761153762 -5.88424053845e-13)
(1.06518000965 -0.000724234606052 -3.58765126059e-13)
(1.06557530173 -0.000975919693251 -2.58114853488e-13)
(1.0660507534 -0.00120431857199 -2.15666091857e-13)
(1.06658619147 -0.00141751724506 -1.84681276534e-13)
(1.06716536659 -0.00161431554012 -1.6161714493e-13)
(1.06777481165 -0.00179634200797 -1.47275173102e-13)
(1.06840337834 -0.00196465636814 -1.34888462264e-13)
(1.06904183038 -0.00212029431117 -1.2218234755e-13)
(1.06968254134 -0.00226422502429 -1.17605319593e-13)
(1.0703192552 -0.00239734024845 -1.03546406673e-13)
(1.07094690116 -0.00252046214573 -1.06307272949e-13)
(1.07156139638 -0.00263434840019 -9.11611784435e-14)
(1.07215912856 -0.00273969374136 -9.82570371016e-14)
(1.0727366204 -0.00283713082409 -9.90591025996e-14)
(1.07329674691 -0.00292729259093 -1.02701935505e-13)
(1.07387011591 -0.00301103783179 -1.04462121448e-13)
(1.07449074476 -0.00308925657031 -9.26573621413e-14)
(1.07482349861 -0.00315932899507 -7.88076490671e-14)
(1.07290785823 -0.00320389835868 -8.25333896922e-14)
(1.06302274992 -0.003175433811 -8.67976807359e-14)
(1.03444213754 -0.00299767760181 -7.74535885631e-14)
(0.974077450575 -0.00260715900419 -7.32897466758e-14)
(0.873599807545 -0.0020191445869 -7.03110335115e-14)
(0.736132456891 -0.00135306342023 -5.9196637719e-14)
(0.57531950155 -0.00076674722251 -4.42316023086e-14)
(0.406517900378 -0.000351735282866 -3.01115780721e-14)
(0.239620384322 -0.000110220489698 -1.69363302968e-14)
(0.0791579676495 -6.39204509524e-06 -5.52842250075e-15)
(1.07071292256 -0.000182250438464 -1.25509646664e-12)
(1.07085484384 -0.000431555340986 -6.41239015779e-13)
(1.07113989367 -0.000667199481963 -3.83614790482e-13)
(1.07152853847 -0.000900166327071 -2.80985066056e-13)
(1.07199622013 -0.0011111064142 -2.33730135323e-13)
(1.07252324909 -0.00130880200108 -2.00361472548e-13)
(1.07309374679 -0.00149118144686 -1.75067674879e-13)
(1.07369451147 -0.00166007350553 -1.59308126779e-13)
(1.07431459676 -0.001816295911 -1.45735869294e-13)
(1.07494490655 -0.00196077469803 -1.32556382168e-13)
(1.0755779079 -0.002094376276 -1.26375770722e-13)
(1.07620740391 -0.00221790707555 -1.1284103078e-13)
(1.07682835342 -0.00233212069994 -1.13072119641e-13)
(1.07743661617 -0.00243771829128 -1.00075896515e-13)
(1.07802841478 -0.00253534619706 -1.05824914654e-13)
(1.07860139774 -0.00262560649625 -1.07424578431e-13)
(1.07916521946 -0.00270916385833 -1.10368166918e-13)
(1.07975232065 -0.00278688399495 -1.09807855207e-13)
(1.08028714196 -0.00285868032181 -9.87232356485e-14)
(1.07990280935 -0.00291748845902 -8.65196452995e-14)
(1.07532795854 -0.00293664917415 -9.01556282922e-14)
(1.05907252174 -0.00286134397475 -9.16660226482e-14)
(1.01982625489 -0.00262655615786 -8.21525380048e-14)
(0.947049668146 -0.00220672574969 -7.61911335061e-14)
(0.837663443022 -0.00165786847224 -7.0246930724e-14)
(0.698859263437 -0.00109803147606 -5.7501589607e-14)
(0.543610121468 -0.000631530373628 -4.33409622805e-14)
(0.383543974246 -0.000298897182463 -2.96616008264e-14)
(0.225958048592 -9.73167070446e-05 -1.67556106696e-14)
(0.0746015594962 -6.42882416327e-06 -5.46033422985e-15)
(1.0759495957 -0.000172815124874 -1.28182580815e-12)
(1.07609154283 -0.000409230254026 -6.89667748088e-13)
(1.07637607789 -0.000632417164102 -4.10509437252e-13)
(1.07676404591 -0.000853539046276 -3.02155782137e-13)
(1.07723094885 -0.00105266864617 -2.50462907581e-13)
(1.07775715958 -0.00123936847573 -2.14658813581e-13)
(1.07832683755 -0.00141100125131 -1.87543488125e-13)
(1.0789268015 -0.00156974451579 -1.70355597883e-13)
(1.07954612472 -0.00171627792775 -1.54159718731e-13)
(1.08017572077 -0.00185155915469 -1.42072044759e-13)
(1.08080806296 -0.00197644552196 -1.346316921e-13)
(1.08143695949 -0.00209173237711 -1.19554096395e-13)
(1.08205736043 -0.00219815859197 -1.21299151584e-13)
(1.08266503649 -0.00229640585832 -1.08204391645e-13)
(1.08325627903 -0.00238709916819 -1.12649880445e-13)
(1.08383110622 -0.002470838059 -1.14841744634e-13)
(1.08440513937 -0.00254832474026 -1.17055045165e-13)
(1.08498564707 -0.00262021687426 -1.15274791022e-13)
(1.08527786607 -0.0026846533637 -1.04498098653e-13)
(1.08368408201 -0.00272918732143 -9.2610565095e-14)
(1.07557588234 -0.00271949627428 -9.60046229747e-14)
(1.05226247892 -0.00260041821878 -9.59937258977e-14)
(1.0030277588 -0.00232550494559 -8.59168491985e-14)
(0.92053252153 -0.00190125973869 -7.92875590482e-14)
(0.805715401379 -0.0014008039246 -7.09964575392e-14)
(0.667405337099 -0.000922221589647 -5.74950503994e-14)
(0.517039737871 -0.000532042517202 -4.22085011434e-14)
(0.363942451799 -0.000252202104042 -2.90624555603e-14)
(0.214073394778 -8.1635560733e-05 -1.66268235645e-14)
(0.0705802105691 -5.05295322146e-06 -5.73964250498e-15)
(1.08077082177 -0.000161520070644 -1.29975665129e-12)
(1.08091303875 -0.00038293829345 -7.34122155734e-13)
(1.08119769438 -0.000591560428662 -4.3843251859e-13)
(1.08158584968 -0.000798922486124 -3.21861150966e-13)
(1.08205295842 -0.000985052278863 -2.65994170436e-13)
(1.08257939122 -0.00116007817348 -2.27847467503e-13)
(1.0831492993 -0.00132079405183 -1.99134332174e-13)
(1.0837494943 -0.00146961868984 -1.80518028079e-13)
(1.08436904917 -0.00160700821723 -1.61576834664e-13)
(1.08499887515 -0.00173390324043 -1.50820348056e-13)
(1.08563144595 -0.00185108624248 -1.42520661523e-13)
(1.08626057095 -0.00195929304167 -1.32272913104e-13)
(1.08688117848 -0.00205920741242 -1.28237116992e-13)
(1.08748896767 -0.00215145969617 -1.15822903248e-13)
(1.08808071306 -0.00223663249289 -1.19940429044e-13)
(1.08865966786 -0.00231531343974 -1.21639394583e-13)
(1.08924129872 -0.0023881831304 -1.23192366394e-13)
(1.08976396495 -0.00245534946859 -1.20749569501e-13)
(1.08959270367 -0.00251240644246 -1.1007300806e-13)
(1.08626641026 -0.00254136399774 -9.89908806115e-14)
(1.07394344601 -0.00250317398184 -1.00878605602e-13)
(1.04340610336 -0.00234834677126 -9.96734026469e-14)
(0.985335440725 -0.00205100011358 -8.89290304271e-14)
(0.895494603522 -0.00163977449014 -8.10845572898e-14)
(0.777491121506 -0.00118932739966 -7.06875757881e-14)
(0.640506713651 -0.000776110101944 -5.73081467277e-14)
(0.494566264432 -0.00044464999086 -4.23735269297e-14)
(0.347484548361 -0.000208916842269 -2.90095479281e-14)
(0.204215963964 -6.67801124349e-05 -1.66097163584e-14)
(0.0673095562972 -3.93540355942e-06 -5.73094629538e-15)
(1.08536311763 -0.000151847431361 -1.31035422504e-12)
(1.08550530659 -0.000360188204624 -7.7477303655e-13)
(1.08578956064 -0.000556089813104 -4.58478360123e-13)
(1.08617719744 -0.000751384652525 -3.4016882917e-13)
(1.08664368991 -0.00092625727955 -2.80462573391e-13)
(1.0871694646 -0.00109116967706 -2.40100696885e-13)
(1.08773870306 -0.00124242817073 -2.09941741352e-13)
(1.08833823972 -0.00138267436946 -1.90020939571e-13)
(1.08895716635 -0.00151215164303 -1.70642781218e-13)
(1.08958640505 -0.00163180493404 -1.58985548842e-13)
(1.09021843814 -0.00174234554001 -1.49944462676e-13)
(1.09084707756 -0.00184446312742 -1.39528862478e-13)
(1.09146722165 -0.00193879639164 -1.34510968829e-13)
(1.09207457466 -0.00202593414777 -1.22873476124e-13)
(1.09266690034 -0.00210642923237 -1.26011340565e-13)
(1.09325036143 -0.00218086468726 -1.279102601e-13)
(1.0938271972 -0.00224981097629 -1.28718509875e-13)
(1.09420967153 -0.00231243823224 -1.25065707984e-13)
(1.09331022288 -0.00236124613904 -1.15291727695e-13)
(1.08775878108 -0.00237331791228 -1.04928573581e-13)
(1.07077596955 -0.00230819196857 -1.06242285655e-13)
(1.0332360466 -0.00212586924984 -1.02896578291e-13)
(0.967619595027 -0.00181901971676 -9.11899048676e-14)
(0.872325614672 -0.00142880036073 -8.17050553382e-14)
(0.752577785013 -0.00102383159176 -7.13201671869e-14)
(0.617350824431 -0.000663074372955 -5.69557943046e-14)
(0.475497682442 -0.000377930538271 -4.23036048474e-14)
(0.333679766691 -0.00017704701332 -2.88624115438e-14)
(0.196025373236 -5.66013067214e-05 -1.64141020067e-14)
(0.0646125682336 -3.40196073129e-06 -5.32179667538e-15)
(1.08973490107 -0.000144277493271 -1.31566236082e-12)
(1.08987707442 -0.000342259246361 -8.12268184448e-13)
(1.09016096895 -0.000528181733514 -4.80940204424e-13)
(1.09054813091 -0.000713899651302 -3.57373561185e-13)
(1.0910140586 -0.000879837416125 -2.94074875142e-13)
(1.09153923411 -0.00103664415629 -2.51601818874e-13)
(1.09210786479 -0.00118025808402 -2.20107591834e-13)
(1.09270680681 -0.00131353415284 -1.98893505357e-13)
(1.09332516872 -0.0014365287007 -1.80528933406e-13)
(1.09395388283 -0.00155021456935 -1.66620489868e-13)
(1.09458543937 -0.00165524302706 -1.57090215058e-13)
(1.09521364851 -0.00175227536052 -1.48307465333e-13)
(1.09583337918 -0.00184191747303 -1.40839540714e-13)
(1.09644048551 -0.0019247292007 -1.29524308825e-13)
(1.0970341405 -0.00200124775475 -1.32031195147e-13)
(1.09762105419 -0.00207204622127 -1.33551692376e-13)
(1.09816965362 -0.00213745155727 -1.33799900277e-13)
(1.09830128408 -0.00219531049569 -1.29675506888e-13)
(1.09638766505 -0.00223479196956 -1.20158581116e-13)
(1.08818757964 -0.00222924505022 -1.10034355151e-13)
(1.0663185446 -0.00213977825632 -1.10134967514e-13)
(1.02222489699 -0.00193746356737 -1.05591465558e-13)
(0.950280353372 -0.00162961020772 -9.30829765205e-14)
(0.850959911724 -0.00126269693329 -8.28755782156e-14)
(0.730392116422 -0.000896870114457 -7.16181760495e-14)
(0.597121142398 -0.000578032013461 -5.67413991822e-14)
(0.459009926623 -0.000328882494953 -4.21077714467e-14)
(0.32179369908 -0.000154237019357 -2.87993785916e-14)
(0.188966077699 -4.95048203886e-05 -1.65599017027e-14)
(0.0622754297032 -3.03638650903e-06 -5.69529206813e-15)
(1.09388964247 -0.000137811210358 -1.317056183e-12)
(1.09403188271 -0.000326951445328 -8.47083073562e-13)
(1.09431560829 -0.000504435673513 -5.03571024719e-13)
(1.09470254821 -0.000681983004453 -3.73688103109e-13)
(1.09516821025 -0.000840333912509 -3.06993723273e-13)
(1.0956931143 -0.000990223817304 -2.62495872223e-13)
(1.0962614791 -0.00112731614095 -2.29758496052e-13)
(1.09686017371 -0.00125464534641 -2.07348605727e-13)
(1.0974783157 -0.00137209578976 -1.85178039914e-13)
(1.09810684243 -0.00148067491756 -1.73896532358e-13)
(1.09873824761 -0.00158097535964 -1.63840721001e-13)
(1.09936633305 -0.00167363743245 -1.5447235588e-13)
(1.09998595506 -0.00175923794143 -1.45370093315e-13)
(1.10059331304 -0.00183831397331 -1.35967520518e-13)
(1.10118905424 -0.00191139331199 -1.39378232997e-13)
(1.10177528666 -0.00197901030029 -1.39789197923e-13)
(1.10225909235 -0.00204107511283 -1.38805176284e-13)
(1.10200541762 -0.0020937793826 -1.35587789092e-13)
(1.09879131191 -0.00212305227544 -1.25031283658e-13)
(1.08760903008 -0.00210000323411 -1.15636893765e-13)
(1.06080854162 -0.00198959138357 -1.13349124853e-13)
(1.01072254913 -0.00177387241924 -1.07771735108e-13)
(0.933519989879 -0.00147061140987 -9.45174360487e-14)
(0.831236862339 -0.00112706405423 -8.31529919499e-14)
(0.710453451481 -0.000794917763526 -7.13853224691e-14)
(0.579202996753 -0.000510352730008 -5.58202419693e-14)
(0.444504585182 -0.000289936145473 -4.16190658515e-14)
(0.311352639834 -0.000135959222705 -2.90574014507e-14)
(0.182756069566 -4.36574451087e-05 -1.65439842312e-14)
(0.0602137103478 -2.67559015263e-06 -5.35537265995e-15)
(1.09785762964 -0.000132008269611 -1.31532762253e-12)
(1.09799995671 -0.000313215216495 -8.79471274633e-13)
(1.09828358406 -0.000483156261072 -5.22196209848e-13)
(1.09867039615 -0.000653355919648 -3.89231165543e-13)
(1.09913590593 -0.000804930910333 -3.19244009573e-13)
(1.09966066382 -0.000948622783759 -2.72859998397e-13)
(1.10022889482 -0.00107989210016 -2.3887773316e-13)
(1.10082747798 -0.0012019154445 -2.1545899177e-13)
(1.10144553654 -0.0013144221172 -1.93377430599e-13)
(1.10207401083 -0.00141845561371 -1.80790051685e-13)
(1.10270539524 -0.00151455053045 -1.70226128166e-13)
(1.10333347986 -0.00160333076588 -1.59774581141e-13)
(1.10395314936 -0.00168534567209 -1.50758112108e-13)
(1.1045611495 -0.00176111398623 -1.41966815868e-13)
(1.10515899457 -0.00183115387134 -1.44591341796e-13)
(1.10573577276 -0.00189591001753 -1.45002560574e-13)
(1.10610437192 -0.00195468276857 -1.43427755285e-13)
(1.10531401455 -0.00200177608499 -1.38902813275e-13)
(1.10053074253 -0.00202025347983 -1.294253344e-13)
(1.08612913393 -0.00198051606552 -1.19876209147e-13)
(1.05449010168 -0.00185283048591 -1.17194577977e-13)
(0.999011307362 -0.00162913027154 -1.09743042126e-13)
(0.917462780812 -0.00133400238515 -9.57872465563e-14)
(0.813018107497 -0.00101295084487 -8.41489709596e-14)
(0.692426329363 -0.000710092166777 -7.12042324349e-14)
(0.563194460061 -0.000454239485126 -5.66584451105e-14)
(0.431622271271 -0.000257540552465 -4.22769226909e-14)
(0.302104643279 -0.000120626042317 -2.88485809331e-14)
(0.177263108026 -3.86950532186e-05 -1.64382543107e-14)
(0.058392320212 -2.36314864181e-06 -5.30891023741e-15)
(1.10166648399 -0.000126826191382 -1.311185817e-12)
(1.10180889224 -0.000300927103607 -9.0958094318e-13)
(1.10209243492 -0.000464133291367 -5.31486168682e-13)
(1.10247913488 -0.000627737659999 -4.04077665685e-13)
(1.10294451209 -0.000773267074725 -3.31948156413e-13)
(1.10346914544 -0.000911406375728 -2.82801365114e-13)
(1.10403726536 -0.0010374733231 -2.47925178088e-13)
(1.1046357607 -0.00115475384165 -2.23206803928e-13)
(1.10525375949 -0.00126284194095 -2.00842301078e-13)
(1.10588220475 -0.00136281656474 -1.87216888334e-13)
(1.1065135899 -0.00145515662214 -1.76331895992e-13)
(1.10714169534 -0.00154047382514 -1.65347107658e-13)
(1.10776149926 -0.0016192922075 -1.56241594497e-13)
(1.10837042433 -0.00169211639861 -1.47688475681e-13)
(1.10896925537 -0.00175944861446 -1.48910926242e-13)
(1.10952225784 -0.00182157449925 -1.49911403238e-13)
(1.10971229155 -0.00187699472815 -1.4782765502e-13)
(1.10822501925 -0.00191801815188 -1.42186875349e-13)
(1.10163429762 -0.0019254195364 -1.33478680764e-13)
(1.08386717436 -0.00187026227326 -1.23601791447e-13)
(1.0475776931 -0.00172881654011 -1.21239913962e-13)
(0.987295900066 -0.00150130696191 -1.11457379393e-13)
(0.902165527367 -0.00121631604934 -9.65688714164e-14)
(0.796168107077 -0.000916360248933 -8.47310994487e-14)
(0.676045805158 -0.000639049954365 -7.07086339984e-14)
(0.54879456791 -0.000407513581811 -5.60673586718e-14)
(0.420097987374 -0.000230649321447 -4.17347730325e-14)
(0.293855550804 -0.000107942240084 -2.8507354747e-14)
(0.172370963843 -3.46188874178e-05 -1.62676785362e-14)
(0.0567716518697 -2.11728374394e-06 -5.25391386006e-15)
(1.1053333102 -0.00012221411566 -1.30525041375e-12)
(1.10547579949 -0.000289971884166 -9.37605097452e-13)
(1.1057592772 -0.000447191849147 -5.57074548318e-13)
(1.10614588895 -0.00060490239714 -4.1817450192e-13)
(1.10661116286 -0.000745056710637 -3.4228567287e-13)
(1.10713570348 -0.000878236624861 -2.92231514832e-13)
(1.10770374555 -0.00099966729974 -2.55016400203e-13)
(1.10830218701 -0.00111271529623 -2.30586508358e-13)
(1.10892015964 -0.00121685908297 -2.07794371982e-13)
(1.10954860863 -0.00131321053722 -1.91793595868e-13)
(1.11018002478 -0.00140219633516 -1.8220977943e-13)
(1.11080818739 -0.00148441957163 -1.70778486067e-13)
(1.11142824916 -0.00156038135826 -1.61644628351e-13)
(1.11203826854 -0.00163057546589 -1.52228828726e-13)
(1.11263544439 -0.0016954743141 -1.54249818942e-13)
(1.11314428128 -0.00175512072743 -1.53860720878e-13)
(1.11308136844 -0.00180704852903 -1.52038262297e-13)
(1.11073575248 -0.00184159276353 -1.46657112697e-13)
(1.10213685673 -0.00183792812472 -1.37266182565e-13)
(1.08093669403 -0.00176888185246 -1.26864331968e-13)
(1.04024362776 -0.00161682962373 -1.22395083467e-13)
(0.975711825104 -0.0013885979582 -1.1281658595e-13)
(0.887633724099 -0.00111471900476 -9.73726170956e-14)
(0.780548828981 -0.000834237421756 -8.40192360632e-14)
(0.661084117967 -0.000579253222323 -7.13621800561e-14)
(0.535753179709 -0.000368442734103 -5.57539202589e-14)
(0.409708275278 -0.000208271777316 -4.14626203851e-14)
(0.286434288948 -9.74313037566e-05 -2.8309166432e-14)
(0.167972615288 -3.12549322648e-05 -1.61652526641e-14)
(0.0553143155547 -1.91600277898e-06 -5.21980924767e-15)
(1.10887121216 -0.000118068126675 -1.29790258943e-12)
(1.10901378606 -0.000280113204401 -9.63764098208e-13)
(1.10929722384 -0.000431963036567 -5.74075450699e-13)
(1.10968377933 -0.000584360115781 -4.31718859891e-13)
(1.11014898868 -0.00071969102387 -3.49272215538e-13)
(1.11067347877 -0.000848401238089 -3.01291787502e-13)
(1.11124148725 -0.000965663946923 -2.62809176609e-13)
(1.11183991992 -0.00107490103275 -2.37676308798e-13)
(1.11245791117 -0.00117549377999 -2.14405973739e-13)
(1.11308640742 -0.00126858298665 -2.00507500647e-13)
(1.11371789573 -0.00135454697082 -1.87829162154e-13)
(1.11434617099 -0.00143398274049 -1.76049601883e-13)
(1.11496664061 -0.00150737067421 -1.66956309312e-13)
(1.11557767036 -0.00157519484548 -1.58013642777e-13)
(1.11616856923 -0.00163787557738 -1.59060378281e-13)
(1.11660656961 -0.001695120234 -1.58184678318e-13)
(1.11620779658 -0.00174336588279 -1.55992807588e-13)
(1.11284771611 -0.00177111022781 -1.49699679788e-13)
(1.10208019698 -0.00175664568196 -1.40686319903e-13)
(1.07744377653 -0.00167536198179 -1.29792477135e-13)
(1.03262566129 -0.00151543847443 -1.24379377153e-13)
(0.964348210523 -0.0012887322991 -1.14011838398e-13)
(0.873847136342 -0.00102631861011 -9.81227552742e-14)
(0.766032610721 -0.000763693872168 -8.42140559581e-14)
(0.647350914977 -0.000528310692001 -7.0466002481e-14)
(0.523867577267 -0.000335319719525 -5.57154790181e-14)
(0.400274433303 -0.000189347397515 -4.13867586191e-14)
(0.279706563595 -8.8546033189e-05 -2.82415795541e-14)
(0.163986914245 -2.84061621913e-05 -1.61320512849e-14)
(0.0539934630922 -1.74294913783e-06 -5.20687285655e-15)
(1.11229233979 -0.000114302712406 -1.28950561649e-12)
(1.11243499947 -0.000271152002376 -9.88266939831e-13)
(1.11271841612 -0.000418132662178 -5.91629749547e-13)
(1.11310493924 -0.000565691586417 -4.44823015319e-13)
(1.11357011314 -0.000696649631551 -3.61275125991e-13)
(1.11409458422 -0.000821291807326 -3.1007903264e-13)
(1.11466259213 -0.000934771656498 -2.70913056633e-13)
(1.11526104954 -0.00104054453338 -2.44513576531e-13)
(1.11587909257 -0.00113791120002 -2.20696810598e-13)
(1.116507668 -0.00122803655929 -2.05330530059e-13)
(1.11713925956 -0.00131125464674 -1.93204629601e-13)
(1.11776770282 -0.00138815804485 -1.81181064525e-13)
(1.11838871386 -0.00145920832068 -1.72038992536e-13)
(1.11900023138 -0.00152487833021 -1.63365882251e-13)
(1.11957784083 -0.0015855058726 -1.63007689785e-13)
(1.11991220621 -0.00164036810821 -1.62390595818e-13)
(1.11908891665 -0.00168472210045 -1.59806222081e-13)
(1.11456863287 -0.00170545592779 -1.53162423114e-13)
(1.10151180821 -0.00168066209861 -1.43903404253e-13)
(1.07348615746 -0.00158880293124 -1.3263733731e-13)
(1.02483420782 -0.0014233205349 -1.27540012568e-13)
(0.953263787897 -0.00119974803218 -1.15154501022e-13)
(0.860774377914 -0.000948775325171 -9.87318244747e-14)
(0.752507284378 -0.000702482492287 -8.40303389334e-14)
(0.634690330814 -0.000484403751765 -7.03860894929e-14)
(0.512976834443 -0.000306873650862 -5.55671042803e-14)
(0.391657828173 -0.000173116553099 -4.12690898243e-14)
(0.273570578082 -8.09234245238e-05 -2.81585594593e-14)
(0.160353640769 -2.59587742832e-05 -1.6089853305e-14)
(0.0527895213531 -1.59339839847e-06 -5.1906646231e-15)
(1.11560738288 -0.000110863920647 -1.28038715564e-12)
(1.11575012735 -0.000262961341805 -1.01113460584e-12)
(1.11603353558 -0.000405500631484 -6.08521691392e-13)
(1.11642004227 -0.000548630110109 -4.57446129208e-13)
(1.11688520027 -0.000675600669738 -3.71715337073e-13)
(1.11740967329 -0.000796519759983 -3.18532192537e-13)
(1.11797770254 -0.000906546979181 -2.77191451523e-13)
(1.11857620681 -0.00100915277533 -2.51086476336e-13)
(1.11919432329 -0.00110357233235 -2.26742340536e-13)
(1.11982299849 -0.00119098963377 -2.10221733465e-13)
(1.12045471542 -0.00127169865064 -1.98382549961e-13)
(1.1210833819 -0.00134628863765 -1.86162169808e-13)
(1.12170501649 -0.00141520398951 -1.76905492529e-13)
(1.12231588111 -0.0014789017813 -1.68225900279e-13)
(1.12287050424 -0.00153759991876 -1.69080862437e-13)
(1.12306280892 -0.00159005530687 -1.6556100663e-13)
(1.12172342565 -0.00163031221615 -1.63528381578e-13)
(1.11591114538 -0.00164393979514 -1.57249315493e-13)
(1.10048139731 -0.00160943440884 -1.46990263708e-13)
(1.06915107319 -0.00150859335988 -1.3540285505e-13)
(1.01695626348 -0.0013394657802 -1.28144328184e-13)
(0.942495139322 -0.00112014702983 -1.16106286981e-13)
(0.848378093826 -0.000880353831051 -9.93781685228e-14)
(0.739874046213 -0.000648980078301 -8.48663078324e-14)
(0.6229727715 -0.000446252021377 -7.10668362307e-14)
(0.502950437573 -0.000282237350353 -5.55758764763e-14)
(0.383747364863 -0.000159081797204 -4.11871557263e-14)
(0.267944897359 -7.43365451068e-05 -2.80854773185e-14)
(0.157024206416 -2.38446573372e-05 -1.60508428372e-14)
(0.0516863975742 -1.46443828645e-06 -5.17604271163e-15)
(1.11882533462 -0.000107710199172 -1.27070947704e-12)
(1.11896816242 -0.000255444016512 -1.03244799509e-12)
(1.11925157258 -0.000393914673436 -6.15697156704e-13)
(1.11963807572 -0.000532972852056 -4.69591506853e-13)
(1.12010323363 -0.00065629152786 -3.81683897657e-13)
(1.12062772548 -0.000773789079985 -3.26684921274e-13)