# Wall shear stress
# Time          	patch           	min             	max             
361             	bottom	(-4.72346640e-02 -2.49528215e-03 -2.05351888e-16)	(-2.31533614e-03 -1.15468878e-10 5.10988261e-18)
