# Region        : all region0
# Cells         : 13056
# Volume        : 2.33333000e+00
# Time          	max(p)	max(k)	max(omega)	max(nut)
0.000120005     	1.58530243e-01	5.31671863e-04	1.19443446e+09	1.99997746e-07
0.000264017     	1.16346950e-01	5.25505574e-04	1.19443446e+09	1.99995186e-07
0.000436833     	1.18339459e-01	3.75514218e-04	1.19443446e+09	1.99992405e-07
0.000644211     	1.10182859e-01	2.53809346e-04	1.19443446e+09	1.99989473e-07
0.000893055     	9.77185186e-02	1.74875937e-04	1.19443446e+09	1.99986308e-07
0.00119165      	8.57514022e-02	1.49867180e-04	1.19443446e+09	1.99982955e-07
0.0015499       	7.52448041e-02	1.49836023e-04	1.19443446e+09	1.99979318e-07
0.00197972      	6.75467899e-02	1.49801751e-04	1.19443446e+09	1.99975379e-07
0.00249549      	5.57009478e-02	1.49764237e-04	1.19443446e+09	1.99971126e-07
0.00311429      	4.93772415e-02	1.49723364e-04	1.19443446e+09	1.99966545e-07
0.00385657      	4.61056350e-02	1.49679024e-04	1.19443446e+09	1.99961647e-07
0.00474757      	4.32411722e-02	1.49631120e-04	1.19443446e+09	1.99956423e-07
0.00581659      	4.00530047e-02	1.49579561e-04	1.19443446e+09	1.99950847e-07
0.00709941      	3.71640183e-02	1.49524264e-04	1.19443446e+09	1.99944916e-07
0.00863879      	3.49116333e-02	1.49465152e-04	1.19443446e+09	1.99938626e-07
0.0104849       	3.31806623e-02	1.49402157e-04	1.19443446e+09	1.99931974e-07
0.0126986       	3.17996610e-02	1.49335218e-04	1.19443446e+09	1.99924960e-07
0.0153526       	3.06972526e-02	1.49264283e-04	1.19443446e+09	1.99917583e-07
0.0185392       	2.98179046e-02	1.49189308e-04	1.19443446e+09	1.99909847e-07
0.0223581       	2.92281572e-02	1.49110261e-04	1.19443446e+09	1.99901755e-07
0.026948        	2.88428728e-02	1.49027121e-04	1.19443446e+09	1.99893312e-07
0.0324454       	2.87192237e-02	1.48939879e-04	1.19443446e+09	1.99884525e-07
0.0390274       	2.87887982e-02	1.48848537e-04	1.19443446e+09	1.99875401e-07
0.0467152       	2.92526345e-02	1.48753115e-04	1.19443446e+09	1.99865949e-07
0.0554609       	2.99585103e-02	1.48653643e-04	1.19443446e+09	2.00487111e-07
0.0652999       	3.06809380e-02	1.48550169e-04	1.19443446e+09	2.01676084e-07
0.0753504       	3.20251709e-02	1.48442757e-04	1.19443446e+09	2.02558922e-07
0.085401        	3.34407824e-02	1.48331481e-04	1.19443446e+09	2.03107029e-07
0.0954515       	3.48248581e-02	1.48216434e-04	1.19443446e+09	2.03392160e-07
0.105502        	3.61928177e-02	1.48097718e-04	1.19443446e+09	2.03487110e-07
0.115553        	3.75530346e-02	1.47975452e-04	1.19443446e+09	2.03448183e-07
0.125603        	3.89152195e-02	1.47849765e-04	1.19443446e+09	2.03315355e-07
0.135654        	4.02987103e-02	1.47720795e-04	1.19443446e+09	2.03116332e-07
0.145704        	4.16945664e-02	1.47588692e-04	1.19443446e+09	2.02870360e-07
0.155755        	4.30760144e-02	1.47453608e-04	1.19443446e+09	2.02590987e-07
0.165805        	4.44378544e-02	1.47315705e-04	1.19443446e+09	2.02287920e-07
0.175736        	4.58790755e-02	1.47175146e-04	1.19443446e+09	2.01967690e-07
0.185667        	4.72103683e-02	1.47032094e-04	1.19443446e+09	2.01635315e-07
0.195598        	4.84883587e-02	1.46886716e-04	1.19443446e+09	2.01295603e-07
0.205408        	4.98285631e-02	1.46739174e-04	1.19443446e+09	2.00952605e-07
0.215218        	5.10438621e-02	1.46589629e-04	1.19443446e+09	2.00606963e-07
0.225027        	5.22349456e-02	1.46438238e-04	1.19443446e+09	2.00261026e-07
0.234837        	5.33810382e-02	1.46285153e-04	1.19443446e+09	1.99916225e-07
0.244523        	5.45847485e-02	1.46130522e-04	1.19443446e+09	1.99625111e-07
0.254208        	5.56763108e-02	1.45974485e-04	1.19443446e+09	1.99611197e-07
0.263894        	5.67336270e-02	1.45817176e-04	1.19443446e+09	1.99597155e-07
0.273579        	5.77771369e-02	1.45658725e-04	1.19443446e+09	1.99582992e-07
0.283265        	5.87865891e-02	1.45499250e-04	1.19443446e+09	1.99568715e-07
0.292822        	5.98405280e-02	1.45338867e-04	1.19443446e+09	1.99554327e-07
0.302378        	6.07880947e-02	1.45177683e-04	1.19443446e+09	1.99539838e-07
0.311935        	6.17178801e-02	1.45015797e-04	1.19443446e+09	1.99525251e-07
0.321491        	6.26154380e-02	1.44853304e-04	1.19443446e+09	1.99510574e-07
0.331047        	6.34933398e-02	1.44690290e-04	1.19443446e+09	1.99495812e-07
0.340604        	6.43539677e-02	1.44526837e-04	1.19443446e+09	1.99480973e-07
0.35016         	6.52045225e-02	1.44363020e-04	1.19443446e+09	1.99466062e-07
0.359717        	6.60231147e-02	1.44198907e-04	1.19443446e+09	1.99451086e-07
0.369133        	6.68964694e-02	1.44034565e-04	1.19443446e+09	1.99436050e-07
0.378549        	6.76695983e-02	1.43870050e-04	1.19443446e+09	1.99420960e-07
0.387965        	6.84279811e-02	1.43705416e-04	1.19443446e+09	1.99405823e-07
0.397381        	6.91696564e-02	1.43540715e-04	1.19443446e+09	1.99390642e-07
0.406796        	6.98923312e-02	1.43375990e-04	1.19443446e+09	1.99375424e-07
0.416212        	7.05955339e-02	1.43211284e-04	1.19443446e+09	1.99360174e-07
0.425628        	7.12693059e-02	1.43046634e-04	1.19443446e+09	1.99344895e-07
0.435044        	7.19122581e-02	1.42882075e-04	1.19443446e+09	1.99329593e-07
0.44446         	7.25267542e-02	1.42717638e-04	1.19443446e+09	1.99314271e-07
0.453876        	7.31179529e-02	1.42553352e-04	1.19443446e+09	1.99298934e-07
0.463292        	7.36917341e-02	1.42389242e-04	1.19443446e+09	1.99283584e-07
0.472708        	7.42326715e-02	1.42225332e-04	1.19443446e+09	1.99268224e-07
0.482124        	7.47483684e-02	1.42061644e-04	1.19443446e+09	1.99252859e-07
0.491372        	7.53212948e-02	1.41898197e-04	1.19443446e+09	1.99237490e-07
0.500619        	7.57981634e-02	1.41735007e-04	1.19443446e+09	1.99222119e-07
0.509867        	7.62538818e-02	1.41572091e-04	1.19443446e+09	1.99206749e-07
0.519115        	7.66921350e-02	1.41409462e-04	1.19443446e+09	1.99191382e-07
0.528363        	7.71128761e-02	1.41247133e-04	1.19443446e+09	1.99176019e-07
0.537611        	7.75187490e-02	1.41085116e-04	1.19443446e+09	1.99160661e-07
0.546858        	7.79123261e-02	1.40923420e-04	1.19443446e+09	1.99145311e-07
0.556106        	7.82964436e-02	1.40762055e-04	1.19443446e+09	1.99129968e-07
0.565354        	7.86733625e-02	1.40601028e-04	1.19443446e+09	1.99114635e-07
0.574602        	7.90437217e-02	1.40440347e-04	1.19443446e+09	1.99099311e-07
0.58385         	7.94063256e-02	1.40280017e-04	1.19443446e+09	1.99083998e-07
0.593097        	7.97595380e-02	1.40120046e-04	1.19443446e+09	1.99068695e-07
0.602345        	8.01004973e-02	1.39960436e-04	1.19443446e+09	1.99053404e-07
0.611593        	8.04303441e-02	1.39801194e-04	1.19443446e+09	1.99038124e-07
0.620841        	8.07531346e-02	1.39642322e-04	1.19443446e+09	1.99022855e-07
0.630089        	8.10702547e-02	1.39483824e-04	1.19443446e+09	1.99007599e-07
0.639336        	8.13843706e-02	1.39325703e-04	1.19443446e+09	1.98992355e-07
0.648584        	8.16943738e-02	1.39167960e-04	1.19443446e+09	1.98977123e-07
0.657832        	8.19966813e-02	1.39010599e-04	1.19443446e+09	1.98961903e-07
0.66708         	8.22948155e-02	1.38853621e-04	1.19443446e+09	1.98946695e-07
0.676327        	8.25888332e-02	1.38697027e-04	1.19443446e+09	1.98931499e-07
0.685575        	8.28792444e-02	1.38540819e-04	1.19443446e+09	1.98916315e-07
0.694823        	8.31648391e-02	1.38384998e-04	1.19443446e+09	1.98901143e-07
0.704071        	8.34489626e-02	1.38229564e-04	1.19443446e+09	1.98885983e-07
0.713319        	8.37250335e-02	1.38074518e-04	1.19443446e+09	1.98870835e-07
0.722566        	8.39932552e-02	1.37919861e-04	1.19443446e+09	1.98855699e-07
0.731814        	8.42542989e-02	1.37765592e-04	1.19443446e+09	1.98840575e-07
0.741062        	8.45063927e-02	1.37611713e-04	1.19443446e+09	1.98825463e-07
0.75031         	8.47490791e-02	1.37458222e-04	1.19443446e+09	1.98810362e-07
0.759558        	8.49834511e-02	1.37305120e-04	1.19443446e+09	1.98795273e-07
0.768805        	8.52117063e-02	1.37152407e-04	1.19443446e+09	1.98780195e-07
0.778053        	8.54347715e-02	1.37000081e-04	1.19443446e+09	1.98765129e-07
0.787301        	8.56525995e-02	1.36848143e-04	1.19443446e+09	1.98750074e-07
0.796549        	8.58649052e-02	1.36696593e-04	1.19443446e+09	1.98735030e-07
0.805796        	8.60700405e-02	1.36545430e-04	1.19443446e+09	1.98719999e-07
0.815044        	8.62685125e-02	1.36394653e-04	1.19443446e+09	1.98704979e-07
0.824292        	8.64596941e-02	1.36244263e-04	1.19443446e+09	1.98689971e-07
0.83354         	8.66439227e-02	1.36094258e-04	1.19443446e+09	1.98674976e-07
0.842788        	8.68222829e-02	1.35944639e-04	1.19443446e+09	1.98659994e-07
0.852035        	8.69954442e-02	1.35795404e-04	1.19443446e+09	1.98645024e-07
0.861283        	8.71637574e-02	1.35646554e-04	1.19443446e+09	1.98630068e-07
0.870531        	8.73278955e-02	1.35498086e-04	1.19443446e+09	1.98615125e-07
0.879779        	8.74881012e-02	1.35350002e-04	1.19443446e+09	1.98600195e-07
0.889027        	8.76446012e-02	1.35202299e-04	1.19443446e+09	1.98585280e-07
0.898274        	8.77966712e-02	1.35054977e-04	1.19443446e+09	1.98570378e-07
0.907522        	8.79443206e-02	1.34908036e-04	1.19443446e+09	1.98555491e-07
0.91677         	8.80863196e-02	1.34761474e-04	1.19443446e+09	1.98540619e-07
0.926018        	8.82226486e-02	1.34615292e-04	1.19443446e+09	1.98525761e-07
0.935265        	8.83542879e-02	1.34469487e-04	1.19443446e+09	1.98510918e-07
0.944513        	8.84820784e-02	1.34324060e-04	1.19443446e+09	1.98496091e-07
0.953761        	8.86063699e-02	1.34179009e-04	1.19443446e+09	1.98481279e-07
0.963009        	8.87274310e-02	1.34034333e-04	1.19443446e+09	1.98466482e-07
0.972257        	8.88453438e-02	1.33890032e-04	1.19443446e+09	1.98451701e-07
0.981504        	8.89604036e-02	1.33746104e-04	1.19443446e+09	1.98436936e-07
0.990752        	8.90729470e-02	1.33602550e-04	1.19443446e+09	1.98422187e-07
1               	8.91830372e-02	1.33459367e-04	1.19443446e+09	1.98407455e-07
1.00917         	8.93011696e-02	1.33316555e-04	1.19443446e+09	1.98392738e-07
1.01835         	8.94045939e-02	1.33174113e-04	1.19443446e+09	1.98378038e-07
1.02752         	8.95055901e-02	1.33032040e-04	1.19443446e+09	1.98363354e-07
1.0367          	8.96028988e-02	1.32890335e-04	1.19443446e+09	1.98348687e-07
1.04587         	8.96975140e-02	1.32748997e-04	1.19443446e+09	1.98334036e-07
1.05505         	8.97894112e-02	1.32608024e-04	1.19443446e+09	1.98319401e-07
1.06422         	8.98778104e-02	1.32467417e-04	1.19443446e+09	1.98304784e-07
1.07339         	8.99635643e-02	1.32327174e-04	1.19443446e+09	1.98290183e-07
1.08257         	9.00483794e-02	1.32187294e-04	1.19443446e+09	1.98275599e-07
1.09174         	9.01330242e-02	1.32047775e-04	1.19443446e+09	1.98261031e-07
1.10092         	9.02171073e-02	1.31908618e-04	1.19443446e+09	1.98246480e-07
1.11009         	9.02976598e-02	1.31769820e-04	1.19443446e+09	1.98231946e-07
1.11927         	9.03755832e-02	1.31631382e-04	1.19443446e+09	1.98217428e-07
1.12844         	9.04503836e-02	1.31493301e-04	1.19443446e+09	1.98202927e-07
1.13761         	9.05229328e-02	1.31355577e-04	1.19443446e+09	1.98188443e-07
1.14679         	9.05951972e-02	1.31218209e-04	1.19443446e+09	1.98173976e-07
1.15596         	9.06655598e-02	1.31081195e-04	1.19443446e+09	1.98159525e-07
1.16514         	9.07338749e-02	1.30944536e-04	1.19443446e+09	1.98145090e-07
1.17431         	9.07996941e-02	1.30808229e-04	1.19443446e+09	1.98130672e-07
1.18349         	9.08633183e-02	1.30672273e-04	1.19443446e+09	1.98116271e-07
1.19266         	9.09230305e-02	1.30536669e-04	1.19443446e+09	1.98101886e-07
1.20183         	9.09840614e-02	1.30401414e-04	1.19443446e+09	1.98087517e-07
1.21101         	9.10410683e-02	1.30266508e-04	1.19443446e+09	1.98073165e-07
1.22018         	9.10994711e-02	1.30131949e-04	1.19443446e+09	1.98058829e-07
1.22936         	9.11555947e-02	1.29997737e-04	1.19443446e+09	1.98044510e-07
1.23853         	9.12101093e-02	1.29863871e-04	1.19443446e+09	1.98030207e-07
1.24771         	9.12592491e-02	1.29730349e-04	1.19443446e+09	1.98015920e-07
1.25688         	9.13099248e-02	1.29597171e-04	1.19443446e+09	1.98001649e-07
1.26606         	9.13586501e-02	1.29464335e-04	1.19443446e+09	1.97987394e-07
1.27523         	9.14071574e-02	1.29331841e-04	1.19443446e+09	1.97973156e-07
1.2844          	9.14545808e-02	1.29199688e-04	1.19443446e+09	1.97958933e-07
1.29358         	9.15018793e-02	1.29067875e-04	1.19443446e+09	1.97944726e-07
1.30275         	9.15438275e-02	1.28936400e-04	1.19443446e+09	1.97930536e-07
1.31193         	9.15880881e-02	1.28805263e-04	1.19443446e+09	1.97916361e-07
1.3211          	9.16295236e-02	1.28674462e-04	1.19443446e+09	1.97902203e-07
1.33028         	9.16709908e-02	1.28543998e-04	1.19443446e+09	1.97888060e-07
1.33945         	9.17124035e-02	1.28413868e-04	1.19443446e+09	1.97873933e-07
1.34862         	9.17539848e-02	1.28284072e-04	1.19443446e+09	1.97859822e-07
1.3578          	9.17900520e-02	1.28154609e-04	1.19443446e+09	1.97845727e-07
1.36697         	9.18288220e-02	1.28025478e-04	1.19443446e+09	1.97831647e-07
1.37615         	9.18625911e-02	1.27896678e-04	1.19443446e+09	1.97817583e-07
1.38532         	9.18976661e-02	1.27768208e-04	1.19443446e+09	1.97803536e-07
1.3945          	9.19339889e-02	1.27640067e-04	1.19443446e+09	1.97789503e-07
1.40367         	9.19683326e-02	1.27512255e-04	1.19443446e+09	1.97775487e-07
1.41284         	9.20013794e-02	1.27384770e-04	1.19443446e+09	2.00460990e-07
1.42202         	9.20328918e-02	1.27257611e-04	1.19443446e+09	2.07763229e-07
1.43119         	9.20625127e-02	1.27130777e-04	1.19443446e+09	2.15377592e-07
1.44037         	9.20926102e-02	1.27004269e-04	1.19443446e+09	2.23314632e-07
1.44954         	9.21246501e-02	1.26878084e-04	1.19443446e+09	2.31622771e-07
1.45872         	9.21520697e-02	1.26752222e-04	1.19443446e+09	2.40511971e-07
1.46789         	9.21818759e-02	1.26626681e-04	1.19443446e+09	2.49788207e-07
1.47706         	9.22076887e-02	1.26501462e-04	1.19443446e+09	2.59465298e-07
1.48624         	9.22331275e-02	1.26376562e-04	1.19443446e+09	2.69589183e-07
1.49541         	9.22604828e-02	1.26251982e-04	1.19443446e+09	2.80458150e-07
1.50459         	9.22866498e-02	1.26127721e-04	1.19443446e+09	2.91813458e-07
1.51376         	9.23117277e-02	1.26003776e-04	1.19443446e+09	3.03673512e-07
1.52294         	9.23363372e-02	1.25880148e-04	1.19443446e+09	3.16251120e-07
1.53211         	9.23585327e-02	1.25756836e-04	1.19443446e+09	3.29628696e-07
1.54128         	9.23813098e-02	1.25633837e-04	1.19443446e+09	3.43623109e-07
1.55046         	9.24059809e-02	1.25511153e-04	1.19443446e+09	3.58397134e-07
1.55963         	9.24271052e-02	1.25388781e-04	1.19443446e+09	3.74256520e-07
1.56881         	9.24502281e-02	1.25266720e-04	1.19443446e+09	3.90882800e-07
1.57798         	9.24699477e-02	1.25144971e-04	1.19443446e+09	4.08583649e-07
1.58716         	9.24892627e-02	1.25023532e-04	1.19443446e+09	4.27572558e-07
1.59633         	9.25105405e-02	1.24902402e-04	1.19443446e+09	4.47531066e-07
1.6055          	9.25311766e-02	1.24781580e-04	1.19443446e+09	4.68945248e-07
1.61468         	9.25515540e-02	1.24661066e-04	1.19443446e+09	4.91837919e-07
1.62385         	9.25696051e-02	1.24540858e-04	1.19443446e+09	5.15940798e-07
1.63303         	9.25869805e-02	1.24420957e-04	1.19443446e+09	5.39577372e-07
1.6422          	9.26054556e-02	1.24301361e-04	1.19443446e+09	5.63579794e-07
1.65138         	9.26249297e-02	1.24182068e-04	1.19443446e+09	5.90434236e-07
1.66055         	9.26412971e-02	1.24063080e-04	1.19443446e+09	6.16795184e-07
1.66972         	9.26593805e-02	1.23944394e-04	1.19443446e+09	6.47608059e-07
1.6789          	9.26745714e-02	1.27107356e-04	1.19443446e+09	6.80132784e-07
1.68807         	9.26898785e-02	1.32577487e-04	1.19443446e+09	7.14968043e-07
1.69725         	9.27071637e-02	1.38361716e-04	1.19443446e+09	7.51604261e-07
1.70642         	9.27228731e-02	1.44411929e-04	1.19443446e+09	7.90127326e-07
1.7156          	9.27394408e-02	1.50726823e-04	1.19443446e+09	8.30626582e-07
1.72477         	9.27525484e-02	1.57293177e-04	1.19443446e+09	8.73194106e-07
1.73394         	9.27659158e-02	1.64113930e-04	1.19443446e+09	9.17923894e-07
1.74312         	9.27811083e-02	1.71198780e-04	1.19443446e+09	9.65305895e-07
1.75229         	9.27960319e-02	1.78551182e-04	1.19443446e+09	1.01618825e-06
1.76147         	9.28102448e-02	1.86186105e-04	1.19443446e+09	1.06974195e-06
1.77064         	9.28235534e-02	1.94254986e-04	1.19443446e+09	1.12608777e-06
1.77982         	9.28353372e-02	2.02654064e-04	1.19443446e+09	1.18534976e-06
1.78899         	9.28481571e-02	2.11395197e-04	1.19443446e+09	1.24385277e-06
1.79817         	9.28623322e-02	2.20489520e-04	1.19443446e+09	1.30361546e-06
1.80734         	9.28741160e-02	2.30087352e-04	1.19443446e+09	1.36562975e-06
1.81651         	9.28876517e-02	2.40155825e-04	1.19443446e+09	1.43054322e-06
1.82569         	9.28978739e-02	2.50641434e-04	1.19443446e+09	1.49913900e-06
1.83486         	9.29086036e-02	2.61552373e-04	1.19443446e+09	1.57036562e-06
1.84404         	9.29216210e-02	2.72896574e-04	1.19443446e+09	1.64430225e-06
1.85321         	9.29327901e-02	2.84961322e-04	1.19443446e+09	1.72102596e-06
1.86239         	9.29456077e-02	2.97526455e-04	1.19443446e+09	1.80061102e-06
1.87156         	9.29550392e-02	3.10826899e-04	1.19443446e+09	1.88312030e-06
1.88073         	9.29649971e-02	3.25128164e-04	1.19443446e+09	1.96858592e-06
1.88991         	9.29754628e-02	3.40360693e-04	1.19443446e+09	2.06548093e-06
1.89908         	9.29878087e-02	3.56213320e-04	1.19443446e+09	2.16785894e-06
1.90826         	9.29981255e-02	3.72698581e-04	1.19443446e+09	2.27385353e-06
1.91743         	9.30083342e-02	3.89831121e-04	1.19443446e+09	2.38355434e-06
1.92661         	9.30169591e-02	4.07625271e-04	1.19443446e+09	2.49715347e-06
1.93578         	9.30264947e-02	4.26095355e-04	1.19443446e+09	2.61490847e-06
1.94495         	9.30377687e-02	4.45255660e-04	1.19443446e+09	2.73701640e-06
1.95413         	9.30469702e-02	4.65120265e-04	1.19443446e+09	2.86687427e-06
1.9633          	9.30571509e-02	4.86004446e-04	1.19443446e+09	3.00284943e-06
1.97248         	9.30652598e-02	5.07662097e-04	1.19443446e+09	3.14398582e-06
1.98165         	9.30733847e-02	5.30108942e-04	1.19443446e+09	3.29041149e-06
1.99083         	9.30833609e-02	5.53364824e-04	1.19443446e+09	3.44225792e-06
2               	9.30921138e-02	5.77445270e-04	1.19443446e+09	3.59966092e-06
2.00917         	9.31026110e-02	6.02362567e-04	1.19443446e+09	3.76275844e-06
2.01835         	9.31098645e-02	6.28129087e-04	1.19443446e+09	3.93710012e-06
2.02752         	9.31177743e-02	6.54759002e-04	1.19443446e+09	4.11882124e-06
2.0367          	9.31258426e-02	6.82632630e-04	1.19443446e+09	4.30702185e-06
2.04587         	9.31362012e-02	7.11638924e-04	1.19443446e+09	4.50180797e-06
2.05505         	9.31445136e-02	7.41628153e-04	1.19443446e+09	4.70327496e-06
2.06422         	9.31528998e-02	7.72611821e-04	1.19443446e+09	4.91150624e-06
2.07339         	9.31598297e-02	8.04600597e-04	1.19443446e+09	5.12657279e-06
2.08257         	9.31675866e-02	8.37595911e-04	1.19443446e+09	5.35240796e-06
2.09174         	9.31773031e-02	8.72117635e-04	1.19443446e+09	5.58962627e-06
2.10092         	9.31847223e-02	9.07849885e-04	1.19443446e+09	5.83422912e-06
2.11009         	9.31937398e-02	9.44709260e-04	1.19443446e+09	6.08622341e-06
2.11927         	9.32005694e-02	9.82692212e-04	1.19443446e+09	6.34559788e-06
2.12844         	9.32072503e-02	1.02179128e-03	1.19443446e+09	6.61232128e-06
2.13761         	9.32162900e-02	1.06200673e-03	1.19443446e+09	6.88634125e-06
2.14679         	9.32236671e-02	1.10336291e-03	1.19443446e+09	7.16758357e-06
2.15596         	9.32332140e-02	1.14648262e-03	1.19443446e+09	7.45595183e-06
2.16514         	9.32396446e-02	1.19078919e-03	1.19443446e+09	7.75132436e-06
2.17431         	9.32466272e-02	1.23627668e-03	1.19443446e+09	8.06078101e-06
2.18349         	9.32546335e-02	1.28290585e-03	1.19443446e+09	8.37906952e-06
2.19266         	9.32635294e-02	1.33063545e-03	1.19443446e+09	8.70413004e-06
2.20183         	9.32716238e-02	1.37941988e-03	1.19443446e+09	9.03573097e-06
2.21101         	9.32797944e-02	1.42911546e-03	1.19443446e+09	9.37359075e-06
2.22018         	9.32858512e-02	1.48016998e-03	1.19443446e+09	9.71736064e-06
2.22936         	9.32934860e-02	1.53281312e-03	1.19443446e+09	1.00691392e-05
2.23853         	9.33037250e-02	1.58650038e-03	1.19443446e+09	1.04304561e-05
2.24771         	9.33096961e-02	1.64117990e-03	1.19443446e+09	1.08009205e-05
2.25688         	9.33197968e-02	1.69678165e-03	1.19443446e+09	1.11920417e-05
2.26606         	9.33259085e-02	1.75323434e-03	1.19443446e+09	1.15991587e-05
2.27523         	9.33328494e-02	1.81047077e-03	1.19443446e+09	1.20150684e-05
2.2844          	9.33426800e-02	1.86831879e-03	1.19443446e+09	1.24394366e-05
2.29358         	9.33499469e-02	1.92671335e-03	1.19443446e+09	1.28718937e-05
2.30275         	9.33598905e-02	1.98587041e-03	1.19443446e+09	1.33119378e-05
2.31193         	9.33670725e-02	2.04689685e-03	1.19443446e+09	1.37586842e-05
2.3211          	9.33738377e-02	2.10863715e-03	1.19443446e+09	1.42265142e-05
2.33028         	9.33831343e-02	2.17101381e-03	1.19443446e+09	1.47094390e-05
2.33945         	9.33923032e-02	2.23392016e-03	1.19443446e+09	1.51969037e-05
2.34862         	9.34008970e-02	2.29724672e-03	1.19443446e+09	1.57144390e-05
2.3578          	9.34099377e-02	2.36088446e-03	1.19443446e+09	1.62349055e-05
2.36697         	9.34175642e-02	2.42459555e-03	1.19443446e+09	1.67566646e-05
2.37615         	9.34256052e-02	2.48828954e-03	1.19443446e+09	1.72784679e-05
2.38532         	9.34364531e-02	2.55364291e-03	1.19443446e+09	1.77993679e-05
2.3945          	9.34435492e-02	2.61951871e-03	1.19443446e+09	1.83186259e-05
2.40367         	9.34552898e-02	2.68547965e-03	1.19443446e+09	1.88324362e-05
2.41284         	9.34626384e-02	2.75140400e-03	1.19443446e+09	1.93719955e-05
2.42202         	9.34704594e-02	2.81714289e-03	1.19443446e+09	1.99348842e-05
2.43119         	9.34812951e-02	2.88251477e-03	1.19443446e+09	2.04963378e-05
2.44037         	9.34903316e-02	2.94721998e-03	1.19443446e+09	2.10451943e-05
2.44954         	9.35014764e-02	3.01175124e-03	1.19443446e+09	2.15805205e-05
2.45872         	9.35100670e-02	3.07756257e-03	1.19443446e+09	2.21029680e-05
2.46789         	9.35188188e-02	3.14263634e-03	1.19443446e+09	2.24871820e-05
2.47706         	9.35293629e-02	3.20659077e-03	1.19443446e+09	2.27974367e-05
2.48624         	9.35400858e-02	3.26908161e-03	1.19443446e+09	2.31216888e-05
2.49541         	9.35499181e-02	3.32879188e-03	1.19443446e+09	2.34298832e-05
2.50459         	9.35608966e-02	3.38552381e-03	1.19443446e+09	2.37224744e-05
2.51376         	9.35698525e-02	3.43956009e-03	1.19443446e+09	2.40008221e-05
2.52294         	9.35794677e-02	3.49128617e-03	1.19443446e+09	2.42662432e-05
2.53211         	9.35915373e-02	3.54291587e-03	1.19443446e+09	2.45202960e-05
2.54128         	9.36003964e-02	3.59273145e-03	1.19443446e+09	2.47634274e-05
2.55046         	9.36133427e-02	3.64066454e-03	1.19443446e+09	2.49960777e-05
2.55963         	9.36221277e-02	3.68663575e-03	1.19443446e+09	2.52305261e-05
2.56881         	9.36318692e-02	3.73059245e-03	1.19443446e+09	2.54659336e-05
2.57798         	9.36433156e-02	3.77281423e-03	1.19443446e+09	2.56889633e-05
2.58716         	9.36545521e-02	3.81634442e-03	1.19443446e+09	2.59002482e-05
2.59633         	9.36653477e-02	3.85800563e-03	1.19443446e+09	2.61006176e-05
2.6055          	9.36761831e-02	3.89782214e-03	1.19443446e+09	2.62908719e-05
2.61468         	9.36862483e-02	3.93587159e-03	1.19443446e+09	2.64716979e-05
2.62385         	9.36970906e-02	3.97226834e-03	1.19443446e+09	2.66436796e-05
2.63303         	9.37091139e-02	4.00713517e-03	1.19443446e+09	2.68086914e-05
2.6422          	9.37184230e-02	4.04058967e-03	1.19443446e+09	2.69795613e-05
2.65138         	9.37310986e-02	4.07318852e-03	1.19443446e+09	2.71426407e-05
2.66055         	9.37402312e-02	4.10628121e-03	1.19443446e+09	2.72981964e-05
2.66972         	9.37504365e-02	4.14054023e-03	1.19443446e+09	2.74465140e-05
2.6789          	9.37623383e-02	4.17400108e-03	1.19443446e+09	2.75879148e-05
2.68807         	9.37723358e-02	4.20628551e-03	1.19443446e+09	2.77227464e-05
2.69725         	9.37846714e-02	4.23742692e-03	1.19443446e+09	2.78513796e-05
2.70642         	9.37939292e-02	4.26746719e-03	1.19443446e+09	2.79741970e-05
2.7156          	9.38039465e-02	4.29642317e-03	1.19443446e+09	2.80915808e-05
2.72477         	9.38145901e-02	4.32416234e-03	1.19443446e+09	2.82031213e-05
2.73394         	9.38257068e-02	4.35261626e-03	1.19443446e+09	2.83128265e-05
2.74312         	9.38360437e-02	4.37997518e-03	1.19443446e+09	2.84195407e-05
2.75229         	9.38471569e-02	4.40608230e-03	1.19443446e+09	2.85203891e-05
2.76147         	9.38559207e-02	4.43086827e-03	1.19443446e+09	2.86157501e-05
2.77064         	9.38655015e-02	4.45436668e-03	1.19443446e+09	2.87059987e-05
2.77982         	9.38768478e-02	4.47658389e-03	1.19443446e+09	2.87914915e-05
2.78899         	9.38853657e-02	4.49752798e-03	1.19443446e+09	2.88725591e-05
2.79817         	9.38968998e-02	4.51718975e-03	1.19443446e+09	2.89562551e-05
2.80734         	9.39049252e-02	4.53563749e-03	1.19443446e+09	2.90398340e-05
2.81651         	9.39133834e-02	4.55293960e-03	1.19443446e+09	2.91195634e-05
2.82569         	9.39231164e-02	4.56915623e-03	1.19443446e+09	2.91955756e-05
2.83486         	9.39328672e-02	4.58433414e-03	1.19443446e+09	2.92680134e-05
2.84404         	9.39415036e-02	4.59851485e-03	1.19443446e+09	2.93370276e-05
2.85321         	9.39508924e-02	4.61173346e-03	1.19443446e+09	2.94027728e-05
2.86239         	9.39587882e-02	4.62352518e-03	1.19443446e+09	2.94654168e-05
2.87156         	9.39664614e-02	4.63366692e-03	1.19443446e+09	2.95251745e-05
2.88073         	9.39762677e-02	4.64239421e-03	1.19443446e+09	2.95822401e-05
2.88991         	9.39824662e-02	4.64992892e-03	1.19443446e+09	2.96367696e-05
2.89908         	9.39927828e-02	4.65642548e-03	1.19443446e+09	2.96888821e-05
2.90826         	9.39988033e-02	4.66199274e-03	1.19443446e+09	2.97386652e-05
2.91743         	9.40049739e-02	4.66671420e-03	1.19443446e+09	2.97861909e-05
2.92661         	9.40132135e-02	4.67065873e-03	1.19443446e+09	2.98389239e-05
2.93578         	9.40210022e-02	4.67388606e-03	1.19443446e+09	2.98912264e-05
2.94495         	9.40274057e-02	4.67644870e-03	1.19443446e+09	2.99565019e-05
2.95413         	9.40350693e-02	4.67839301e-03	1.19443446e+09	3.00253345e-05
2.9633          	9.40404928e-02	4.67976220e-03	1.19443446e+09	3.00907803e-05
2.97248         	9.40462258e-02	4.68059735e-03	1.19443446e+09	3.01531655e-05
2.98165         	9.40541647e-02	4.68094207e-03	1.19443446e+09	3.02127564e-05
2.99083         	9.40581751e-02	4.68083279e-03	1.19443446e+09	3.02697695e-05
3               	9.40666966e-02	4.68029967e-03	1.19443446e+09	3.03243844e-05
3.00917         	9.40706882e-02	4.67936933e-03	1.19443446e+09	3.03767587e-05
3.01835         	9.40743684e-02	4.67798393e-03	1.19443446e+09	3.04271008e-05
3.02752         	9.40809955e-02	4.67610565e-03	1.19443446e+09	3.04759002e-05
3.0367          	9.40859512e-02	4.67374525e-03	1.19443446e+09	3.05227996e-05
3.04587         	9.40917761e-02	4.67094039e-03	1.19443446e+09	3.05679045e-05
3.05505         	9.40962596e-02	4.66773565e-03	1.19443446e+09	3.06113035e-05
3.06422         	9.41000846e-02	4.66417365e-03	1.19443446e+09	3.06530732e-05
3.07339         	9.41034656e-02	4.66029283e-03	1.19443446e+09	3.06932814e-05
3.08257         	9.41101347e-02	4.65612773e-03	1.19443446e+09	3.07319916e-05
3.09174         	9.41122306e-02	4.65170881e-03	1.19443446e+09	3.07692668e-05
3.10092         	9.41189220e-02	4.64706384e-03	1.19443446e+09	3.08051688e-05
3.11009         	9.41210422e-02	4.64221889e-03	1.19443446e+09	3.08397569e-05
3.11927         	9.41238980e-02	4.63719846e-03	1.19443446e+09	3.08730855e-05
3.12844         	9.41283342e-02	4.63202542e-03	1.19443446e+09	3.09052035e-05
3.13761         	9.41318935e-02	4.62672098e-03	1.19443446e+09	3.09363851e-05
3.14679         	9.41363464e-02	4.62130485e-03	1.19443446e+09	3.09668579e-05
3.15596         	9.41392007e-02	4.61579526e-03	1.19443446e+09	3.10704625e-05
3.16514         	9.41412458e-02	4.61020909e-03	1.19443446e+09	3.11396584e-05
3.17431         	9.41439097e-02	4.60456198e-03	1.19443446e+09	3.12044844e-05
3.18349         	9.41488572e-02	4.59886834e-03	1.19443446e+09	3.12652021e-05
3.19266         	9.41499535e-02	4.59314149e-03	1.19443446e+09	3.13481440e-05
3.20183         	9.41552139e-02	4.58739787e-03	1.19443446e+09	3.14072173e-05
3.21101         	9.41563175e-02	4.58165093e-03	1.19443446e+09	3.14627192e-05
3.22018         	9.41582368e-02	4.57591075e-03	1.19443446e+09	3.15148213e-05
3.22936         	9.41612594e-02	4.57018548e-03	1.19443446e+09	3.15639559e-05
3.23853         	9.41641771e-02	4.56448238e-03	1.19443446e+09	3.16105550e-05
3.24771         	9.41677086e-02	4.55880822e-03	1.19443446e+09	3.16549804e-05
3.25688         	9.41696045e-02	4.55316932e-03	1.19443446e+09	3.16975118e-05
3.26606         	9.41707296e-02	4.54757212e-03	1.19443446e+09	3.17382704e-05
3.27523         	9.41727556e-02	4.54202249e-03	1.19443446e+09	3.17772726e-05
3.2844          	9.41764621e-02	4.53652558e-03	1.19443446e+09	3.18145233e-05
3.29358         	9.41772520e-02	4.53108589e-03	1.19443446e+09	3.18500561e-05
3.30275         	9.41817863e-02	4.52570749e-03	1.19443446e+09	3.18839377e-05
3.31193         	9.41823474e-02	4.52039408e-03	1.19443446e+09	3.19162594e-05
3.3211          	9.41836617e-02	4.51514903e-03	1.19443446e+09	3.19492277e-05
3.33028         	9.41859886e-02	4.50997545e-03	1.19443446e+09	3.19809786e-05
3.33945         	9.41885861e-02	4.50487612e-03	1.19443446e+09	3.20115801e-05
3.34862         	9.41916270e-02	4.49985355e-03	1.19443446e+09	3.20411151e-05
3.3578          	9.41931800e-02	4.49490919e-03	1.19443446e+09	3.20696485e-05
3.36697         	9.41939247e-02	4.49004389e-03	1.19443446e+09	3.20971468e-05
3.37615         	9.41955584e-02	4.48525900e-03	1.19443446e+09	3.21235411e-05
3.38532         	9.41989360e-02	4.48055622e-03	1.19443446e+09	3.21487883e-05
3.3945          	9.41995450e-02	4.47593725e-03	1.19443446e+09	3.21728868e-05
3.40367         	9.42037963e-02	4.47140352e-03	1.19443446e+09	3.21958688e-05