/*--------------------------------*- C++ -*----------------------------------*\
| =========                 |                                                 |
| \\      /  F ield         | OpenFOAM: The Open Source CFD Toolbox           |
|  \\    /   O peration     | Version:  2206                                  |
|   \\  /    A nd           | Website:  www.openfoam.com                      |
|    \\/     M anipulation  |                                                 |
\*---------------------------------------------------------------------------*/
FoamFile
{
    version     2.0;
    format      ascii;
    arch        "LSB;label=32;scalar=64";
    class       volScalarField;
    location    "1500";
    object      k;
}
// * * * * * * * * * * * * * * * * * * * * * * * * * * * * * * * * * * * * * //

dimensions      [0 2 -2 0 0 0 0];

internalField   nonuniform List<scalar> 
7480
(
0.01144446
0.014108597
0.011690168
0.0076591975
0.0045413779
0.0027809707
0.0019367695
0.0015257289
0.0012979428
0.0011496288
0.0010350703
0.0009368242
0.00085123207
0.00077717849
0.00071296894
0.00065701741
0.0006081538
0.0005652474
0.00052707754
0.00049286791
0.00046215224
0.00043442306
0.00040921364
0.00038622935
0.00036523681
0.00034598357
0.00032824536
0.0003118796
0.00029677353
0.0002827982
0.00026984127
0.00025782946
0.00024669837
0.00023637611
0.00022680226
0.00021793581
0.00020973943
0.00020217656
0.00019522233
0.00018886433
0.00018309219
0.00017789517
0.00017327299
0.00016922698
0.00016576407
0.00016294555
0.00016075747
0.00015927431
0.00015848582
0.0001583745
0.00015891866
0.00016008935
0.00016182504
0.0001640133
0.00016654393
0.00016934094
0.00017223718
0.00017498254
0.00017734432
0.00017912979
0.00018032701
0.00018094702
0.00018104559
0.0001806991
0.00018000433
0.00017904929
0.00017791157
0.00017665324
0.00017531884
0.00017394149
0.00017254636
0.0001711483
0.00016975678
0.00016838185
0.00016702599
0.00016569057
0.0001643761
0.00016302829
0.00016165181
0.00016026294
0.00015886826
0.00015747099
0.00015606576
0.00015465057
0.00015322494
0.00015178856
0.00015034369
0.00014889098
0.00014743371
0.00014597295
0.00014451103
0.00014304888
0.00014158977
0.00014012557
0.00013868062
0.00013716608
0.00013584581
0.00013394248
0.00013287124
0.00012997007
0.0014156653
0.0025663686
0.0028345975
0.0024739324
0.0020069929
0.0015607429
0.0011994132
0.00093120457
0.00073501416
0.00059084457
0.00048464941
0.00040591921
0.00034681771
0.00030170142
0.00026650577
0.00023839336
0.00021546322
0.00019640715
0.00018029438
0.00016649367
0.00015457982
0.00014423059
0.00013519192
0.00012727324
0.00012019327
0.00011381193
0.00010804339
0.00010283695
9.8159263e-05
9.3981203e-05
9.0279882e-05
8.7041391e-05
8.4255709e-05
8.1913671e-05
8.001004e-05
7.8544981e-05
7.752279e-05
7.6955064e-05
7.6864981e-05
7.7288282e-05
7.8271677e-05
7.9873162e-05
8.2164936e-05
8.5232372e-05
8.9181004e-05
9.4118796e-05
0.00010013341
0.00010728696
0.00011559689
0.00012505612
0.00013563306
0.00014733197
0.00015989032
0.00017301119
0.0001864062
0.00019964467
0.00021208718
0.00022315112
0.00023247664
0.00024001149
0.00024590256
0.00025041065
0.00025379979
0.00025616297
0.00025772082
0.00025867242
0.00025917544
0.00025934645
0.00025927072
0.00025901032
0.0002586083
0.00025809118
0.00025748283
0.00025680164
0.00025605447
0.00025524239
0.00025434573
0.00025315917
0.0002517691
0.00025024605
0.00024861282
0.00024687587
0.00024503729
0.00024310416
0.00024108312
0.00023898425
0.00023681756
0.00023459313
0.00023232195
0.00023001307
0.00022767549
0.0002253172
0.00022294607
0.00022056676
0.00021818323
0.00021579377
0.00021343627
0.00021076393
0.00020884862
0.00020445191
0.00020999399
0.00055716765
0.00084132068
0.0009509856
0.00092892282
0.00084352152
0.00075613924
0.00069793985
0.00065923303
0.0006242754
0.0005930713
0.00056402519
0.00053574983
0.00050883126
0.00048353253
0.00045987781
0.00043792811
0.00041770193
0.00039920277
0.00038243923
0.00036740043
0.00035404415
0.00034232301
0.00033217047
0.00032243623
0.00031324774
0.00030471875
0.00029697835
0.00029015376
0.00028436352
0.0002797263
0.00027635958
0.00027437269
0.0002738712
0.0002749655
0.00027777115
0.00028241549
0.00028906639
0.00029794938
0.00030935048
0.00032361478
0.00034115198
0.00036244425
0.00038804468
0.00041861739
0.00045475015
0.00049694461
0.0005454251
0.00060018783
0.0006610796
0.00072756806
0.00079922634
0.00087484419
0.00095269614
0.0010311004
0.0011075112
0.0011784573
0.0012410093
0.0012936099
0.0013362852
0.001370012
0.0013963541
0.0014161287
0.0014304413
0.0014405753
0.0014475738
0.0014522392
0.001455156
0.0014567497
0.001457329
0.0014571042
0.0014562047
0.0014547548
0.0014528464
0.0014505133
0.0014477565
0.0014444598
0.0014394409
0.0014332656
0.0014263187
0.0014187129
0.0014104791
0.0014016349
0.001392223
0.0013822828
0.0013718725
0.0013610473
0.0013498645
0.0013383841
0.0013266574
0.0013147337
0.0013026593
0.001290476
0.0012782217
0.0012658899
0.0012535788
0.001241185
0.0012276396
0.0012174018
0.0011948626
3.6610945e-05
0.0001164065
0.00022887285
0.00032888351
0.00038967514
0.00041112364
0.00040815919
0.00039501531
0.00038060907
0.00036974802
0.00036652352
0.00037465986
0.00038615373
0.00039597218
0.00040415529
0.00041044113
0.00041543735
0.00041964375
0.00042337926
0.00042690427
0.00043043535
0.00043416053
0.00043823555
0.00044276795
0.0004475966
0.00045253619
0.00045763406
0.00046310332
0.00046922111
0.00047628846
0.00048462368
0.00049455894
0.00050643457
0.00052060108
0.00053742332
0.0005572782
0.00058058216
0.00060786623
0.00063978954
0.00067712873
0.00072076916
0.00077170792
0.00083106019
0.00090005183
0.00098008146
0.0010721228
0.0011767408
0.0012939012
0.0014230666
0.0015633538
0.0017133301
0.0018699318
0.0020312914
0.0021938452
0.0023542838
0.0025072434
0.0026462919
0.0027670196
0.0028679626
0.0029501431
0.0030160549
0.0030681486
0.0031080396
0.0031384858
0.0031617633
0.0031796396
0.0031934453
0.0032041398
0.0032124145
0.0032187665
0.0032235283
0.0032269032
0.0032291078
0.0032302922
0.0032305044
0.0032297292
0.0032277728
0.0032222996
0.0032146353
0.0032054426
0.0031948838
0.0031830124
0.0031698733
0.0031555521
0.0031401325
0.0031237262
0.0031064387
0.0030883782
0.0030696549
0.0030503664
0.0030306016
0.0030104509
0.0029899901
0.0029693009
0.0029483479
0.0029274141
0.0029059677
0.0028832223
0.0028646523
0.0028272156
1.2523447e-05
2.7572256e-05
5.8623824e-05
9.9470575e-05
0.00013897451
0.00016942058
0.00018920268
0.00020026014
0.00020548117
0.00020734683
0.00020802581
0.00020958743
0.0002129485
0.00021861152
0.00022750927
0.00024062308
0.00025527163
0.00027044152
0.0002857112
0.00030134495
0.00031749149
0.00033433446
0.00035194722
0.00037026133
0.00038899994
0.00040785765
0.00042731428
0.0004478187
0.00046969663
0.00049322632
0.00051868779
0.00054639281
0.00057669908
0.00061001173
0.00064677652
0.00068747536
0.00073270843
0.00078333569
0.00084039233
0.00090501934
0.00097845982
0.0010620653
0.0011572993
0.0012657316
0.0013890953
0.0015277973
0.0016814959
0.0018494955
0.0020308022
0.0022240568
0.002427262
0.0026372015
0.0028491773
0.0030591891
0.0032641238
0.0034560148
0.0036271274
0.0037741351
0.0038972741
0.0039987706
0.0040812576
0.0041475688
0.004200676
0.0042433562
0.0042779676
0.0043063651
0.0043299539
0.0043497601
0.0043665272
0.0043807915
0.0043929063
0.0044030914
0.0044116119
0.004418628
0.0044241769
0.0044282167
0.0044305646
0.0044302514
0.004427467
0.0044225067
0.0044155313
0.0044066341
0.0043959052
0.0043834741
0.0043694756
0.004354068
0.0043374012
0.0043196233
0.0043008816
0.0042813097
0.0042610229
0.004240145
0.0042187724
0.0041970169
0.0041748357
0.0041526171
0.0041295509
0.0041056469
0.0040847786
0.0040463226
9.3804095e-06
1.1752168e-05
1.8505203e-05
3.0345519e-05
4.5490621e-05
6.1119618e-05
7.5207706e-05
8.6936314e-05
9.6289476e-05
0.00010358332
0.00010921551
0.00011369394
0.00011751216
0.00012112082
0.00012502689
0.00012980473
0.00013573062
0.00014308006
0.00015227872
0.00016377518
0.00017689224
0.00019191104
0.00020811223
0.00022551746
0.00024420849
0.00026424289
0.0002858488
0.00030932872
0.00033501808
0.0003632958
0.0003945809
0.00042933196
0.00046805041
0.00051127304
0.00055958442
0.00061370041
0.00067461861
0.00074336352
0.00082095207
0.00090847674
0.0010071461
0.0011182899
0.0012433507
0.0013838995
0.0015416122
0.0017147036
0.0019012258
0.0021003764
0.0023114794
0.0025333461
0.002763937
0.0029999438
0.0032365642
0.0034695343
0.003695633
0.0039038621
0.0040873637
0.0042458758
0.004381011
0.0044953004
0.0045917495
0.004673057
0.0047416591
0.0047998397
0.0048496364
0.0048926894
0.004930289
0.0049634261
0.0049928382
0.0050190673
0.0050424675
0.0050632658
0.0050817943
0.0050982106
0.0051125342
0.0051247011
0.0051345679
0.0051414812
0.0051454001
0.0051465099
0.0051449876
0.0051409745
0.005134613
0.0051260792
0.0051155594
0.0051032566
0.005089361
0.0050740562
0.0050575229
0.0050399255
0.0050214009
0.0050021009
0.0049821391
0.0049616491
0.0049405936
0.0049194119
0.0048971641
0.0048744501
0.0048537505
0.0048170896
8.9897616e-06
9.2309066e-06
1.0391894e-05
1.306655e-05
1.7352837e-05
2.2792452e-05
2.8762618e-05
3.4796083e-05
4.0622651e-05
4.6100832e-05
5.1147678e-05
5.5731988e-05
5.9872527e-05
6.3625131e-05
6.7093797e-05
7.0435293e-05
7.3815411e-05
7.7408646e-05
8.1427351e-05
8.6128183e-05
9.1697847e-05
9.8412318e-05
0.00010651155
0.00011620291
0.00012735831
0.00014018448
0.00015492944
0.00017144301
0.00018975238
0.00021022508
0.00023329958
0.00025949617
0.00028942584
0.00032377207
0.00036330144
0.00040892469
0.00046182062
0.00052346071
0.00059538816
0.00067925522
0.00077680942
0.00088987507
0.0010203372
0.0011701963
0.0013415649
0.0015227059
0.0017159807
0.0019249121
0.0021499551
0.0023895592
0.0026406114
0.0028984026
0.0031568174
0.0034118478
0.0036610111
0.0038825921
0.0040754519
0.0042465265
0.0043983464
0.0045329612
0.004652408
0.0047582112
0.0048517485
0.0049346241
0.0050084037
0.0050743689
0.0051336635
0.0051872617
0.0052359157
0.0052802121
0.0053206023
0.0053574143
0.005390945
0.0054213741
0.0054487338
0.005472977
0.0054940196
0.0055114491
0.0055251524
0.0055352565
0.0055419641
0.0055454774
0.0055460042
0.0055437796
0.0055390504
0.0055320725
0.0055230832
0.0055123085
0.00549997
0.0054862696
0.0054713849
0.005455487
0.0054387076
0.0054212034
0.0054029577
0.0053844241
0.0053646692
0.0053445707
0.0053257935
0.0052922689
8.9407319e-06
8.8617832e-06
8.945267e-06
9.3733786e-06
1.028833e-05
1.1705481e-05
1.3541758e-05
1.5693842e-05
1.8077978e-05
2.0628209e-05
2.3282852e-05
2.5983314e-05
2.867944e-05
3.1330634e-05
3.3912525e-05
3.6423075e-05
3.8879617e-05
4.1314966e-05
4.3781659e-05
4.6355543e-05
4.9123893e-05
5.2195937e-05
5.5699686e-05
5.9780958e-05
6.457202e-05
7.0250914e-05
7.7057966e-05
8.5139036e-05
9.4559518e-05
0.00010555896
0.00011844571
0.00013359741
0.00015136316
0.00017186159
0.00019572607
0.00022372729
0.00025683943
0.00029630807
0.00034366854
0.00040075228
0.00046972506
0.00055309906
0.00065369098
0.00077454428
0.00091877959
0.0010825559
0.0012631473
0.0014616181
0.0016783418
0.0019124388
0.0021612753
0.0024201666
0.002682935
0.002948046
0.0032140681
0.0034581903
0.0036786503
0.0038798205
0.0040625844
0.0042297585
0.0043831527
0.0045232356
0.0046506659
0.0047667451
0.0048725919
0.0049690667
0.0050572264
0.005138034
0.0052122212
0.0052804435
0.0053432702
0.0054011254
0.005454348
0.0055031672
0.0055476368
0.005587754
0.0056235111
0.0056547165
0.005681291
0.0057033412
0.0057210896
0.0057347919
0.0057447233
0.0057511832
0.0057544845
0.0057549414
0.0057528442
0.0057484687
0.0057420867
0.005733945
0.0057242606
0.0057132377
0.0057010361
0.0056878402
0.0056736673
0.0056589653
0.0056428965
0.0056263994
0.0056107683
0.0055810135
8.932734e-06
8.8090853e-06
8.7105074e-06
8.6773298e-06
8.7583558e-06
8.9872604e-06
9.3745242e-06
9.9174877e-06
1.0611161e-05
1.145043e-05
1.2427225e-05
1.352836e-05
1.4737146e-05
1.6034095e-05
1.7399461e-05
1.8816463e-05
2.0272945e-05
2.1761413e-05
2.3281131e-05
2.4840379e-05
2.6456006e-05
2.8154337e-05
2.9972776e-05
3.1960935e-05
3.417743e-05
3.669497e-05
3.9608126e-05
4.3021245e-05
4.7043519e-05
5.1819455e-05
5.7543322e-05
6.4404979e-05
7.2619759e-05
8.2430924e-05
9.4184366e-05
0.00010832364
0.00012542682
0.00014624552
0.00017147317
0.00020216256
0.00023988146
0.00028663676
0.00034497401
0.00041807507
0.00050985311
0.00062312305
0.00075702148
0.00091181508
0.0010885404
0.0012875429
0.0015078565
0.0017466144
0.0019990967
0.0022629222
0.002535415
0.002800517
0.0030435524
0.0032702693
0.0034830505
0.0036834792
0.0038726235
0.0040491981
0.0042133081
0.0043663247
0.0045086312
0.0046404219
0.0047626756
0.0048761524
0.004981348
0.0050789485
0.0051695754
0.0052536739
0.005331597
0.0054036173
0.0054697645
0.0055300824
0.0055846535
0.0056334681
0.0056765362
0.0057139882
0.0057460672
0.0057730702
0.0057953347
0.0058132244
0.0058271203
0.0058374007
0.0058444148
0.0058484974
0.0058499814
0.0058491682
0.0058463257
0.0058417018
0.0058354941
0.0058279235
0.0058190537
0.0058093212
0.0057980361
0.0057860831
0.005774653
0.0057492254
8.9300364e-06
8.799866e-06
8.6731297e-06
8.557014e-06
8.4631767e-06
8.4038489e-06
8.3885326e-06
8.4241775e-06
8.5169045e-06
8.6726699e-06
8.8966492e-06
9.1921755e-06
9.560664e-06
1.0001349e-05
1.0511696e-05
1.1088035e-05
1.1725966e-05
1.2420815e-05
1.3168557e-05
1.3966751e-05
1.4815112e-05
1.5716039e-05
1.6675805e-05
1.7705668e-05
1.8821979e-05
2.0047017e-05
2.1411104e-05
2.2952697e-05
2.4718228e-05
2.6765819e-05
2.9170943e-05
3.202521e-05
3.544097e-05
3.9556992e-05
4.455535e-05
5.0630453e-05
5.8057045e-05
6.7203211e-05
7.8498799e-05
9.2506692e-05
0.00011001273
0.00013208298
0.00016015116
0.00019613164
0.0002424647
0.00030211228
0.00037782339
0.00047157492
0.00058580098
0.00072277112
0.00088417514
0.0010705311
0.0012806241
0.0015123977
0.0017632023
0.0020238631
0.0022815236
0.0025301466
0.0027635673
0.0029862927
0.0032003268
0.003405631
0.0036019876
0.0037896653
0.0039677439
0.0041351159
0.0042929849
0.0044415527
0.0045808024
0.0047114213
0.0048338552
0.0049484232
0.0050554189
0.0051551426
0.0052474282
0.005332328
0.0054100132
0.0054805766
0.0055441058
0.0056007819
0.0056508677
0.0056946835
0.0057326165
0.005765083
0.0057925231
0.0058153818
0.0058340687
0.0058489834
0.0058605273
0.0058690658
0.0058749291
0.0058784209
0.0058797889
0.0058793009
0.0058770788
0.0058735528
0.0058682085
0.0058618322
0.0058556572
0.0058352398
8.9284423e-06
8.7967932e-06
8.6655639e-06
8.5357489e-06
8.4095631e-06
8.2900275e-06
8.1803803e-06
8.0838632e-06
8.0038901e-06
7.9441558e-06
7.9085092e-06
7.9007023e-06
7.9242139e-06
7.9820411e-06
8.0766289e-06
8.2098614e-06
8.3830067e-06
8.5967505e-06
8.8513657e-06
9.1469509e-06
9.4836536e-06
9.8619414e-06
1.0282916e-05
1.0748774e-05
1.1263206e-05
1.1831869e-05
1.2463055e-05
1.3168369e-05
1.3963209e-05
1.4867685e-05
1.5908219e-05
1.7118563e-05
1.8541595e-05
2.0231716e-05
2.2259322e-05
2.4711266e-05
2.7701275e-05
3.1382231e-05
3.5951729e-05
4.1646517e-05
4.880373e-05
5.788553e-05
6.9529087e-05
8.4615398e-05
0.0001043446
0.00013034293
0.00016464449
0.00020946411
0.00026741387
0.00034144725
0.00043472126
0.00055028706
0.00069058858
0.00085716557
0.0010505308
0.0012679911
0.0015023885
0.0017454476
0.0019878236
0.0022268057
0.0024573482
0.0026782741
0.0028930773
0.0031023496
0.0033055888
0.0035018436
0.003691066
0.0038723223
0.0040444281
0.0042082106
0.0043635857
0.0045106542
0.0046494327
0.0047797815
0.0049014179
0.0050144156
0.0051189393
0.0052150511
0.0053028553
0.0053825543
0.0054543936
0.0055186828
0.0055758287
0.0056262661
0.0056704632
0.0057089264
0.0057421243
0.0057705177
0.0057945746
0.0058147273
0.0058313777
0.0058448949
0.0058555934
0.0058637972
0.0058696988
0.0058737345
0.0058755783
0.005875915
0.0058761
0.005861527
8.9274404e-06
8.7951106e-06
8.6628315e-06
8.5306476e-06
8.3988932e-06
8.2681441e-06
8.1391959e-06
8.013039e-06
7.8908655e-06
7.7740773e-06
7.6642674e-06
7.5631839e-06
7.4726945e-06
7.3947305e-06
7.3312324e-06
7.2841142e-06
7.2552195e-06
7.246265e-06
7.2588239e-06
7.2943394e-06
7.3541466e-06
7.4395192e-06
7.5517117e-06
7.6920817e-06
7.8622325e-06
8.0641735e-06
8.300615e-06
8.5752966e-06
8.8932243e-06
9.2609753e-06
9.6872214e-06
1.0183385e-05
1.0764384e-05
1.1449514e-05
1.2263902e-05
1.3239865e-05
1.4419283e-05
1.5857613e-05
1.7628053e-05
1.982493e-05
2.2575704e-05
2.6056154e-05
3.0508945e-05
3.6266131e-05
4.3803097e-05
5.3792315e-05
6.7160534e-05
8.5114634e-05
0.00010922368
0.0001414948
0.00018443277
0.00024104206
0.00031471192
0.00040899676
0.00052733076
0.00067211267
0.00084328231
0.0010379738
0.0012502017
0.0014742789
0.0017031195
0.0019314603
0.0021582954
0.0023798799
0.0025942247
0.00280473
0.0030115103
0.0032141825
0.003411462
0.003603038
0.0037877293
0.0039648179
0.0041342628
0.0042952474
0.0044471953
0.0045901091
0.0047239206
0.0048484662
0.0049637422
0.0050698612
0.0051669668
0.0052552921
0.005335204
0.0054070945
0.0054714175
0.0055287134
0.0055794819
0.0056242306
0.0056634888
0.0056977497
0.005727491
0.0057531541
0.00577513
0.0057938115
0.0058094737
0.005822574
0.0058329821
0.0058412963
0.0058490426
0.0058413183
8.9268887e-06
8.7941792e-06
8.661497e-06
8.5287854e-06
8.3960712e-06
8.2634285e-06
8.1310157e-06
7.9990935e-06
7.8680234e-06
7.7382575e-06
7.6103328e-06
7.4848712e-06
7.3625863e-06
7.2442826e-06
7.130849e-06
7.0232527e-06
6.9225291e-06
6.8297641e-06
6.7460779e-06
6.6726153e-06
6.6105333e-06
6.560991e-06
6.5251547e-06
6.504211e-06
6.4993851e-06
6.5119708e-06
6.5434121e-06
6.5954155e-06
6.6700349e-06
6.7697548e-06
6.8977083e-06
7.0579195e-06
7.2555551e-06
7.4973582e-06
7.7921778e-06
8.151366e-06
8.5896265e-06
9.126283e-06
9.7868769e-06
1.060491e-05
1.1625065e-05
1.2908291e-05
1.4538421e-05
1.6631584e-05
1.9352756e-05
2.2939683e-05
2.7731705e-05
3.4201364e-05
4.3012294e-05
5.5083431e-05
7.1674403e-05
9.4483442e-05
0.00012574119
0.00016826957
0.00022548208
0.00030116957
0.00039887808
0.00052107396
0.00066812238
0.0008384742
0.0010282451
0.0012322619
0.0014462911
0.0016648704
0.0018835155
0.0021019512
0.0023175796
0.002527954
0.0027359142
0.0029414674
0.003144285
0.0033425833
0.0035358789
0.0037232203
0.0039027365
0.0040742824
0.0042373407
0.0043912348
0.0045356251
0.0046703644
0.004795364
0.0049106394
0.0050164191
0.0051129614
0.0052006352
0.0052799646
0.0053514176
0.0054155152
0.0054728258
0.0055238813
0.0055692284
0.0056093761
0.0056447937
0.0056759504
0.0057032106
0.0057270668
0.005747586
0.0057653023
0.0057819519
0.0057822773
8.9265785e-06
8.793638e-06
8.6607563e-06
8.5278918e-06
8.3950349e-06
8.262178e-06
8.1293458e-06
7.9966142e-06
7.8641066e-06
7.7319826e-06
7.6004284e-06
7.4696575e-06
7.3399172e-06
7.2114959e-06
7.084727e-06
6.9599931e-06
6.8377283e-06
6.7184189e-06
6.6026019e-06
6.4908639e-06
6.3838388e-06
6.2822026e-06
6.186672e-06
6.0980045e-06
6.0169974e-06
5.944489e-06
5.8813734e-06
5.8286226e-06
5.7873093e-06
5.7586385e-06
5.7440095e-06
5.7450899e-06
5.7638937e-06
5.8029349e-06
5.8654223e-06
5.9554012e-06
6.0780222e-06
6.2399552e-06
6.4499632e-06
6.7196418e-06
7.0642876e-06
7.5043231e-06
8.0675232e-06
8.792095e-06
9.7316131e-06
1.096298e-05
1.2597256e-05
1.4794243e-05
1.7785437e-05
2.1906255e-05
2.7640819e-05
3.568375e-05
4.7031587e-05
6.3087573e-05
8.5782753e-05
0.00011767379
0.00016192413
0.00022206515
0.0003014618
0.00040276727
0.00052720383
0.00067417286
0.00084175499
0.001026392
0.0012235476
0.0014298574
0.0016411208
0.001853068
0.0020657736
0.0022772936
0.002485278
0.0026913243
0.0028956518
0.003097944
0.0032963966
0.0034900669
0.0036780588
0.0038584189
0.0040303304
0.0041933475
0.0043468726
0.0044904148
0.0046239627
0.0047474804
0.0048611096
0.0049652764
0.0050602964
0.0051466381
0.00522486
0.0052954809
0.0053590915
0.0054162422
0.005467467
0.0055133088
0.0055542177
0.0055907286
0.0056231021
0.005651828
0.0056788962
0.0056886878
8.9263986e-06
8.7932712e-06
8.6602316e-06
8.5272679e-06
8.3943785e-06
8.2615526e-06
8.1287935e-06
7.9961348e-06
7.8636382e-06
7.7313831e-06
7.5994575e-06
7.4679548e-06
7.3369767e-06
7.2066373e-06
7.0770662e-06
6.9484114e-06
6.8208428e-06
6.6945549e-06
6.5697687e-06
6.4467344e-06
6.325733e-06
6.2070774e-06
6.0911136e-06
5.9782217e-06
5.868817e-06
5.7633498e-06
5.6623089e-06
5.5662254e-06
5.475678e-06
5.3913003e-06
5.3137966e-06
5.2439632e-06
5.1827094e-06
5.1310973e-06
5.090402e-06
5.0621774e-06
5.0483365e-06
5.0512729e-06
5.0740438e-06
5.1206488e-06
5.1962735e-06
5.3076985e-06
5.463999e-06
5.6775107e-06
5.965409e-06
6.3518101e-06
6.8711396e-06
7.5732477e-06
8.5310893e-06
9.852283e-06
1.1696598e-05
1.4301653e-05
1.8023248e-05
2.3393948e-05
3.1204492e-05
4.2607591e-05
5.9242084e-05
8.3310956e-05
0.00011755665
0.00016510676
0.00022912746
0.00031232715
0.00041659151
0.00054250001
0.00068906958
0.00085436103
0.001035286
0.0012277446
0.001428925
0.0016353835
0.0018430947
0.002052077
0.0022604486
0.0024657595
0.0026701607
0.0028736273
0.0030752738
0.0032731995
0.0034662709
0.0036534271
0.0038327342
0.0040029988
0.0041640374
0.0043151337
0.0044559818
0.0045868303
0.0047075978
0.0048186046
0.0049203146
0.0050131309
0.005097639
0.0051743698
0.0052438872
0.0053067863
0.0053635797
0.0054148424
0.0054610134
0.005502549
0.0055417489
0.0055626563
8.9263281e-06
8.7930356e-06
8.6598418e-06
8.5267619e-06
8.3938095e-06
8.2609844e-06
8.1282925e-06
7.9957593e-06
7.8634299e-06
7.7313613e-06
7.599615e-06
7.4682532e-06
7.3373387e-06
7.206937e-06
7.0771173e-06
6.9479538e-06
6.8195273e-06
6.6919265e-06
6.5652497e-06
6.4396062e-06
6.3151182e-06
6.1919221e-06
6.0701704e-06
5.9500336e-06
5.8317013e-06
5.7153842e-06
5.6013152e-06
5.4897523e-06
5.3809802e-06
5.2753127e-06
5.1730971e-06
5.0747209e-06
4.9806167e-06
4.8912736e-06
4.8072525e-06
4.7292082e-06
4.6579131e-06
4.5942937e-06
4.5394836e-06
4.4949021e-06
4.4623457e-06
4.444111e-06
4.4432005e-06
4.4635994e-06
4.5107502e-06
4.5921365e-06
4.7182401e-06
4.9040943e-06
5.1717504e-06
5.5538258e-06
6.0988141e-06
6.8799437e-06
8.0090359e-06
9.6583705e-06
1.2094626e-05
1.5729505e-05
2.1194005e-05
2.9431231e-05
4.1789797e-05
6.0094462e-05
8.6665714e-05
0.00012421376
0.00017564514
0.00024373196
0.00033068949
0.00043791648
0.00056567014
0.00071278959
0.00087737319
0.0010566432
0.0012467928
0.0014452946
0.0016488102
0.0018535797
0.0020600259
0.0022658487
0.0024694393
0.0026723144
0.0028749209
0.0030753586
0.003271763
0.003462953
0.0036478583
0.0038241449
0.0039910424
0.0041486088
0.0042958328
0.0044328435
0.004559861
0.0046769727
0.0047846873
0.004883397
0.0049736335
0.0050559942
0.005131001
0.0051992513
0.0052613278
0.0053176496
0.0053708973
0.0054048111
8.9263628e-06
8.7929305e-06
8.6595942e-06
8.526389e-06
8.3933425e-06
8.2604664e-06
8.1277736e-06
7.9952904e-06
7.8630568e-06
7.7311224e-06
7.5995409e-06
7.4683662e-06
7.3376519e-06
7.2074519e-06
7.0778205e-06
6.9488127e-06
6.8204847e-06
6.6928946e-06
6.5661025e-06
6.440171e-06
6.3151667e-06
6.1911603e-06
6.0682277e-06
5.9464511e-06
5.8259201e-06
5.706733e-06
5.5889976e-06
5.472833e-06
5.358371e-06
5.2457574e-06
5.1351539e-06
5.0267405e-06
4.9207181e-06
4.8173113e-06
4.7167733e-06
4.6193922e-06
4.5254986e-06
4.4354757e-06
4.3497747e-06
4.2689366e-06
4.19362e-06
4.1246383e-06
4.063018e-06
4.0100806e-06
3.9675612e-06
3.9377949e-06
3.9239899e-06
3.9306484e-06
3.9642903e-06
4.0344872e-06
4.1553767e-06
4.3483354e-06
4.6463159e-06
5.1006636e-06
5.7919327e-06
6.8480945e-06
8.4730393e-06
1.0989771e-05
1.4898268e-05
2.0950084e-05
3.0232763e-05
4.4242223e-05
6.4911051e-05
9.4586112e-05
0.0001358996
0.000191562
0.00026406415
0.00035528866
0.00046630979
0.00059715477
0.000746499
0.00091240228
0.0010920619
0.0012817822
0.0014793635
0.0016810706
0.0018841929
0.0020890571
0.0022926962
0.0024947514
0.0026961326
0.0028973617
0.0030957154
0.0032895421
0.0034776106
0.0036589789
0.0038307157
0.0039930863
0.0041457394
0.0042880852
0.0044205038
0.0045430134
0.0046560253
0.0047600417
0.0048554975
0.0049429743
0.0050231309
0.0050963291
0.0051657058
0.0052147408
8.9264942e-06
8.7929497e-06
8.6594913e-06
8.526168e-06
8.3930182e-06
8.260064e-06
8.1273256e-06
7.9948319e-06
7.8626216e-06
7.7307412e-06
7.5992409e-06
7.4681721e-06
7.3375861e-06
7.2075343e-06
7.0780681e-06
6.9492386e-06
6.8210967e-06
6.6936932e-06
6.5670788e-06
6.441304e-06
6.3164195e-06
6.1924762e-06
6.0695258e-06
5.9476209e-06
5.8268156e-06
5.707166e-06
5.5887309e-06
5.4715721e-06
5.3557561e-06
5.241354e-06
5.1284427e-06
5.0171067e-06
4.9074383e-06
4.7995398e-06
4.6935249e-06
4.5895208e-06
4.4876709e-06
4.3881382e-06
4.2911093e-06
4.1968012e-06
4.1054689e-06
4.0174166e-06
3.9330134e-06
3.8527172e-06
3.7771063e-06
3.7069309e-06
3.643191e-06
3.587252e-06
3.5410347e-06
3.5073078e-06
3.4901314e-06
3.4955848e-06
3.5330086e-06
3.616973e-06
3.7704039e-06
4.0301308e-06
4.4562613e-06
5.1463233e-06
6.2576743e-06
8.0412135e-06
1.0888932e-05
1.5394469e-05
2.242442e-05
3.3191887e-05
4.9315138e-05
7.2820285e-05
0.00010608458
0.00015169991
0.00021225103
0.00029003803
0.00038668262
0.00050296787
0.00063859655
0.00079195333
0.00096099755
0.0011426052
0.0013333975
0.0015314039
0.0017320215
0.0019341372
0.0021374915
0.0023390285
0.002539182
0.0027393354
0.0029382471
0.0031335446
0.0033237655
0.0035077532
0.0036838161
0.0038501904
0.0040072513
0.0041541566
0.0042911259
0.0044183827
0.004536113
0.0046448185
0.0047451079
0.0048372541
0.0049248907
0.0049913265
8.9267102e-06
8.7930794e-06
8.6595218e-06
8.5260958e-06
8.3928479e-06
8.2598088e-06
8.1270054e-06
7.9944696e-06
7.8622402e-06
7.730362e-06
7.5988833e-06
7.4678541e-06
7.3373249e-06
7.2073463e-06
7.0779693e-06
6.9492445e-06
6.821222e-06
6.6939517e-06
6.5674825e-06
6.4418626e-06
6.3171393e-06
6.1933592e-06
6.0705678e-06
5.9488098e-06
5.8281292e-06
5.7085695e-06
5.5901737e-06
5.4729848e-06
5.3570457e-06
5.2424003e-06
5.1290931e-06
5.0171704e-06
4.9066803e-06
4.797674e-06
4.690206e-06
4.5843352e-06
4.4801262e-06
4.37765e-06
4.2769861e-06
4.178224e-06
4.0814659e-06
3.9868299e-06
3.8944545e-06
3.8045052e-06
3.7171834e-06
3.6327401e-06
3.5514973e-06
3.4738798e-06
3.4004653e-06
3.3320632e-06
3.2698369e-06
3.2154998e-06
3.171643e-06
3.1422766e-06
3.1337141e-06
3.156096e-06
3.2261209e-06
3.3712124e-06
3.6365526e-06
4.0967799e-06
4.8734419e-06
6.1607491e-06
8.263246e-06
1.1646797e-05
1.7002776e-05
2.5317801e-05
3.7940026e-05
5.6627878e-05
8.3520609e-05
0.00012107363
0.00017188829
0.00023846935
0.0003229297
0.0004265817
0.00054985347
0.00069195014
0.00085093275
0.0010246237
0.0012092913
0.0014020548
0.0016007269
0.0018005242
0.0020016905
0.0022026709
0.0024022766
0.0026002288
0.002798792
0.0029946411
0.0031861377
0.0033718913
0.003550937
0.0037206105
0.0038810534
0.0040318957
0.0041728041
0.0043041151
0.004426153
0.0045390684
0.0046469188
0.0047330763
8.9269984e-06
8.7933031e-06
8.6596674e-06
8.526156e-06
8.3928214e-06
8.2597011e-06
8.126828e-06
7.9942371e-06
7.8619682e-06
7.7300651e-06
7.5985751e-06
7.467547e-06
7.3370307e-06
7.2070764e-06
7.0777349e-06
6.9490567e-06
6.8210921e-06
6.6938907e-06
6.5675016e-06
6.4419727e-06
6.3173512e-06
6.193683e-06
6.0710127e-06
5.9493837e-06
5.8288378e-06
5.7094156e-06
5.5911564e-06
5.474098e-06
5.3582769e-06
5.2437287e-06
5.1304878e-06
5.0185876e-06
4.9080614e-06
4.7989417e-06
4.6912611e-06
4.5850528e-06
4.4803507e-06
4.3771898e-06
4.2756075e-06
4.1756434e-06
4.0773409e-06
3.9807479e-06
3.8859184e-06
3.7929141e-06
3.7018073e-06
3.6126846e-06
3.5256523e-06
3.4408458e-06
3.3584423e-06
3.278682e-06
3.2019005e-06
3.1285811e-06
3.0594394e-06
2.9955658e-06
2.9386617e-06
2.8914435e-06
2.8583599e-06
2.8467769e-06
2.86896e-06
2.9455611e-06
3.1110824e-06
3.4224567e-06
3.9731149e-06
4.9130852e-06
6.4793451e-06
9.0379896e-06
1.3140741e-05
1.9594197e-05
2.9528812e-05
4.4463022e-05
6.6337737e-05
9.7445946e-05
0.00014036253
0.00019770911
0.00027189834
0.00036477013
0.00047722512
0.000609235
0.0007592928
0.00092510456
0.0011041393
0.0012922721
0.0014872234
0.0016853518
0.0018845877
0.0020845425
0.0022829767
0.0024801059
0.0026767684
0.0028723207
0.0030642893
0.0032511503
0.0034318094
0.0036044281
0.0037676789
0.0039217359
0.0040661896
0.0042010565
0.0043305497
0.0044385516
8.9273472e-06
8.7936051e-06
8.6599095e-06
8.5263288e-06
8.3929199e-06
8.2597263e-06
8.1267856e-06
7.9941364e-06
7.8618195e-06
7.7298787e-06
7.5983607e-06
7.4673135e-06
7.3367865e-06
7.2068296e-06
7.0774932e-06
6.9488276e-06
6.8208831e-06
6.6937094e-06
6.5673556e-06
6.4418698e-06
6.3172993e-06
6.1936901e-06
6.0710869e-06
5.9495331e-06
5.8290705e-06
5.7097394e-06
5.5915785e-06
5.4746247e-06
5.3589135e-06
5.2444784e-06
5.1313514e-06
5.0195628e-06
4.9091415e-06
4.8001147e-06
4.6925083e-06
4.5863469e-06
4.4816543e-06
4.3784531e-06
4.2767656e-06
4.1766134e-06
4.0780186e-06
3.9810032e-06
3.8855906e-06
3.7918053e-06
3.6996743e-06
3.609228e-06
3.5205019e-06
3.4335388e-06
3.3483928e-06
3.2651345e-06
3.1838598e-06
3.1047036e-06
3.0278613e-06
2.9536257e-06
2.8824475e-06
2.8150388e-06
2.7525563e-06
2.6969124e-06
2.6513032e-06
2.6211486e-06
2.6156672e-06
2.6504269e-06
2.751729e-06
2.9632137e-06
3.3565169e-06
4.048018e-06
5.2224965e-06
7.1693614e-06
1.0331713e-05
1.5371051e-05
2.3243361e-05
3.5267203e-05
5.31847e-05
7.9160305e-05
0.00011569023
0.00016547333
0.00023111295
0.00031485285
0.00041808207
0.00054111423
0.0006832402
0.00084217196
0.0010153508
0.0011992649
0.0013906761
0.0015873269
0.0017845105
0.0019826987
0.002179982
0.0023760593
0.002570855
0.0027655731
0.0029574326
0.0031449595
0.0033267774
0.0035016094
0.0036673503
0.0038240949
0.0039756411
0.004106964
8.9277465e-06
8.7939716e-06
8.6602308e-06
8.5265947e-06
8.3931236e-06
8.2598653e-06
8.1268621e-06
7.9941556e-06
7.8617882e-06
7.7298043e-06
7.5982503e-06
7.4671738e-06
7.3366238e-06
7.20665e-06
7.0773022e-06
6.9486308e-06
6.8206857e-06
6.6935167e-06
6.5671727e-06
6.4417019e-06
6.3171517e-06
6.1935682e-06
6.0709961e-06
5.949479e-06
5.8290589e-06
5.7097763e-06
5.5916699e-06
5.4747767e-06
5.3591322e-06
5.2447699e-06
5.1317213e-06
5.0200165e-06
4.9096832e-06
4.8007478e-06
4.6932346e-06
4.587166e-06
4.482563e-06
4.3794447e-06
4.2778288e-06
4.1777314e-06
4.0791674e-06
3.9821506e-06
3.8866937e-06
3.7928088e-06
3.7005074e-06
3.6098009e-06
3.5207013e-06
3.4332216e-06
3.3473769e-06
3.2631863e-06
3.1806747e-06
3.0998769e-06