/*--------------------------------*- C++ -*----------------------------------*\
| =========                 |                                                 |
| \\      /  F ield         | OpenFOAM: The Open Source CFD Toolbox           |
|  \\    /   O peration     | Version:  2206                                  |
|   \\  /    A nd           | Website:  www.openfoam.com                      |
|    \\/     M anipulation  |                                                 |
\*---------------------------------------------------------------------------*/
FoamFile
{
    version     2.0;
    format      ascii;
    arch        "LSB;label=32;scalar=64";
    class       volScalarField;
    location    "1500";
    object      nut;
}
// * * * * * * * * * * * * * * * * * * * * * * * * * * * * * * * * * * * * * //

dimensions      [0 2 -1 0 0 0 0];

internalField   nonuniform List<scalar> 
7480
(
1.5119977e-06
1.8586427e-06
1.5440508e-06
1.0160582e-06
6.0450472e-07
3.7089137e-07
2.5854217e-07
2.0376396e-07
1.7338622e-07
1.5359874e-07
1.3831036e-07
1.2519587e-07
1.137682e-07
1.0387934e-07
9.5303703e-08
8.7829997e-08
8.1302302e-08
7.5569849e-08
7.0469759e-08
6.5898454e-08
6.1793738e-08
5.8087886e-08
5.4718589e-08
5.1646523e-08
4.8840537e-08
4.6266921e-08
4.3895725e-08
4.1707912e-08
3.9688427e-08
3.7820047e-08
3.6087767e-08
3.4481801e-08
3.2993548e-08
3.1613404e-08
3.03333e-08
2.9147757e-08
2.8051789e-08
2.7040511e-08
2.6110605e-08
2.5260412e-08
2.448855e-08
2.3793586e-08
2.3175486e-08
2.2634428e-08
2.2171342e-08
2.1794426e-08
2.1501816e-08
2.1303473e-08
2.1198028e-08
2.1183142e-08
2.1255912e-08
2.1412468e-08
2.1644581e-08
2.1937214e-08
2.227563e-08
2.2649667e-08
2.303697e-08
2.3404096e-08
2.3719924e-08
2.3958685e-08
2.4118782e-08
2.4201692e-08
2.4214873e-08
2.4168539e-08
2.4075632e-08
2.394792e-08
2.3795779e-08
2.3627509e-08
2.3449068e-08
2.326488e-08
2.3078317e-08
2.2891359e-08
2.2705276e-08
2.2521411e-08
2.2340095e-08
2.2161513e-08
2.1985731e-08
2.180549e-08
2.1621416e-08
2.1435683e-08
2.1249173e-08
2.1062315e-08
2.0874393e-08
2.0685139e-08
2.0494487e-08
2.0302397e-08
2.0109172e-08
1.9914897e-08
1.9720011e-08
1.9524659e-08
1.932915e-08
1.9133611e-08
1.8938477e-08
1.8742662e-08
1.8549421e-08
1.8346872e-08
1.8170303e-08
1.7915758e-08
1.7772493e-08
1.7384495e-08
1.4110781e-06
1.6300548e-06
1.5384579e-06
1.2879967e-06
1.0361348e-06
8.1126872e-07
6.4376105e-07
5.1797037e-07
4.2141172e-07
3.4674309e-07
2.8962983e-07
2.4635776e-07
2.1349697e-07
1.8820448e-07
1.6832785e-07
1.5234101e-07
1.3920416e-07
1.2818626e-07
1.1878322e-07
1.1066107e-07
1.0359289e-07
9.7402639e-08
9.1956464e-08
8.715605e-08
8.2830416e-08
7.8899022e-08
7.5318113e-08
7.2065807e-08
6.9128774e-08
6.649516e-08
6.4157377e-08
6.2113014e-08
6.0360881e-08
5.8899863e-08
5.7731483e-08
5.6860476e-08
5.6293826e-08
5.6043629e-08
5.6130276e-08
5.6582974e-08
5.7438626e-08
5.8742387e-08
6.054985e-08
6.292597e-08
6.5950997e-08
6.9705887e-08
7.4257132e-08
7.9651044e-08
8.5899604e-08
9.2996728e-08
1.0091514e-07
1.0965168e-07
1.1901492e-07
1.287829e-07
1.3874109e-07
1.4857016e-07
1.577973e-07
1.6599584e-07
1.7290615e-07
1.7849751e-07
1.8288439e-07
1.8626224e-07
1.8882175e-07
1.9063336e-07
1.9186122e-07
1.9264992e-07
1.9311342e-07
1.9333529e-07
1.9337651e-07
1.9328144e-07
1.930807e-07
1.9279299e-07
1.9243548e-07
1.9202137e-07
1.9155535e-07
1.9103822e-07
1.9045476e-07
1.896524e-07
1.8869625e-07
1.876388e-07
1.8649703e-07
1.8527567e-07
1.8397629e-07
1.8260446e-07
1.8116513e-07
1.7966594e-07
1.7811436e-07
1.7651788e-07
1.7488471e-07
1.7322152e-07
1.7153509e-07
1.698313e-07
1.6811602e-07
1.6639292e-07
1.6466439e-07
1.6293134e-07
1.6121772e-07
1.5926677e-07
1.5790015e-07
1.5464757e-07
1.1013691e-06
1.4047512e-06
1.4358117e-06
1.3409397e-06
1.2075885e-06
1.0740655e-06
9.6686699e-07
8.8439493e-07
8.2030053e-07
7.6803982e-07
7.2387354e-07
6.7964524e-07
6.3733895e-07
6.0221529e-07
5.7248968e-07
5.4695343e-07
5.2492315e-07
5.0590909e-07
4.8955214e-07
4.7561439e-07
4.6393246e-07
4.5436885e-07
4.4682578e-07
4.4119531e-07
4.335966e-07
4.2646325e-07
4.1996467e-07
4.1430908e-07
4.0970207e-07
4.063416e-07
4.0443916e-07
4.0421482e-07
4.0588162e-07
4.0965339e-07
4.1575924e-07
4.2444016e-07
4.3595791e-07
4.5064703e-07
4.6894032e-07
4.9137188e-07
5.1857525e-07
5.5129582e-07
5.9040625e-07
6.3689951e-07
6.9196592e-07
7.5667777e-07
8.3195036e-07
9.1827896e-07
1.0157295e-06
1.1240877e-06
1.2423663e-06
1.3697582e-06
1.5043438e-06
1.6431654e-06
1.7832988e-06
1.9204033e-06
2.0485676e-06
2.1627473e-06
2.260148e-06
2.3406952e-06
2.4060035e-06
2.4587695e-06
2.4999794e-06
2.5317052e-06
2.5562299e-06
2.5753426e-06
2.5904046e-06
2.6023881e-06
2.6119929e-06
2.6197217e-06
2.6259125e-06
2.6307655e-06
2.6344798e-06
2.6372035e-06
2.6389818e-06
2.6398136e-06
2.6394765e-06
2.6356904e-06
2.6295536e-06
2.6218226e-06
2.6127295e-06
2.6023396e-06
2.5906887e-06
2.5778674e-06
2.5639529e-06
2.5490595e-06
2.533292e-06
2.5167582e-06
2.499571e-06
2.4818239e-06
2.4636111e-06
2.4450172e-06
2.4261198e-06
2.4069966e-06
2.3876169e-06
2.3682415e-06
2.3485238e-06
2.3265823e-06
2.3112113e-06
2.2731068e-06
5.0846954e-07
9.5914762e-07
1.1797836e-06
1.2284467e-06
1.2003932e-06
1.1428726e-06
1.0803741e-06
1.0213192e-06
9.6984878e-07
9.3004559e-07
9.0609346e-07
9.0231895e-07
9.0576792e-07
8.576734e-07
8.2197404e-07
7.9456155e-07
7.7455884e-07
7.6006474e-07
7.5005272e-07
7.4388664e-07
7.411652e-07
7.4160327e-07
7.450327e-07
7.5129484e-07
7.5986174e-07
7.7022007e-07
7.8223498e-07
7.9612391e-07
8.1227716e-07
8.3117299e-07
8.5336056e-07
8.7945548e-07
9.1013065e-07
9.4611816e-07
9.8821619e-07
1.037281e-06
1.0942818e-06
1.1604913e-06
1.2375002e-06
1.3272059e-06
1.4318078e-06
1.5538272e-06
1.6961353e-06
1.8619553e-06
2.0548913e-06
2.2783199e-06
2.5344924e-06
2.8250522e-06
3.1504587e-06
3.5100865e-06
3.9020126e-06
4.3203228e-06
4.7617119e-06
5.2184644e-06
5.6821314e-06
6.1410621e-06
6.5801288e-06
6.9854047e-06
7.3478537e-06
7.6646152e-06
7.9382504e-06
8.1726553e-06
8.3704537e-06
8.5386243e-06
8.6835887e-06
8.8106386e-06
8.9239224e-06
9.0264906e-06
9.120525e-06
9.2075666e-06
9.2886466e-06
9.364363e-06
9.4352298e-06
9.5016421e-06
9.5637022e-06
9.6213408e-06
9.6740776e-06
9.7001866e-06
9.7153141e-06
9.7241801e-06
9.7275046e-06
9.7255505e-06
9.718484e-06
9.7066317e-06
9.6902947e-06
9.6698782e-06
9.6457594e-06
9.6183179e-06
9.5879463e-06
9.5549769e-06
9.5197304e-06
9.4825147e-06
9.4435949e-06
9.4032803e-06
9.3614142e-06
9.319176e-06
9.2745761e-06
9.2241315e-06
9.1898578e-06
9.0977034e-06
2.2507538e-07
4.2726496e-07
6.9864247e-07
8.9331099e-07
9.8968321e-07
1.0235079e-06
1.0250288e-06
1.0107394e-06
9.8910807e-07
9.6534237e-07
9.4375499e-07
9.2874928e-07
9.2200367e-07
9.2305483e-07
9.3202376e-07
9.4901181e-07
9.6932873e-07
9.5335438e-07
9.2973372e-07
9.1688799e-07
9.1370259e-07
9.1852959e-07
9.3045064e-07
9.4883942e-07
9.7333712e-07
1.0037761e-06
1.038493e-06
1.0775467e-06
1.1214794e-06
1.1708236e-06
1.226182e-06
1.2882889e-06
1.3580546e-06
1.4366007e-06
1.5252929e-06
1.625745e-06
1.7395966e-06
1.8684808e-06
2.015155e-06
2.1829492e-06
2.375665e-06
2.5975765e-06
2.8534659e-06
3.1486601e-06
3.4889387e-06
3.8792519e-06
4.3214959e-06
4.8170282e-06
5.3664518e-06
5.9695663e-06
6.62471e-06
7.3268873e-06
8.0667456e-06
8.8346376e-06
9.6198858e-06
1.0408679e-05
1.1177204e-05
1.1902232e-05
1.2569032e-05
1.317156e-05
1.3708591e-05
1.4182814e-05
1.4600534e-05
1.4970153e-05
1.5300275e-05
1.5598563e-05
1.5871471e-05
1.612407e-05
1.6360152e-05
1.6582479e-05
1.6792881e-05
1.6992322e-05
1.7181967e-05
1.7362582e-05
1.753433e-05
1.7697013e-05
1.7849765e-05
1.7986783e-05
1.810803e-05
1.8215022e-05
1.830883e-05
1.8390052e-05
1.8459039e-05
1.8516367e-05
1.8562673e-05
1.8598764e-05
1.8625466e-05
1.8643597e-05
1.8654017e-05
1.8657491e-05
1.8654678e-05
1.8646306e-05
1.8633019e-05
1.8615471e-05
1.8593703e-05
1.85693e-05
1.8540791e-05
1.8499741e-05
1.8478846e-05
1.8401796e-05
1.7530533e-07
2.1588697e-07
3.1857246e-07
4.6495389e-07
6.052561e-07
7.1033765e-07
7.7987484e-07
8.2291957e-07
8.4803149e-07
8.6129238e-07
8.669889e-07
8.6870488e-07
8.6924268e-07
8.7063356e-07
8.7463805e-07
8.8293468e-07
8.9636477e-07
9.1557088e-07
9.416584e-07
9.7588884e-07
1.0156886e-06
1.0618837e-06
1.0571135e-06
1.0563147e-06
1.0671454e-06
1.0882964e-06
1.1197444e-06
1.1617971e-06
1.2149391e-06
1.2798774e-06
1.357582e-06
1.4493826e-06
1.5572055e-06
1.6840782e-06
1.8350731e-06
2.0182212e-06
2.2360233e-06
2.4752433e-06
2.7408582e-06
3.0385451e-06
3.3740951e-06
3.7536203e-06
4.1838649e-06
4.6727177e-06
5.230177e-06
5.8555272e-06
6.5395275e-06
7.2800376e-06
8.0787423e-06
8.9367739e-06
9.853174e-06
1.0823394e-05
1.1837627e-05
1.2882491e-05
1.3946721e-05
1.4998193e-05
1.6006056e-05
1.695506e-05
1.7838686e-05
1.8656304e-05
1.9410173e-05
2.0103396e-05
2.0740633e-05
2.1328113e-05
2.1872481e-05
2.2380192e-05
2.2857354e-05
2.3309128e-05
2.373955e-05
2.4151757e-05
2.4546814e-05
2.4924319e-05
2.5289075e-05
2.5641788e-05
2.5982254e-05
2.6309775e-05
2.6622657e-05
2.6919086e-05
2.7195844e-05
2.7451539e-05
2.7686084e-05
2.7899729e-05
2.8092691e-05
2.826554e-05
2.8419055e-05
2.8554304e-05
2.8672477e-05
2.8774804e-05
2.8862631e-05
2.8937218e-05
2.8999029e-05
2.9049806e-05
2.9090804e-05
2.9123071e-05
2.9147064e-05
2.9164382e-05
2.9175378e-05
2.9165059e-05
2.917505e-05
2.9133422e-05
1.689058e-07
1.7480135e-07
1.962273e-07
2.4159385e-07
3.0836772e-07
3.8394391e-07
4.5673772e-07
5.2097302e-07
5.752311e-07
6.1997975e-07
6.5626898e-07
6.8543451e-07
7.0894814e-07
7.282604e-07
7.4482645e-07
7.6012413e-07
7.7549062e-07
7.9216371e-07
8.1147654e-07
8.349299e-07
8.6348119e-07
8.9848988e-07
9.4054142e-07
9.8989713e-07
1.045062e-06
1.1061848e-06
1.1742174e-06
1.2083796e-06
1.2333214e-06
1.2729601e-06
1.3285826e-06
1.4020791e-06
1.4959157e-06
1.6131062e-06
1.7575829e-06
1.9348426e-06
2.1514425e-06
2.4125175e-06
2.7238954e-06
3.0927752e-06
3.5277692e-06
4.0392951e-06
4.6407627e-06
5.3515992e-06
6.2044487e-06
6.9697552e-06
7.805207e-06
8.7627951e-06
9.8401538e-06
1.1031012e-05
1.2322544e-05
1.3691401e-05
1.510427e-05
1.6564483e-05
1.8074085e-05
1.9178425e-05
2.009605e-05
2.1003981e-05
2.1905186e-05
2.2798542e-05
2.3679041e-05
2.4541699e-05
2.5382862e-05
2.6199965e-05
2.6991481e-05
2.7757932e-05
2.8501115e-05
2.9222648e-05
2.992412e-05
3.0607287e-05
3.1273389e-05
3.1922698e-05
3.2555698e-05
3.3172467e-05
3.3772187e-05
3.4353551e-05
3.4914106e-05
3.545213e-05
3.5964551e-05
3.6448448e-05
3.6902163e-05
3.7325008e-05
3.7716738e-05
3.8077698e-05
3.8408657e-05
3.8710827e-05
3.8985665e-05
3.9234776e-05
3.9460009e-05
3.9663166e-05
3.9845957e-05
4.0010129e-05
4.0157324e-05
4.0289036e-05
4.0406391e-05
4.0510699e-05
4.060509e-05
4.0668499e-05
4.074513e-05
4.0789667e-05
1.6818096e-07
1.6866175e-07
1.7195805e-07
1.8126111e-07
1.9895643e-07
2.2490433e-07
2.5728772e-07
2.93589e-07
3.3182902e-07
3.705491e-07
4.0858618e-07
4.4502808e-07
4.7927234e-07
5.1100058e-07
5.4019088e-07
5.6710513e-07
5.9220007e-07
6.1605814e-07
6.3940523e-07
6.6313063e-07
6.8816115e-07
7.1555812e-07
7.4640044e-07
7.8175676e-07
8.2238733e-07
8.6923488e-07
9.2360926e-07
9.8588514e-07
1.0558973e-06
1.1348381e-06
1.2244124e-06
1.3267648e-06
1.4276352e-06
1.494868e-06
1.5856873e-06
1.7047864e-06
1.8584397e-06
2.0547093e-06
2.3033702e-06
2.6160828e-06
3.0068962e-06
3.4926659e-06
4.0933461e-06
4.8323908e-06
5.7384228e-06
6.7100322e-06
7.7078774e-06
8.8174078e-06
1.0050102e-05
1.1406106e-05
1.2870164e-05
1.4407387e-05
1.5972248e-05
1.7627363e-05
1.9393302e-05
2.0670103e-05
2.1768847e-05
2.2850222e-05
2.3924721e-05
2.5000776e-05
2.6080815e-05
2.7165746e-05
2.8250714e-05
2.933032e-05
3.0401126e-05
3.1461944e-05
3.2511252e-05
3.3546881e-05
3.4568273e-05
3.5575729e-05
3.6568818e-05
3.7546766e-05
3.8508643e-05
3.945316e-05
4.0378034e-05
4.1280812e-05
4.2158043e-05
4.300663e-05
4.3823472e-05
4.4605084e-05
4.534847e-05
4.6051634e-05
4.6713436e-05
4.7333586e-05
4.7912508e-05
4.8451248e-05
4.8951231e-05
4.941419e-05
4.9842308e-05
5.0237804e-05
5.0603091e-05
5.0940348e-05
5.1251657e-05
5.1538918e-05
5.1804048e-05
5.2047887e-05
5.2276548e-05
5.2464978e-05
5.2652366e-05
5.2845099e-05
1.6814553e-07
1.6787292e-07
1.680324e-07
1.6934698e-07
1.7271411e-07
1.7877389e-07
1.8775808e-07
1.9961254e-07
2.1419966e-07
2.3140228e-07
2.5108591e-07
2.7275704e-07
2.9594666e-07
3.2018177e-07
3.4502597e-07
3.7012954e-07
3.952449e-07
4.2022572e-07
4.4505152e-07
4.6984887e-07
4.948729e-07
5.205112e-07
5.4728448e-07
5.7583882e-07
6.0687897e-07
6.4121139e-07
6.7982284e-07
7.2368884e-07
7.7370059e-07
8.3101828e-07
8.9719118e-07
9.7365234e-07
1.0619148e-06
1.1633405e-06
1.2801397e-06
1.4151852e-06
1.5722708e-06
1.7565393e-06
1.9284446e-06
2.1213433e-06
2.3730609e-06
2.7009313e-06
3.1274952e-06
3.6820936e-06
4.4017393e-06
5.3210883e-06
6.297586e-06
7.3655668e-06
8.5759555e-06
9.938034e-06
1.1453452e-05
1.3111459e-05
1.4888205e-05
1.6777221e-05
1.8775192e-05
2.0624614e-05
2.1909455e-05
2.3189936e-05
2.4438446e-05
2.567553e-05
2.6933842e-05
2.8217765e-05
2.9509315e-05
3.081063e-05
3.2127781e-05
3.3456287e-05
3.4790538e-05
3.6127219e-05
3.7465659e-05
3.8803702e-05
4.013752e-05
4.1465031e-05
4.2784392e-05
4.4092199e-05
4.5383361e-05
4.665348e-05
4.7897267e-05
4.9109487e-05
5.028606e-05
5.1422849e-05
5.2515674e-05
5.3561216e-05
5.4557128e-05
5.5501997e-05
5.6395496e-05
5.7238094e-05
5.8030725e-05
5.8774865e-05
5.9472716e-05
6.0126635e-05
6.0739319e-05
6.1313365e-05
6.1851221e-05
6.2355101e-05
6.28277e-05
6.3269302e-05
6.3688677e-05
6.4059283e-05
6.4409099e-05
6.4820104e-05
1.6818983e-07
1.6781414e-07
1.6749276e-07
1.6735572e-07
1.6761841e-07
1.6851654e-07
1.702469e-07
1.729637e-07
1.7680645e-07
1.8191541e-07
1.8842176e-07
1.964043e-07
2.0589488e-07
2.1687611e-07
2.2936191e-07
2.4330346e-07
2.5853055e-07
2.748841e-07
2.9223612e-07
3.1049766e-07
3.2962798e-07
3.4964713e-07
3.7064801e-07
3.928097e-07
4.1639576e-07
4.4176353e-07
4.6939255e-07
4.9987395e-07
5.3389093e-07
5.7226444e-07
6.1602251e-07
6.663577e-07
7.246535e-07
7.9248231e-07
8.7180008e-07
9.6457195e-07
1.0735313e-06
1.2022672e-06
1.3545592e-06
1.5353123e-06
1.751525e-06
2.0125606e-06
2.3306314e-06
2.7213824e-06
3.186463e-06
3.76603e-06
4.5194179e-06
5.377272e-06
6.3844766e-06
7.5555215e-06
8.902779e-06
1.0432492e-05
1.2141067e-05
1.4023186e-05
1.6074445e-05
1.8245966e-05
2.0452652e-05
2.2483575e-05
2.3873485e-05
2.5255565e-05
2.6660285e-05
2.8074684e-05
2.9489144e-05
3.0935679e-05
3.2434944e-05
3.3955877e-05
3.5498351e-05
3.7071844e-05
3.867273e-05
4.0293664e-05
4.1930206e-05
4.3582247e-05
4.5245147e-05
4.6912377e-05
4.8575148e-05
5.02263e-05
5.1857292e-05
5.3460551e-05
5.5030319e-05
5.656069e-05
5.8045946e-05
5.9481458e-05
6.0863233e-05
6.2188144e-05
6.3454614e-05
6.4661967e-05
6.5810016e-05
6.6899452e-05
6.793194e-05
6.890951e-05
6.98347e-05
7.0710194e-05
7.15386e-05
7.2322262e-05
7.3064507e-05
7.3765005e-05
7.4434577e-05
7.5047291e-05
7.5616194e-05
7.6319482e-05
1.6824336e-07
1.6785077e-07
1.6745959e-07
1.6708843e-07
1.6677827e-07
1.6658709e-07
1.6657967e-07
1.6682338e-07
1.6739134e-07
1.6836552e-07
1.6983543e-07
1.718919e-07
1.7462289e-07
1.7810874e-07
1.8242566e-07
1.8764072e-07
1.9380161e-07
2.0093904e-07
2.0907167e-07
2.1821224e-07
2.2840072e-07
2.3972148e-07
2.5219304e-07
2.6582216e-07
2.8066027e-07
2.9681389e-07
3.1445333e-07
3.3382666e-07
3.5526649e-07
3.7919662e-07
4.0615834e-07
4.3682745e-07
4.7204059e-07
5.1282304e-07
5.6045189e-07
6.1643296e-07
6.8265122e-07
7.6153056e-07
8.5601486e-07
9.6945404e-07
1.1064386e-06
1.2730116e-06
1.4771346e-06
1.729252e-06
2.0425878e-06
2.4336335e-06
2.9205872e-06
3.519395e-06
4.2473947e-06
5.12313e-06
6.1657696e-06
7.3933526e-06
8.8199382e-06
1.0455643e-05
1.2307833e-05
1.4363636e-05
1.6578888e-05
1.8899786e-05
2.1256392e-05
2.3633998e-05
2.5606038e-05
2.7113843e-05
2.8631181e-05
3.0183802e-05
3.1769951e-05
3.337268e-05
3.501924e-05
3.6742368e-05
3.8508869e-05
4.0313622e-05
4.2168307e-05
4.4074368e-05
4.6017699e-05
4.7988506e-05
4.9979022e-05
5.197831e-05
5.3973859e-05
5.5957273e-05
5.7920144e-05
5.9852912e-05
6.1748059e-05
6.3599091e-05
6.5399272e-05
6.714315e-05
6.8827153e-05
7.0448522e-05
7.2005258e-05
7.3496501e-05
7.4922502e-05
7.6284251e-05
7.7583534e-05
7.8822547e-05
8.0003725e-05
8.1129182e-05
8.2202607e-05
8.3222962e-05
8.4202429e-05
8.511704e-05
8.5963721e-05
8.7033204e-05
1.6834506e-07
1.6795292e-07
1.6755447e-07
1.6715109e-07
1.6674925e-07
1.6636042e-07
1.6600044e-07
1.6568896e-07
1.6544982e-07
1.653119e-07
1.6530953e-07
1.6548212e-07
1.6587369e-07
1.6653189e-07
1.675075e-07
1.688538e-07
1.7062485e-07
1.7287392e-07
1.7565275e-07
1.7901167e-07
1.8300209e-07
1.8768022e-07
1.9310083e-07
1.9931763e-07
2.063883e-07
2.1438002e-07
2.2338202e-07
2.3355545e-07
2.4510354e-07
2.5818834e-07
2.7300775e-07
2.8984837e-07
3.09102e-07
3.3128459e-07
3.570695e-07
3.8730109e-07
4.2304035e-07
4.6564962e-07
5.1686754e-07
5.7885417e-07
6.5441109e-07
7.4723284e-07
8.6218604e-07
1.0056137e-06
1.1860287e-06
1.4145898e-06
1.7051967e-06
2.0735193e-06
2.5370949e-06
3.115223e-06
3.828789e-06
4.6997787e-06
5.7502166e-06
7.001388e-06
8.4736867e-06
1.0180119e-05
1.2116053e-05
1.4259209e-05
1.6565505e-05
1.8999913e-05
2.1510294e-05
2.4053936e-05
2.6628392e-05
2.8806729e-05
3.0461298e-05
3.2134621e-05
3.3856332e-05
3.5628817e-05
3.7436242e-05
3.9303314e-05
4.1271737e-05
4.3314581e-05
4.5416846e-05
4.7585587e-05
4.980964e-05
5.207147e-05
5.4360861e-05
5.6670136e-05
5.8984684e-05
6.1291055e-05
6.3580802e-05
6.5843318e-05
6.8067818e-05
7.0246447e-05
7.2372473e-05
7.4439669e-05
7.6443372e-05
7.8380132e-05
8.0247727e-05
8.2045222e-05
8.3772829e-05
8.543146e-05
8.7022735e-05
8.8548029e-05
9.001097e-05
9.1409565e-05
9.275667e-05
9.4030836e-05
9.5213914e-05
9.6720215e-05
1.6852019e-07
1.681711e-07
1.6780849e-07
1.6743191e-07
1.6704274e-07
1.6664368e-07
1.662388e-07
1.6583353e-07
1.6543467e-07
1.6505072e-07
1.6469223e-07
1.6437208e-07
1.6410583e-07
1.6391183e-07
1.6381138e-07
1.6382874e-07
1.6399113e-07
1.6432844e-07
1.64873e-07
1.6565947e-07
1.6672478e-07
1.6810848e-07
1.6985254e-07
1.7200138e-07
1.7460211e-07
1.7770534e-07
1.8136784e-07
1.8565943e-07
1.9066589e-07
1.9648423e-07
2.0322809e-07
2.1103758e-07
2.2009123e-07
2.3066268e-07
2.4313079e-07
2.5784651e-07
2.7524012e-07
2.9591486e-07
3.2068861e-07
3.5064468e-07
3.872052e-07
4.3225158e-07
4.8829676e-07
5.5871547e-07
6.4812292e-07
7.6286243e-07
9.1146532e-07
1.1048993e-06
1.357033e-06
1.684748e-06
2.1078943e-06
2.648914e-06
3.3320724e-06
4.1824981e-06
5.2256507e-06
6.485433e-06
7.9794589e-06
9.7150474e-06
1.1683821e-05
1.3869467e-05
1.6240949e-05
1.8759904e-05
2.140079e-05
2.4120568e-05
2.688003e-05
2.9682746e-05
3.2159684e-05
3.3990388e-05
3.5844188e-05
3.7759752e-05
3.9741628e-05
4.1770923e-05
4.3879993e-05
4.6122481e-05
4.8443501e-05
5.0833786e-05
5.330655e-05
5.58425e-05
5.84188e-05
6.1026268e-05
6.3654277e-05
6.6283804e-05
6.8901793e-05
7.1498139e-05
7.4060627e-05
7.6578757e-05
7.9044331e-05
8.1449889e-05
8.3789684e-05
8.605986e-05
8.8257873e-05
9.0382266e-05
9.2432861e-05
9.4409492e-05
9.6314989e-05
9.8145886e-05
9.991494e-05
0.00010160305
0.00010318001
0.00010518833
1.6867634e-07
1.6839176e-07
1.6809268e-07
1.6777763e-07
1.6744653e-07
1.6710003e-07
1.6673945e-07
1.6636657e-07
1.6598347e-07
1.655925e-07
1.6519648e-07
1.6479891e-07
1.6440422e-07
1.6401803e-07
1.6364731e-07
1.6330057e-07
1.6298805e-07
1.6272181e-07
1.6251589e-07
1.6238636e-07
1.6235144e-07
1.6243158e-07
1.6264956e-07
1.6303065e-07
1.6360261e-07
1.6439593e-07
1.6544432e-07
1.6678586e-07
1.6846419e-07
1.7052926e-07
1.7303899e-07
1.7606175e-07
1.7967953e-07
1.8399736e-07
1.8915304e-07
1.9531256e-07
2.0267862e-07
2.1150977e-07
2.2215934e-07
2.351827e-07
2.5119063e-07
2.7089444e-07
2.9531599e-07
3.2589665e-07
3.6466621e-07
4.1447963e-07
4.7934479e-07
5.6484187e-07
6.7870257e-07
8.3147006e-07
1.0371745e-06
1.313901e-06
1.684187e-06
2.1745575e-06
2.8143287e-06
3.6334822e-06
4.6593724e-06
5.9131815e-06
7.4068456e-06
9.1446973e-06
1.1121716e-05
1.3323646e-05
1.5734322e-05
1.8326474e-05
2.1065286e-05
2.3930569e-05
2.6888043e-05
2.989497e-05
3.2959729e-05
3.5739392e-05
3.777158e-05
3.9820221e-05
4.1938184e-05
4.4135264e-05
4.6392035e-05
4.8759776e-05
5.1283162e-05
5.3893489e-05
5.6589534e-05
5.9381196e-05
6.2238849e-05
6.5138617e-05
6.8073462e-05
7.1026456e-05
7.3977587e-05
7.6914073e-05
7.9822229e-05
8.2689329e-05
8.5505547e-05
8.8262787e-05
9.0954215e-05
9.3574676e-05
9.6120883e-05
9.8589903e-05
0.00010098262
0.0001032932
0.0001055333
0.00010768534
0.00010971155
0.00011227972
1.6876851e-07
1.6852889e-07
1.6827894e-07
1.6801688e-07
1.6774179e-07
1.6745328e-07
1.6715153e-07
1.6683707e-07
1.6651057e-07
1.6617266e-07
1.6582395e-07
1.6546511e-07
1.6509701e-07
1.6472082e-07
1.6433817e-07
1.6395124e-07
1.6356288e-07
1.6317673e-07
1.6279736e-07
1.6243035e-07
1.620825e-07
1.6176189e-07
1.6147805e-07
1.6124209e-07
1.6106686e-07
1.6096703e-07
1.6095938e-07
1.61063e-07
1.6129971e-07
1.6169444e-07
1.6227588e-07
1.6307723e-07
1.6413724e-07
1.6550213e-07
1.6722854e-07
1.6938577e-07
1.7205871e-07
1.7535285e-07
1.7940352e-07
1.8439591e-07
1.9056692e-07
1.9821513e-07
2.077359e-07
2.1968717e-07
2.3495988e-07
2.5459437e-07
2.8000782e-07
3.1333615e-07
3.5773389e-07
4.1780073e-07
5.0016963e-07
6.1433501e-07
7.7375026e-07
9.9701686e-07
1.3088223e-06
1.7399608e-06
2.3257056e-06
3.1011756e-06
4.0951447e-06
5.3263854e-06
6.8033818e-06
8.5267446e-06
1.0494523e-05
1.2700239e-05
1.513051e-05
1.7771784e-05
2.0601689e-05
2.3586096e-05
2.6707892e-05
2.9937755e-05
3.3229363e-05
3.6594052e-05
3.960201e-05
4.1822727e-05
4.4078279e-05
4.6420482e-05
4.8851745e-05
5.1350677e-05
5.4011653e-05
5.6838339e-05
5.9755284e-05
6.2778316e-05
6.5906056e-05
6.9099801e-05
7.2339603e-05
7.561463e-05
7.8900013e-05
8.217974e-05
8.5439696e-05
8.8665375e-05
9.1844465e-05
9.4966654e-05
9.8024122e-05
0.00010100949
0.00010392023
0.00010674689
0.00010949855
0.00011215792
0.00011468433
0.00011786021
1.688148e-07
1.6859851e-07
1.6837561e-07
1.6814465e-07
1.6790468e-07
1.6765501e-07
1.6739535e-07
1.6712576e-07
1.6684643e-07
1.6655754e-07
1.6625917e-07
1.6595132e-07
1.6563393e-07
1.6530699e-07
1.6497058e-07
1.6462488e-07
1.6427029e-07
1.6390742e-07
1.6353722e-07
1.6316098e-07
1.6278046e-07
1.6239797e-07
1.6201645e-07
1.6163956e-07
1.6127183e-07
1.6091874e-07
1.6058689e-07
1.6028409e-07
1.6001959e-07
1.5980427e-07
1.5965085e-07
1.5957428e-07
1.5959204e-07
1.5972473e-07
1.5999686e-07
1.6043789e-07
1.6108335e-07
1.6197648e-07
1.6317077e-07
1.6473446e-07
1.6675475e-07
1.6934282e-07
1.7264318e-07
1.7684919e-07
1.8223632e-07
1.8917431e-07
1.9816869e-07
2.0994394e-07
2.2567633e-07
2.470433e-07
2.7628994e-07
3.1693135e-07
3.7437369e-07
4.5681936e-07
5.7653316e-07
7.5149086e-07
1.0071003e-06
1.3768591e-06
1.9003009e-06
2.6173913e-06
3.5610479e-06
4.7509653e-06
6.1945605e-06
7.8918078e-06
9.8397898e-06
1.2037006e-05
1.4479926e-05
1.7156941e-05
2.0056314e-05
2.3158247e-05
2.6427537e-05
2.9848354e-05
3.3387788e-05
3.6999778e-05
4.0697965e-05
4.379104e-05
4.6220253e-05
4.8701606e-05
5.1290053e-05
5.3970702e-05
5.673968e-05
5.9726814e-05
6.2875635e-05
6.6132577e-05
6.9509576e-05
7.2988821e-05
7.6529793e-05
8.0122736e-05
8.3746341e-05
8.7376968e-05
9.0997766e-05
9.4591268e-05
9.814427e-05
0.00010164288
0.0001050799
0.0001084406
0.00011172963
0.00011492866
0.0001179962
0.00012181342
1.6883651e-07
1.68631e-07
1.6842092e-07
1.6820532e-07
1.6798346e-07
1.6775472e-07
1.6751875e-07
1.6727548e-07
1.6702498e-07
1.6676732e-07
1.6650253e-07
1.6623051e-07
1.6595112e-07
1.6566415e-07
1.653694e-07
1.6506664e-07
1.6475568e-07
1.6443637e-07
1.6410862e-07
1.6377242e-07
1.6342791e-07
1.6307537e-07
1.6271528e-07
1.6234838e-07
1.6197573e-07
1.6159875e-07
1.6121933e-07
1.6083985e-07
1.6046337e-07
1.6009365e-07
1.5973533e-07
1.5939402e-07
1.5907655e-07
1.5879111e-07
1.5854758e-07
1.5835786e-07
1.582363e-07
1.582003e-07
1.5827105e-07
1.5847477e-07
1.588442e-07
1.5942048e-07
1.6025602e-07
1.6141878e-07
1.629997e-07
1.6512134e-07
1.6795096e-07
1.717225e-07
1.7678455e-07
1.8365145e-07
1.9306598e-07
2.0615361e-07
2.2478499e-07
2.5179788e-07
2.9137577e-07
3.5032097e-07
4.3942877e-07
5.752834e-07
7.8219206e-07
1.0934319e-06
1.5502482e-06
2.1969765e-06
3.0723919e-06
4.2021673e-06
5.5965239e-06
7.2558418e-06
9.1781827e-06
1.1362308e-05
1.3809749e-05
1.6519964e-05
1.9481713e-05
2.268329e-05
2.6102252e-05
2.9701239e-05
3.346522e-05
3.7346677e-05
4.1312722e-05
4.5377476e-05
4.8390512e-05
5.1037919e-05
5.3766022e-05
5.6617476e-05
5.9557999e-05
6.2671223e-05
6.6004883e-05
6.9490483e-05
7.3110628e-05
7.6863557e-05
8.0714009e-05
8.4630652e-05
8.8596127e-05
9.2582143e-05
9.6571148e-05
0.00010054053
0.00010447813
0.00010836181
0.00011218983
0.00011594195
0.00011957106
0.00012404263
1.6884602e-07
1.6864512e-07
1.6844066e-07
1.6823201e-07
1.6801863e-07
1.6780007e-07
1.6757602e-07
1.673464e-07
1.6711126e-07
1.6687068e-07
1.666247e-07
1.6637329e-07
1.6611637e-07
1.658538e-07
1.655854e-07
1.6531099e-07
1.6503035e-07
1.6474325e-07
1.6444945e-07
1.6414874e-07
1.638409e-07
1.6352572e-07
1.6320306e-07
1.6287282e-07
1.6253497e-07
1.621896e-07
1.6183693e-07
1.6147735e-07
1.6111145e-07
1.6074011e-07
1.6036453e-07
1.5998629e-07
1.5960745e-07
1.5923064e-07
1.5885918e-07
1.5849721e-07
1.5814985e-07
1.5782344e-07
1.575258e-07
1.572666e-07
1.5705784e-07
1.5691449e-07
1.5685536e-07
1.5690442e-07
1.5709265e-07
1.5746087e-07
1.5806376e-07
1.5897614e-07
1.603043e-07
1.6220248e-07
1.6489616e-07
1.6872314e-07
1.7421624e-07
1.822121e-07
1.9401462e-07
2.1173579e-07
2.3910615e-07
2.8172613e-07
3.4869496e-07
4.5452881e-07
6.2119932e-07
8.7987461e-07
1.2710453e-06
1.8413974e-06
2.6364038e-06
3.6905052e-06
5.0215492e-06
6.6332866e-06
8.5240302e-06
1.0694318e-05
1.3146554e-05
1.5885203e-05
1.8909793e-05
2.220683e-05
2.5763029e-05
2.9546519e-05
3.3520893e-05
3.7672239e-05
4.1927069e-05
4.6279831e-05
5.0562483e-05
5.3456752e-05
5.6336344e-05
5.9335558e-05
6.2458705e-05
6.568829e-05
6.9198157e-05
7.2903809e-05
7.678173e-05
8.0806514e-05
8.4959802e-05
8.9200881e-05
9.3510463e-05
9.785689e-05
0.00010222307
0.00010657708
0.00011090958
0.00011519764
0.00011937459
0.0001244835
1.6884958e-07
1.6865045e-07
1.6844821e-07
1.6824245e-07
1.680328e-07
1.6781891e-07
1.6760053e-07
1.673776e-07
1.6715017e-07
1.6691831e-07
1.666821e-07
1.6644155e-07
1.6619665e-07
1.6594734e-07
1.6569354e-07
1.6543512e-07
1.6517197e-07
1.6490394e-07
1.6463087e-07
1.6435257e-07
1.6406885e-07
1.6377953e-07
1.6348438e-07
1.631832e-07
1.6287578e-07
1.6256192e-07
1.6224145e-07
1.6191422e-07
1.6158015e-07
1.6123919e-07
1.6089141e-07
1.6053699e-07
1.6017627e-07
1.5980975e-07
1.5943822e-07
1.5906271e-07
1.5868465e-07
1.5830592e-07
1.5792894e-07
1.5755681e-07
1.5719349e-07
1.5684397e-07
1.5651462e-07
1.5621351e-07
1.5595098e-07
1.5574046e-07
1.5559964e-07
1.5555228e-07
1.5563111e-07
1.5588244e-07
1.5637319e-07
1.5720217e-07
1.5852068e-07
1.6056514e-07
1.6370903e-07
1.6855676e-07
1.7613722e-07
1.8813295e-07
2.0734022e-07
2.3864764e-07
2.897428e-07
3.7283766e-07
5.07011e-07
7.2025954e-07
1.0508052e-06
1.5457132e-06
2.2554331e-06
3.2243189e-06
4.480936e-06
6.0367321e-06
7.8923617e-06
1.0047755e-05
1.2507542e-05
1.5277249e-05
1.8362788e-05
2.1759157e-05
2.5449019e-05
2.94165e-05
3.3612992e-05
3.8007626e-05
4.2578094e-05
4.7236744e-05
5.2007058e-05
5.5899438e-05
5.9010914e-05
6.21615e-05
6.5467162e-05
6.8876799e-05
7.2532467e-05
7.6444838e-05
8.0562162e-05
8.4860568e-05
8.9309208e-05
9.3880099e-05
9.8544651e-05
0.00010326272
0.00010801666
0.00011277787
0.00011744829
0.00012312897
1.6885029e-07
1.6865163e-07
1.6845006e-07
1.6824532e-07
1.6803714e-07
1.6782526e-07
1.6760947e-07
1.6738973e-07
1.6716606e-07
1.6693855e-07
1.6670727e-07
1.6647225e-07
1.6623353e-07
1.659911e-07
1.6574493e-07
1.6549497e-07
1.6524117e-07
1.6498346e-07
1.6472175e-07
1.6445595e-07
1.6418595e-07
1.6391162e-07
1.6363284e-07
1.6334946e-07
1.6306131e-07
1.6276824e-07
1.6247006e-07
1.6216659e-07
1.6185765e-07
1.6154305e-07
1.6122261e-07
1.6089618e-07
1.6056364e-07
1.602249e-07
1.5987993e-07
1.595288e-07
1.5917167e-07
1.5880886e-07
1.5844085e-07
1.5806835e-07
1.5769237e-07
1.5731426e-07
1.5693584e-07
1.5655949e-07
1.5618833e-07
1.5582646e-07
1.5547928e-07
1.5515401e-07
1.5486047e-07
1.5461231e-07
1.5442896e-07
1.5433874e-07
1.5438413e-07
1.5463061e-07
1.5518121e-07
1.5620194e-07
1.5797007e-07
1.6094953e-07
1.6592249e-07
1.7424583e-07
1.8820396e-07
2.1161172e-07
2.5106667e-07
3.1679515e-07
4.2496782e-07
6.0015705e-07
8.7732986e-07
1.3023384e-06
1.928604e-06
2.8089353e-06
3.9847895e-06
5.4779887e-06
7.2951959e-06
9.4366857e-06
1.1906581e-05
1.4713253e-05
1.7863719e-05
2.1363022e-05
2.5195656e-05
2.9339082e-05
3.3769069e-05
3.8422942e-05
4.3279296e-05
4.8272571e-05
5.3370775e-05
5.8446569e-05
6.1814177e-05
6.5160877e-05
6.8618864e-05
7.2220654e-05
7.601704e-05
8.0137996e-05
8.4473935e-05
8.9058692e-05
9.3821731e-05
9.8735308e-05
0.00010376515
0.00010887739
0.00011395027
0.00012006126
1.6884969e-07
1.6865093e-07
1.6844936e-07
1.6824479e-07
1.6803704e-07
1.6782589e-07
1.676112e-07
1.6739292e-07
1.6717106e-07
1.6694568e-07
1.6671686e-07
1.6648465e-07
1.6624908e-07
1.6601017e-07
1.6576793e-07
1.6552235e-07
1.6527341e-07
1.650211e-07
1.6476538e-07
1.6450621e-07
1.6424355e-07
1.6397734e-07
1.6370751e-07
1.6343399e-07
1.631567e-07
1.6287554e-07
1.6259042e-07
1.623012e-07
1.6200776e-07
1.6170997e-07
1.6140768e-07
1.6110073e-07
1.6078897e-07
1.6047222e-07
1.6015033e-07
1.5982315e-07
1.5949055e-07
1.5915242e-07
1.5880869e-07
1.5845937e-07
1.5810453e-07
1.5774435e-07
1.5737913e-07
1.5700937e-07
1.5663578e-07
1.5625935e-07
1.5588147e-07
1.5550406e-07
1.5512976e-07
1.5476227e-07
1.544069e-07
1.5407133e-07
1.5376703e-07
1.5351155e-07
1.5333231e-07
1.5327335e-07
1.5340741e-07
1.5385666e-07
1.5482855e-07
1.5668275e-07
1.6004121e-07
1.6597243e-07
1.7633912e-07
1.9426288e-07
2.2494929e-07
2.772679e-07
3.6475952e-07
5.0868309e-07
7.40501e-07
1.1036509e-06
1.6526729e-06
2.4469004e-06
3.5396137e-06
4.9666396e-06
6.7429713e-06
8.8722409e-06
1.1357037e-05
1.4207316e-05
1.7432599e-05
2.1037983e-05
2.5021837e-05
2.9355109e-05
3.4010999e-05
3.893789e-05
4.4088558e-05
4.9438083e-05
5.4879567e-05
6.0444591e-05
6.4712029e-05
6.8296006e-05
7.193575e-05
7.5736427e-05
7.9677616e-05
8.4011908e-05
8.8600884e-05