/*--------------------------------*- C++ -*----------------------------------*\
| =========                 |                                                 |
| \\      /  F ield         | OpenFOAM: The Open Source CFD Toolbox           |
|  \\    /   O peration     | Version:  2206                                  |
|   \\  /    A nd           | Website:  www.openfoam.com                      |
|    \\/     M anipulation  |                                                 |
\*---------------------------------------------------------------------------*/
FoamFile
{
    version     2.0;
    format      ascii;
    arch        "LSB;label=32;scalar=64";
    class       volScalarField;
    location    "1500";
    object      omega;
}
// * * * * * * * * * * * * * * * * * * * * * * * * * * * * * * * * * * * * * //

dimensions      [0 0 -1 0 0 0 0];

internalField   nonuniform List<scalar> 
7480
(
7569.0992
7590.8066
7571.1034
7538.1484
7512.5598
7498.0733
7491.1163
7487.7269
7485.8478
7484.6241
7483.6788
7482.868
7482.1615
7481.5503
7481.0203
7480.5582
7480.1548
7479.8006
7479.4855
7479.203
7478.9494
7478.7204
7478.5122
7478.3224
7478.1491
7477.9901
7477.8436
7477.7084
7477.5836
7477.4682
7477.3612
7477.262
7477.1701
7477.0848
7477.0057
7476.9325
7476.8648
7476.8023
7476.7449
7476.6924
7476.6447
7476.6018
7476.5636
7476.5302
7476.5016
7476.4782
7476.4602
7476.4479
7476.4414
7476.4405
7476.445
7476.4547
7476.469
7476.4871
7476.508
7476.5311
7476.555
7476.5777
7476.5972
7476.612
7476.6218
7476.627
7476.6278
7476.6249
7476.6192
7476.6113
7476.6019
7476.5915
7476.5805
7476.5691
7476.5576
7476.546
7476.5345
7476.5232
7476.512
7476.5009
7476.4901
7476.4789
7476.4676
7476.4561
7476.4446
7476.433
7476.4214
7476.4098
7476.398
7476.3861
7476.3742
7476.3622
7476.3501
7476.3381
7476.326
7476.3139
7476.3019
7476.2898
7476.2778
7476.2653
7476.2544
7476.2387
7476.2298
7476.2059
1003.2508
1574.4064
1842.4927
1920.7598
1936.9999
1923.8297
1863.1341
1797.7951
1744.1712
1703.9837
1673.3408
1647.6818
1624.462
1603.0512
1583.2542
1564.8666
1547.8218
1532.2012
1517.8438
1504.5369
1492.1857
1480.7668
1470.1731
1460.2915
1451.0765
1442.5012
1434.4942
1426.9868
1419.948
1413.354
1407.1629
1401.339
1395.8661
1390.7277
1385.8996
1381.3634
1377.11
1373.1278
1369.4032
1365.9283
1362.7011
1359.7194
1356.98
1354.4864
1352.2313
1350.2274
1348.4686
1346.9624
1345.7209
1344.7368
1344.0309
1343.6361
1343.4477
1343.433
1343.5544
1343.7737
1344.0482
1344.3176
1344.525
1344.6209
1344.5793
1344.3984
1344.1237
1343.7468
1343.2669
1342.7072
1342.0892
1341.4335
1340.756
1340.0683
1339.3793
1338.6959
1338.0216
1337.3597
1336.7127
1336.0803
1335.4654
1334.8588
1334.256
1333.6583
1333.0659
1332.4786
1331.8961
1331.3156
1330.7369
1330.1589
1329.5816
1329.0049
1328.4292
1327.855
1327.2823
1326.7119
1326.1441
1325.5778
1325.0177
1324.4461
1323.9008
1323.3391
1322.6626
1322.0506
190.66632
396.63084
585.95475
709.19343
769.23787
785.35389
782.05095
789.17215
803.64818
812.81645
819.30237
823.5213
825.02101
824.12435
821.39604
817.37529
811.91236
805.25757
797.66918
789.36618
780.56048
771.45629
762.19733
752.88757
743.63181
734.52458
725.58187
716.80387
708.20671
699.81395
691.64001
683.69482
675.9919
668.54371
661.35753
654.44125
647.8045
641.44745
635.36737
629.56488
624.04594
618.81836
613.88958
609.27144
604.96822
600.98257
597.32483
593.9645
590.89337
588.10323
585.63086
583.47989
581.54539
579.79321
578.19835
576.70759
575.25918
573.81154
572.35627
570.89244
569.41397
567.90767
566.45615
565.01102
563.55466
562.08979
560.62254
559.16178
557.7158
556.29152
554.8944
553.52888
552.19812
550.90417
549.64886
548.43134
547.25238
546.13429
545.06043
544.01798
543.00032
542.00426
541.02793
540.06774
539.12177
538.1877
537.26426
536.3505
535.44553
534.54937
533.66123
532.78122
531.90944
531.04423
530.18969
529.32896
528.49584
527.65795
526.73754
525.65179
72.002239
121.36453
193.99563
267.72307
324.62292
359.72831
377.79431
386.76968
392.44166
397.55903
404.50962
415.21888
426.20202
437.92775
452.27735
470.54809
485.13605
496.52518
505.29307
511.85018
516.5205
519.59563
521.3347
522.00716
521.9288
521.34583
519.98726
517.80128
514.87595
511.33547
507.29901
502.87038
498.1404
493.18948
488.09224
482.92302
477.72937
472.49433
467.21752
461.91607
456.61614
451.34541
446.12932
440.99253
435.96415
431.02873
426.18132
421.38205
416.61615
411.89398
407.2383
402.74802
398.324
393.9781
389.74573
385.58191
381.45145
377.39831
373.50925
369.85391
366.45094
363.31668
360.486
357.88391
355.46096
353.18172
351.01922
348.95468
346.97525
345.07217
343.23935
341.47325
339.77176
338.13251
336.55394
335.03345
333.5702
332.18945
330.88332
329.63628
328.43817
327.28352
326.16953
325.09239
324.04923
323.03677
322.05227
321.09338
320.1577
319.24372
318.34952
317.4739
316.61567
315.77289
314.94685
314.128
313.3262
312.57385
311.71889
310.76146
55.641125
64.531986
83.911051
111.35044
140.42323
165.52934
184.5828
198.13233
207.74391
214.79098
220.42353
225.66631
230.96275
236.83482
244.10243
253.55119
263.34887
273.15249
282.74809
292.00533
300.83084
309.30501
317.72141
326.71346
337.34596
349.83296
359.68971
366.91908
372.19913
375.97997
378.5678
380.18373
381.00613
381.20263
380.96414
380.50207
379.79456
378.44939
376.46268
373.91925
370.91433
367.53047
363.8357
359.89139
355.77106
351.47005
346.93527
342.13832
337.10436
331.87983
326.51402
321.06723
315.61273
310.16008
304.74536
299.32297
293.9185
288.65457
283.6506
278.98647
274.72515
270.88059
267.41237
264.26399
261.38186
258.71946
256.23729
253.90429
251.69682
249.59711
247.59236
245.67453
243.83639
242.07211
240.37767
238.74925
237.18579
235.69015
234.26516
232.90676
231.60921
230.36805
229.18064
228.04366
226.95423
225.90895
224.90459
223.9381
223.00629
222.10666
221.23681
220.39451
219.57754
218.78365
218.01229
217.25842
216.5187
215.8502
215.10016
214.28398
53.508981
54.43667
58.087894
65.265653
75.159294
86.04305
96.43561
105.64376
113.54469
120.26499
125.97106
130.87752
135.18913
139.11803
142.94701
147.0151
151.42343
156.27415
161.71333
167.82155
174.15992
180.727
187.52846
194.61644
202.10308
210.07178
218.05335
225.69016
232.80807
239.34613
245.31791
250.80294
255.97212
261.15546
266.96293
274.11501
281.52824
286.09886
288.74545
290.07519
290.44223
290.06378
289.09266
287.67499
285.99072
284.18909
281.82472
278.80221
275.22289
271.1949
266.81846
262.19176
257.41515
252.52009
247.55891
242.60389
237.70971
232.95962
228.43368
224.18393
220.23122
216.58219
213.21976
210.11579
207.2404
204.56327
202.05532
199.69246
197.45453
195.32501
193.29135
191.34532
189.47949
187.68793
185.96641
184.31103
182.72087
181.19085
179.72243
178.31721
176.97425
175.69161
174.46763
173.29988
172.18592
171.12278
170.10736
169.13655
168.20701
167.31584
166.46026
165.63764
164.84541
164.08112
163.34334
162.62893
161.93084
161.30212
160.63018
159.89086
53.22352
52.807982
52.958454
54.08478
56.273197
59.364013
62.974035
66.790565
70.619706
74.358609
77.937065
81.30899
84.452619
87.365908
90.079773
92.662882
95.185434
97.71799
100.34468
103.15619
106.19553
109.5308
113.24493
117.38888
121.86675
126.7279
131.94272
137.42725
143.08474
148.83129
154.59438
160.31689
165.96763
171.55658
177.13931
182.82182
188.5252
193.80011
198.43432
202.38282
205.68212
208.41969
210.74733
212.94423
215.47467
218.47337
219.85076
219.66874
218.48796
216.62195
214.29108
211.6951
209.00166
205.9737
202.55581
199.05185
195.61495
192.29171
189.04162
185.8742
182.81635
179.88177
177.07145
174.38764
171.83068
169.39337
167.06611
164.84208
162.71197
160.66682
158.69957
156.80543
154.9805
153.22206
151.5277
149.89451
148.32218
146.80654
145.34633
143.94321
142.59834
141.31176
140.08304
138.91074
137.79302
136.72759
135.71189
134.74316
133.81822
132.93426
132.08831
131.27777
130.50013
129.75297
129.03457
128.34242
127.66996
127.05759
126.43527
125.73479
53.16138
52.541747
52.020053
51.712021
51.711471
52.046489
52.632742
53.455144
54.479798
55.6693
56.983944
58.385784
59.839548
61.312326
62.778781
64.226319
65.652841
67.063421
68.472476
69.90409
71.384287
72.944371
74.624401
76.470024
78.517772
80.819254
83.431348
86.357967
89.553708
93.016759
96.736776
100.69412
104.86577
109.23216
113.78431
118.52282
123.42777
128.4066
133.35526
138.17743
142.79234
147.13804
151.1713
154.87622
158.27494
161.33394
163.87745
165.76506
166.99749
167.66798
167.92911
167.98095
167.97479
167.2426
165.73083
163.88263
162.05569
160.27545
158.31987
156.29122
154.25187
152.20121
150.13483
148.07472
146.03771
144.02754
142.05055
140.11894
138.23112
136.38766
134.59019
132.83999
131.13773
129.48639
127.88662
126.33689
124.83853
123.38991
121.98908
120.6369
119.33496
118.08445
116.88595
115.73905
114.64261
113.59527
112.5954
111.64089
110.72901
109.8574
109.02347
108.22483
107.45939
106.7249
106.01973
105.34166
104.68592
104.08041
103.48818
102.80767
53.125015
52.474726
51.838262
51.239943
50.710133
50.27166
49.92874
49.683691
49.538644
49.482788
49.493918
49.598572
49.796629
50.0781
50.429426
50.837508
51.29211
51.785058
52.311092
52.868871
53.460205
54.089782
54.766354
55.503265
56.316715
57.22757
58.262423
59.447158
60.803261
62.356577
64.137191
66.14782
68.385674
70.857093
73.573507
76.543791
79.774312
83.257755
86.971495
90.884785
94.961751
99.161962
103.44142
107.75406
112.05982
116.25944
120.2082
123.79429
126.92934
129.5571
131.65083
133.21282
134.27386
134.88063
135.0407
134.79214
134.37357
133.84464
132.99482
132.01198
130.99152
129.84607
128.54654
127.1643
125.72505
124.22817
122.69595
121.14713
119.58849
118.02946
116.47937
114.94575
113.43379
111.9559
110.51425
109.10695
107.73866
106.40897
105.11579
103.86036
102.64433
101.4692
100.33618
99.245776
98.197326
97.190861
96.225938
95.30131
94.414741
93.564763
92.749526
91.967124
91.216221
90.494884
89.801835
89.135214
88.492172
87.89083
87.317125
86.648181
53.094985
52.438167
51.782116
51.130694
50.490734
49.86958
49.272748
48.704888
48.17078
47.674191
47.216676
46.802313
46.434685
46.115495
45.830173
45.572862
45.356209
45.185645
45.061359
44.981825
44.944945
44.948284
44.990948
45.074417
45.202139
45.379521
45.614495
45.91697
46.298273
46.771768
47.353697
48.060089
48.907471
49.9153
51.107302
52.490074
54.080442
55.897066
57.951546
60.252689
62.809685
65.629317
68.715783
72.070592
75.693675
79.564536
83.60001
87.697799
91.753955
95.661315
99.314511
102.6151
105.47872
107.84979
109.68978
110.92113
111.55148
111.75816
111.74102
111.56073
111.32262
110.95979
110.41903
109.77158
109.01521
108.09357
107.07022
105.96978
104.79769
103.57547
102.31958
101.04545
99.763423
98.505843
97.267388
96.045567
94.843814
93.663985
92.506283
91.372283
90.26386
89.182828
88.131116
87.110141
86.119397
85.160541
84.235739
83.344523
82.485315
81.657382
80.85982
80.091383
79.351979
78.63983
77.954284
77.294025
76.657785
76.056808
75.491944
74.827662
53.068616
52.408416
51.747194
51.085218
50.423614
49.763925
49.107915
48.457617
47.815438
47.183982
46.565719
45.963202
45.37901
44.815551
44.273535
43.75309
43.255609
42.782878
42.336514
41.91768
41.521995
41.139165
40.773989
40.435961
40.131103
39.862921
39.634035
39.446727
39.303479
39.20838
39.167531
39.188385
39.279662
39.451652
39.71674
40.087515
40.578958
41.209418
41.998954
42.958733
44.108847
45.471329
47.070244
48.931792
51.084509
53.558981
56.373763
59.517081
62.959506
66.648171
70.505595
74.429976
78.298573
81.981142
85.354656
88.277866
90.620588
92.352773
93.516512
94.220441
94.585077
94.754504
94.783825
94.709102
94.545497
94.223191
93.783486
93.226133
92.520929
91.715895
90.831285
89.895833
88.919394
87.936631
86.941066
85.933798
84.920632
83.905553
82.891683
81.882873
80.882457
79.893593
78.919734
77.963703
77.027197
76.112605
75.222449
74.357953
73.519437
72.707205
71.921299
71.161456
70.427646
69.719184
69.036037
68.377243
67.742867
67.139437
66.576856
65.912703
53.030604
52.366523
51.701583
51.035548
50.368402
49.700189
49.031169
48.361936
47.693407
47.026725
46.363131
45.703934
45.050511
44.404291
43.76659
43.138587
42.52147
41.916474
41.324852
40.747844
40.186134
39.639335
39.107608
38.59208
38.094372
37.616255
37.158832
36.71632
36.28354
35.869068
35.48332
35.133489
34.8247
34.560962
34.345979
34.18494
34.084889
34.054818
34.105551
34.248575
34.49774
34.870194
35.385571
36.063679
36.932578
38.026794
39.385799
41.048393
43.05069
45.420439
48.169999
51.28796
54.730446
58.416526
62.231563
66.022087
69.600414
72.793228
75.470186
77.593979
79.176953
80.297059
81.052413
81.52114
81.793583
81.935504
81.958473
81.884664
81.677686
81.359358
80.924655
80.396155
79.793655
79.124907
78.397745
77.625642
76.819001
75.984001
75.127119
74.255173
73.37354
72.487284
71.601662
70.720884
69.848385
68.98779
68.142295
67.314303
66.505533
65.717264
64.950438
64.205649
63.483404
62.783795
62.107212
61.453055
60.822427
60.218977
59.658199
58.995314
52.97222
52.293046
51.615367
50.938829
50.263012
49.587411
48.911659
48.235683
47.559701
46.884118
46.209422
45.536147
44.864868
44.196214
43.530852
42.869478
42.212827
41.561668
40.916813
40.279106
39.649373
39.028317
38.416585
37.814876
37.223979
36.644767
36.078128
35.524269
34.982842
34.454444
33.940723
33.443899
32.966125
32.503559
32.049326
31.61325
31.207756
30.840908
30.518318
30.244036
30.023008
29.862912
29.77374
29.767537
29.859699
30.070537
30.425408
30.954282
31.695835
32.695354
34.002846
35.668747
37.736631
40.231835
43.149092
46.43785
49.988111
53.635761
57.183551
60.45468
63.311884
65.685937
67.581203
69.022851
70.071183
70.813907
71.307864
71.624971
71.81579
71.887744
71.86078
71.723764
71.495289
71.185232
70.7741
70.287184
69.737781
69.130741
68.474469
67.778827
67.051506
66.299419
65.530033
64.749305
63.962589
63.175358
62.391926
61.616008
60.850755
60.098551
59.361398
58.640836
57.938101
57.254087
56.589752
55.945028
55.321872
54.722189
54.164815
53.50531
52.921343
52.221308
51.523698
50.828538
50.135616
49.444504
48.754785
48.066232
47.378854
46.692829
46.008415
45.325892
44.645553
43.967702
43.292658
42.620751
41.952329
41.287759
40.627424
39.971732
39.321111
38.675994
38.036819
37.404038
36.778126
36.159587
35.548959
34.946743
34.35335
33.769211
33.194886
32.631107
32.078745
31.538143
31.008871
30.491646
29.988472
29.501971
29.033049
28.572007
28.123213
27.70202
27.318274
26.97817
26.686358
26.449984
26.280156
26.191832
26.205053
26.346415
26.650114
27.158629
27.925394
29.011683
30.480716
32.385954
34.752347
37.554258
40.70043
44.043805
47.403102
50.599729
53.498017
56.005974
58.083594
59.750249
61.035338
61.985947
62.675684
63.149082
63.469345
63.659385
63.739142
63.738673
63.647392
63.472241
63.225468
62.891192
62.478507
62.002955
61.472033
60.891926
60.273264
59.623648
58.950154
58.260762
57.561048
56.856331
56.151498
55.450211
54.755808
54.070928
53.397723
52.738015
52.093455
51.464651
50.85434
50.263476
49.712894
49.060242
52.891374
52.176641
51.463551
50.752447
50.043455
49.336462
48.631284
47.927807
47.226061
46.526205
45.828468
45.133108
44.440398
43.750616
43.064044
42.380962
41.701654
41.026405
40.3555
39.689223
39.02786
38.371692
37.721001
37.076061
36.437148
35.804535
35.178496
34.559306
33.947229
33.342521
32.74545
32.156318
31.575463
31.00321
30.439793
29.885494
29.340778
28.806334
28.282855
27.769862
27.267448
26.777464
26.302622
25.843615
25.389054
24.948745
24.539099
24.169722
23.847585
23.581297
23.385262
23.279893
23.293366
23.463945
23.841658
24.487673
25.472736
26.864315
28.706348
30.9979
33.678465
36.629121
39.696087
42.715731
45.541729
48.074015
50.252482
52.053741
53.501975
54.626123
55.465844
56.076792
56.499489
56.776633
56.950056
57.032971
57.042728
56.973451
56.825147
56.609241
56.314934
55.943676
55.514122
55.03164
54.503678
53.942083
53.352512
52.742285
52.118545
51.486291
50.850595
50.21539
49.583984
48.959362
48.343991
47.739335
47.14891
46.573277
46.034609
45.393741
52.876456
52.153695
51.431689
50.710871
49.991516
49.273712
48.557457
47.842772
47.129747
46.418561
45.709448
45.002675
44.298525
43.59729
42.89927
42.204761
41.514064
40.827477
40.145294
39.467808
38.795308
38.128075
37.466384
36.810504
36.160695
35.517206
34.880278
34.25014
33.627009
33.011087
32.402565
31.801621
31.208428
30.623146
30.045918
29.476878
28.916167
28.363955
27.820445
27.285742
26.759931
26.24328
25.736322
25.23958
24.752202
24.274631
23.809211
23.359066
22.916672
22.481184
22.073964
21.707993
21.393159
21.142647
20.978197
20.931066
21.044583
21.37563
21.991148
22.959679
24.337138
26.144952
28.354739
30.884173
33.607373
36.380846
39.065817
41.545262
43.745486
45.627081
47.17779
48.421251
49.383632
50.09705
50.617417
50.982438
51.219699
51.362422
51.434312
51.436784
51.366826
51.223544
51.0198
50.738843
50.389032
49.989663
49.540334
49.051945
48.53436
47.993101
47.435602
46.867125
46.292434
45.716023
45.141311
44.57087
44.009073
43.456514
42.936606
42.314002
52.869862
52.143027
51.416381
50.690363
49.965291
49.241335
48.518589
47.797144
47.077131
46.358737
45.642196
44.927771
44.215743
43.506407
42.800062
42.097015
41.39757
40.702034
40.010711
39.323904
38.641911
37.965025
37.293534
36.62772
35.967859
35.314214
34.667045
34.026598
33.393109
32.766804
32.147891
31.536569
30.933021
30.337412
29.749891
29.17059
28.599623
28.037088
27.483073
26.937642
26.400838
25.8727
25.353294
24.842713
24.340911
23.847887
23.363903
22.889536
22.424416
21.968175
21.523091
21.092696
20.670045
20.256976
19.87788
19.548058
19.28194
19.103229
19.046816
19.159935
19.501886
20.137777
21.127204
22.508888
24.282859
26.401071
28.770854
31.269057
33.76671
36.147463
38.317935
40.223542
41.837841
43.155851
44.206
45.012587
45.608054
46.037314
46.339477
46.52965
46.635195
46.68333
46.66643
46.581432
46.431215
46.22908
45.947607
45.610181
45.227783
44.802992
44.347177
43.866051
43.366197
42.853995
42.333829
41.809802
41.287227
40.767151
40.274585
39.678381
52.867662
52.138773
51.409744
50.681009
49.952901
49.225629
48.499335
47.774149
47.05022
46.327739
45.60693
44.888047
44.171361
43.457156
42.745725
42.037365
41.332377
40.631063
39.933722
39.240654
38.552154
37.868515
37.190024
36.516964
35.849612
35.188236
34.533099
33.884457
33.242555
32.607629
31.979907
31.359605
30.746926
30.142062
29.545191
28.956477
28.376069
27.804097
27.240676
26.685903
26.139854
25.602586
25.07414
24.554548
24.043812
23.541918
23.04887
22.564719
22.089456
21.623022
21.165631
20.717874
20.279444
19.850345
19.433607
19.033772
18.637167
18.267114
17.945985
17.691318
17.528886
17.496207
17.642502
18.025379
18.705457
19.731793
21.125867
22.869494
24.900314
27.12076
29.413231
31.662665
33.770679
35.662602
37.301419
38.671398
39.778103
40.650728
41.310341
41.792226
42.132529
42.367725
42.502952
42.575324
42.591554
42.54849
42.441895
42.280537
42.06303
41.780064
41.452655
41.082539
40.679001
40.250372
39.801547
39.338787
38.868241
38.39197
37.937102
37.377311
52.867827
52.137895
51.407621
50.677434
49.947676
49.218583
48.490332
47.763078
47.036986
46.312246
45.589079
44.867727
44.148452
43.431526
42.717233
42.005859
41.297696
40.593036
39.89217
39.195388
38.502977
37.815223
37.132403
36.454794
35.782664
35.116278
34.455891
33.801754
33.154109
32.51319
31.879223
31.252425
30.633004
30.021159
29.417075
28.82093
28.232889
27.653104
27.081713
26.518841
25.9646
25.419083
24.882368
24.354521
23.835589
23.325603
22.824585
22.332554
21.849522
21.375488
20.910471
20.454551
20.007755
19.570104
19.141975
18.724232
18.315952
17.919309
17.539061
17.166647
16.81989
16.523945
16.297962
16.170278
16.180712
16.379365
16.821614
17.562741
18.639099
20.056154
21.779069
23.733594
25.818797
27.922678
29.9439
31.800411
33.43676
34.831598
35.976903
36.888776
37.59508
38.117026
38.488824
38.749008
38.916815
38.995867
39.034708
39.018
38.945392
38.817904
38.645556
38.409289
38.125288
37.802636
37.444803
37.06133
36.658276
36.239594
35.834631
35.323637
52.869311
52.138857
51.407921
50.676928
49.946227
49.216079
48.486687
47.75823
47.030886
46.304853
45.580348
44.857608
44.136887
43.418451
42.702573
41.989534
41.279616
40.573101
39.870275
39.171417
38.476808
37.786723
37.101432
36.421203
35.746295
35.076964
34.413457
33.756015
33.104873
32.460257
31.822384
31.191465
30.567701
29.951286
29.342402
28.741223
28.147914
27.562629
26.985512
26.416694
25.856298
25.304431
24.761191
24.226664
23.700922
23.184025
22.676026
22.176969
21.686892
21.205828
20.73381
20.270874
19.817058
19.372399
18.936969
18.510932
18.094313
17.687389
17.290965
16.904629
16.530377
16.173286
15.82494
15.508713
15.246672
15.059374
14.978107
15.045396
15.310977
15.829137
16.64774
17.788636
19.240405
20.951117
22.835971
24.791944
26.714769
28.518203
30.135861
31.531476
32.696766
33.632827
34.363391
34.913239
35.311231
35.581804
35.767299
35.870088
35.913116
35.913523
35.864019
35.763322
35.618373
35.424671
35.178103
34.894869
34.577241
34.232816
33.891952
33.44513
52.871563
52.140862
51.409573
50.678115
49.946846
49.216044
48.485934
47.756719
47.028593
46.301759
45.576438
44.852866
44.131292
43.411977
42.695191
41.981205
41.270299
40.562748
39.858831
39.158823
38.462997
37.771622
37.084963
36.403278
35.726822
35.055842
34.390579
33.731265
33.078128
32.431385
31.791246
31.157914
30.531582
29.912434
29.300647
28.696386
28.099811
27.511069
26.930299
26.357629
25.793179
25.237058
24.689363
24.150184
23.619599
23.097677
22.584479
22.080059
21.584465
21.097742
20.619932
20.151079
19.691225
19.240414
18.798696
18.366133
17.942786
17.528733
17.124123
16.729018
16.34371
15.96908
15.604757
15.253628
14.921216
14.599663
14.317643
14.093965
13.952329
13.927458
14.064102
14.413011
15.025566
15.938403
17.157159
18.65068
20.349757
22.161319
23.982773
25.720822
27.305757
28.68911
29.8536
30.799433
31.542788
32.107372
32.516847
32.801921
32.992911
33.109043
33.1562
33.166648
33.132751
33.053047
32.930613
32.769584
32.555093
32.303973
32.043288
31.679154
52.874279
52.143482
51.41201
50.680278
49.948647
49.217409
48.486812
47.757077
47.028414
46.301037
45.575169
44.851049
44.128924
43.409053
42.691702
41.977141
41.265642
40.557481
39.85293
39.15226
38.455742
37.763638
37.076211
36.393714
35.716396
35.044499
34.37826
33.717907
33.063659
32.415729
31.774321
31.139631
30.511846
29.891144
29.277694
28.671656
28.073181
27.48241
26.899476
26.3245
25.757597
25.198869
24.648411
24.106307
23.572633
23.047456
22.530833
22.022817
21.523454
21.032786
20.550853
20.077692
19.61334
19.157837
18.711223
18.273541
17.844838
17.425163
17.014566
16.613091
16.2208
15.837841
15.464279
15.100539
14.747715
14.405656
14.078295
13.766601
13.477037
13.232773
13.05278
12.965233
13.009035
13.231101
13.683007
14.410346
15.432785
16.73651
18.268181
19.94302
21.66312
23.331726
24.871851
26.230698
27.382679
28.326179
29.068907
29.636708
30.051107
30.342141
30.533732
30.655454
30.71043
30.723313
30.700669
30.636924
30.533769
30.395008
30.230608
29.969535
52.877287
52.146478
51.414921
50.683024
49.95115
49.219605
48.488652
47.758531
47.029468
46.301685
45.575414
44.850893
44.128374
43.408113
42.690374
41.975426
41.263538
40.554984
39.850033
39.148955
38.452015
37.759475
37.071594
36.388623
35.710807
35.038387
34.371594
33.710653
33.05578
32.407185
31.765068
31.129619
30.501022
29.87945
29.265067
28.658029
28.058481
27.466559
26.882391
26.306093
25.737773
25.17753
24.625452
24.081618
23.546101
23.01896
22.500249
21.990015
21.488297
20.995131
20.510548
20.034577
19.567242
19.108572
18.658592
18.21733
17.784816
17.361079
16.946146
16.540039
16.14278
15.754392
15.374895
15.004351
14.642946
14.290813
13.94859
13.616949
13.297386
12.99452
12.706278
12.451731
12.248678
12.119492
12.097445
12.22566
12.554043
13.131885
13.99188
15.132852
16.515939
18.065807
19.687546
21.284196
22.773531
24.099653
25.229021
26.157029
26.890598
27.452244
27.864472
28.153791
28.344436
28.465494
28.526252
28.540253
28.526757
28.475591
28.407026
28.267092
52.880483
52.14971
51.418125
50.68613
49.954087
49.222313
48.491086
47.76066
47.031275
46.303166
45.57657
44.851731
44.1289
43.408336
42.690301
41.975064
41.262892
40.554057
39.848827
39.147469
38.450248
37.757424
37.069252
36.385982
35.707859
35.03512
34.367994
33.706705
33.051466
32.402485
31.759958
31.124075
30.495015
29.872949
29.258039
28.650436
28.050283
27.457712
26.872847
26.2958
25.726677
25.165572
24.612569
24.067743
23.531161
23.002881
22.48295
21.971411
21.468297
20.973638
20.487455
20.00977
19.540598
19.079953
18.627849
18.184297
17.749311
17.322903
16.905083
16.495855
16.095222
15.70318
15.319721
14.944836
14.578536
14.220843
13.871851
13.531724
13.200804
12.880013
12.569836
12.273474
11.994754
11.736843
11.520288
11.363892
11.29585
11.355121
11.589464
12.049507
12.776234
13.77986
15.03326
16.470423
17.999879
19.525523
20.960998
22.245938
23.344628
24.248541
24.965299
25.513185
25.917743
26.199122
26.386461
26.503891
26.568433
26.587184
26.594295
26.549368
52.883803
52.153094
51.421515
50.689463
49.957299
49.225347
48.493898
47.76322
47.033564
46.305177
45.578303
44.853191
44.130096
43.409276
42.690995
41.975519
41.263118
40.55406
39.848613
39.147044
38.449614
37.756583
37.068205
36.384729
35.706398
35.033447
34.366105
33.704593
33.049124
32.399903
31.757127
31.120982
30.491647
29.86929
29.25407
28.646139
28.045636
27.452691
26.867426
26.289952
25.72037
25.158772
24.605241
24.059848
23.522658
22.993724
22.473093
21.960801
21.456878
20.96135
20.474233
19.99554
19.525281
19.06346
18.610081
18.165144
17.72865
17.300595
16.880975
16.469782
16.067002
15.672619
15.286606
14.908935
14.539576
14.178501
13.825692
13.481152
13.144924
12.817162
12.49806
12.188223
11.888701
11.600843
11.328859
11.073767
10.851394
10.678709
10.579743
10.589519
10.753065
11.121238
11.739692
12.62918
13.771616
15.109433
16.554662
18.010811
19.390117
20.628916
21.690954
22.564237
23.257991
23.785771
24.175771
24.446549
24.629125
24.743972
24.823934
24.851255
52.887208
52.156576
51.425025
50.692942
49.960689
49.228595
48.496961
47.766066
47.036174
46.307541
45.580419
44.855063
44.131729
43.41068
42.692179
41.976494
41.263892
40.554643
39.849012
39.147265
38.449665
37.756468
37.067929
36.384294
35.705806
35.032699
34.365202
33.703534
33.047907
32.398526
31.755584
31.11927
30.489758
29.867218
29.251807
28.643675
28.042959
27.44979
26.864287
26.28656
25.716709
25.154823
24.600984
24.055262
23.517719
22.988407
22.467371
21.954644
21.450254
20.954223
20.466565
19.987288
19.516397
19.05389
18.599765
18.154013
17.716627
17.287593
16.866898
16.45452
16.050437
15.65462
15.267033
14.887634
14.516378
14.153219
13.798107
13.450996
13.111851
12.780655
12.457416
12.142221
11.835279
11.536953
11.248143
10.969752
10.704919
10.456895
10.233499
10.051766
9.9324475
9.9070056
10.017702
10.315047
10.847373
11.643423
12.692776
13.94418
15.312976
16.702697
18.025355
19.215052
20.236006
21.073322
21.737097
22.240601
22.613274
22.872907
23.063398
23.17966
52.890669
52.160122
51.428609
50.696513
49.964193
49.231983
48.500191
47.769106
47.039003
46.310147
45.582798
44.857216
44.133662
43.412399
42.693695
41.977815
41.265029
40.555603
39.849806
39.1479
38.450149
37.756807
37.068129
36.384361
35.705744
35.032512
34.364891
33.703102
33.047355
32.397855
31.754794
31.118358
30.488725
29.86606
29.250521
28.642256
28.041403
27.448091
26.862438
26.284553
25.714536
25.152474
24.598449
24.052529
23.514776
22.98524
22.463964
21.950981
21.446317
20.949992
20.462018
19.982401
19.511141
19.048235
18.593676
18.14745
17.709543
17.279937
16.85861
16.445535
16.040681
15.64401
15.255481
14.875042
14.502641
14.138218
13.781712
13.433062
13.092204
12.759079
12.433634
12.115831
11.805663
11.503169
11.208502
10.921911
10.644053
10.375946
10.119619
9.8793987
9.6585901
9.4729756
9.3410613
9.291234
9.3633603
9.6069251
10.07205
10.792976
11.765368
12.942804
14.243412
15.570863
16.83758
17.976228
18.951378
19.748288
20.379162
20.856807
21.225618
21.475316
52.894167
52.163707
51.43224
50.700142
49.967771
49.235463
48.503534
47.772281
47.041987
46.312926
45.585365
44.859571
44.135808
43.414343
42.695443
41.979378
41.266415
40.556823
39.850867
39.148813
38.45092
37.757445
37.068639
36.384751
35.706018
35.032675
34.364949
33.703057
33.047211
32.397613
31.754457
31.117928
30.488201
29.865442
29.24981
28.64145
28.040501
27.44709
26.861336
26.283346
25.71322
25.151045
24.596901
24.050856
23.512971
22.983297
22.461873
21.948735
21.443906
20.947405
20.459243
19.979423
19.507947
19.044806
18.589992
18.143488
17.705277
17.275336
16.85364
16.440157
16.03485
15.637679
15.248593
14.867539
14.494456
14.129279
13.771941
13.42237
13.080493
12.746235
12.419523
12.100286
11.788457
11.483984
11.186839
10.897027
10.614641
10.339898
10.073264
9.8157578
9.5687242
9.3357291
9.1202923
8.9348157
8.7961505
8.7303145
8.775037
8.9786859
9.3924539
10.0543
10.964526
12.079984
13.320847
14.590575
15.801897
16.887436
17.815132
18.569836
19.182948
19.638841
52.897687
52.167314
51.435896
50.703804
49.971394
49.239003
48.506953
47.775548
47.045079
46.315828
45.588068
44.862073
44.13811
43.41645
42.697362
41.981117
41.267982
40.558227
39.852118
39.149919
38.451889
37.758285
37.069359
36.385355
35.706514
35.033069
34.365245
33.70326
33.047325
32.397642
31.754404
31.117794
30.48799
29.865155
29.249448
28.641014
28.039991
27.446507
26.860678
26.282613
25.712409
25.150155
24.59593
24.049802
23.51183
22.982065
22.460547
21.94731
21.442378
20.945768
20.45749
19.977548
19.50594
19.042659
18.587693
18.141025
17.702634
17.272496
16.850583
16.43686
16.031287
15.63382
15.244407
14.862989
14.489503
14.123879
13.766047
13.415928
13.073445
12.738515
12.411057
12.090987
11.778222
11.472681
11.17429
10.88298
10.598707
10.321455
10.051276
9.788349
9.5330136
9.2860711
9.0487147
8.8238575
8.6154098
8.432532
8.2912964
8.2155884
8.2415886
8.4164451
8.7922353
9.4090217
10.270889
11.335872
12.524977
13.740628
14.898974
15.931248
16.830377
17.55212
52.901219
52.170931
51.439563
50.707481
49.975039
49.242578
48.51042
47.778878
47.048248
46.318819
45.590872
44.864685
44.14053
43.418681
42.69941
41.982987
41.269684
40.559769
39.853509
39.151166
38.453002
37.759272
37.070226
36.38611
35.707164
35.033619
34.365701
33.703628
33.04761
32.397847
31.754533
31.117851
30.487977
29.865076
29.249304
28.640807
28.039723
27.446178
26.860289
26.282165
25.711903
25.14959