/*--------------------------------*- C++ -*----------------------------------*\
| =========                 |                                                 |
| \\      /  F ield         | OpenFOAM: The Open Source CFD Toolbox           |
|  \\    /   O peration     | Version:  2206                                  |
|   \\  /    A nd           | Website:  www.openfoam.com                      |
|    \\/     M anipulation  |                                                 |
\*---------------------------------------------------------------------------*/
FoamFile
{
    version     2.0;
    format      ascii;
    arch        "LSB;label=32;scalar=64";
    class       volScalarField;
    location    "1500";
    object      p;
}
// * * * * * * * * * * * * * * * * * * * * * * * * * * * * * * * * * * * * * //

dimensions      [0 2 -2 0 0 0 0];

internalField   nonuniform List<scalar> 
7480
(
0.054753399
0.042495656
0.028370337
0.016558929
0.0059483239
0.00049950674
-0.00075735157
0.00025740997
0.0018092742
0.0028385777
0.0033131986
0.0035155089
0.0036061011
0.0036346969
0.0036366998
0.003641449
0.0036489319
0.0036423782
0.0036259562
0.0036082854
0.0035880867
0.0035611697
0.0035303673
0.0034990317
0.0034658878
0.0034285317
0.0033883828
0.0033470024
0.0033035047
0.0032570856
0.0032088603
0.0031596007
0.0031086931
0.0030559445
0.0030022094
0.002948093
0.0028936411
0.0028395073
0.0027869178
0.0027368942
0.0026902833
0.0026486337
0.0026144449
0.0025901916
0.0025799969
0.0025879614
0.0026179607
0.002669987
0.0027433503
0.0028382777
0.0029529446
0.0030844667
0.0032283551
0.0033783009
0.0035321014
0.0036833474
0.0038139632
0.0039111197
0.0039667296
0.0039838801
0.0039651132
0.0039166785
0.0038475213
0.0037646358
0.0036731331
0.0035770216
0.0034796693
0.0033823796
0.0032860795
0.003191329
0.0030982543
0.0030063575
0.0029156639
0.0028261538
0.0027370374
0.0026489046
0.0025608397
0.0024707232
0.0023789756
0.0022857246
0.0021917862
0.0020967521
0.0019994787
0.001901028
0.0018004872
0.001698514
0.0015949339
0.0014898143
0.0013837753
0.0012764184
0.0011690433
0.0010613292
0.00095511142
0.00084976991
0.00075213833
0.00064869701
0.00059664423
0.00031418328
0.0008405998
-0.00087608966
0.049775657
0.039259312
0.027304382
0.016410058
0.006549284
0.0013006319
-5.0694006e-05
0.00072681346
0.0020360257
0.0029623669
0.0033908365
0.0035746448
0.0036568877
0.0036786804
0.0036765401
0.003679291
0.0036808364
0.0036693222
0.0036499721
0.0036299615
0.0036076027
0.0035787136
0.0035462844
0.0035135479
0.0034791187
0.003440597
0.0033994416
0.0033571623
0.0033128281
0.0032656445
0.0032167377
0.0031668538
0.0031153607
0.0030620705
0.0030078378
0.0029532553
0.0028983614
0.00284381
0.0027908236
0.0027404164
0.0026934317
0.0026514179
0.0026168722
0.002592262
0.0025817836
0.0025895329
0.0026190282
0.0026706717
0.0027437234
0.0028383467
0.0029527341
0.0030840139
0.0032277016
0.0033774992
0.0035312117
0.0036824231
0.0038130601
0.0039103172
0.0039660862
0.0039834125
0.0039648402
0.0039165839
0.0038475669
0.0037647915
0.0036733691
0.0035773126
0.0034799948
0.0033827237
0.0032864309
0.0031916797
0.003098599
0.003006693
0.0029159882
0.0028264656
0.0027373364
0.0026491913
0.0025611201
0.002471003
0.0023792521
0.002285995
0.0021920499
0.0020970095
0.0019997304
0.0019012746
0.0018007288
0.0016987507
0.0015951654
0.0014900407
0.0013839962
0.0012766337
0.0011692529
0.0010615331
0.00095530965
0.0008499624
0.00075232639
0.00064887733
0.00059688847
0.00031516179
0.00084281387
-0.00087562495
0.045715521
0.037578371
0.02694105
0.016684458
0.0079241891
0.0028291792
0.0011220249
0.0013885422
0.0023722927
0.0031465727
0.0035116829
0.0036754287
0.0037449587
0.0037517201
0.0037404298
0.0037360644
0.0037291113
0.0037103547
0.0036862628
0.0036625836
0.0036366394
0.0036043773
0.003569399
0.003534523
0.0034980404
0.0034576694
0.0034150306
0.0033714777
0.0033259365
0.0032776542
0.0032278134
0.0031770927
0.0031248067
0.0030707911
0.0030159127
0.0029607343
0.002905277
0.0028502059
0.0027967396
0.0027458757
0.0026984489
0.0026560127
0.0026210614
0.002596051
0.0025852504
0.0025928741
0.0026218527
0.0026728983
0.0027456025
0.0028398509
0.0029538719
0.0030848017
0.003228159
0.0033776645
0.003531158
0.0036822008
0.0038126939
0.0039099111
0.0039657774
0.0039832089
0.0039648545
0.0039167951
0.0038479415
0.0037653028
0.0036739822
0.0035779946
0.0034807184
0.0033834653
0.0032871739
0.0031924122
0.0030993126
0.0030073822
0.0029166505
0.0028270989
0.0027379399
0.0026497657
0.0025616655
0.0024715261
0.002379759
0.0022864843
0.0021925219
0.002097465
0.0020001711
0.0019017023
0.0018011442
0.0016991547
0.0015955582
0.0014904224
0.001384367
0.0012769934
0.0011696019
0.0010618712
0.00095563748
0.00085027936
0.00075263603
0.00064917031
0.0005972866
0.00031673544
0.00084673733
-0.00087500592
0.0429949
0.036277034
0.02658642
0.016984259
0.0092108506
0.0042919989
0.0022037027
0.0020822537
0.0027640484
0.0033838564
0.0036934469
0.00383283
0.0038792482
0.0038563701
0.0038245417
0.0038083554
0.0037908628
0.0037616705
0.0037310089
0.0037030423
0.0036726572
0.0036358619
0.0035976754
0.0035602138
0.0035210991
0.0034782864
0.0034338388
0.0033888199
0.0033418502
0.0032922774
0.0032414295
0.003189848
0.0031367327
0.0030819763
0.0030264838
0.0029707586
0.002914792
0.0028592871
0.0028054627
0.002754281
0.002706559
0.0026638666
0.002628695
0.0026034829
0.002592463
0.0026003622
0.0026291855
0.0026795826
0.002752045
0.0028459583
0.0029595678
0.0030900305
0.0032328599
0.0033818073
0.0035347743
0.0036852806
0.0038152319
0.0039119263
0.0039675982
0.0039848192
0.0039664103
0.0039183698
0.0038495507
0.0037669602
0.0036756775
0.003579709
0.0034824323
0.0033851558
0.0032888245
0.0031940107
0.0031008499
0.0030088521
0.0029180513
0.002828429
0.0027391985
0.0026509543
0.0025627532
0.0024725148
0.002380691
0.002287369
0.002193363
0.0020982652
0.0020009339
0.0019024328
0.0018018446
0.0016998282
0.0015962063
0.0014910466
0.0013849685
0.001277573
0.0011701608
0.0010624096
0.00095615689
0.00085077914
0.00075312206
0.00064962923
0.00059789847
0.00031922557
0.00085315597
-0.0008738983
0.040526035
0.034683682
0.02596194
0.017336788
0.010278914
0.0054986235
0.0032426581
0.0028507805
0.0032401325
0.0036825785
0.0039151184
0.0040038879
0.0040183128
0.0039775459
0.0039347807
0.0039089646
0.0038786442
0.0038338026
0.0037922178
0.0037574325
0.0037206037
0.0036774658
0.0036350327
0.0035944446
0.0035520738
0.0035060571
0.0034592681
0.0034123627
0.0033634844
0.0033121751
0.0032600367
0.0032073895
0.0031532458
0.0030976045
0.0030414439
0.0029851637
0.0029286916
0.0028728063
0.0028187462
0.002767405
0.0027195632
0.002676817
0.0026416507
0.0026164638
0.0026055124
0.0026139113
0.0026427237
0.002692661
0.0027648764
0.0028583834
0.0029714447
0.0031012267
0.0032432247
0.0033912425
0.0035433196
0.0036929742
0.0038219364
0.0039175016
0.0039726134
0.0039892042
0.0039703109
0.0039220347
0.0038530529
0.0037703611
0.0036789985
0.0035829528
0.0034855947
0.003388221
0.0032917814
0.0031968503
0.0031035644
0.0030114365
0.0029205075
0.0028307569
0.0027413976
0.0026530272
0.002564661
0.0024742613
0.002382329
0.0022889118
0.0021948186
0.0020996393
0.002002233
0.0019036662
0.0018030172
0.0017009467
0.0015972744
0.0014920682
0.0013859468
0.0012785099
0.0011710594
0.0010632712
0.00095698448
0.00085157256
0.00075388916
0.00065035606
0.00059883651
0.00032292355
0.00086264023
-0.00087175728
0.038212684
0.033091587
0.025373823
0.01764875
0.011163861
0.0065958003
0.0042418309
0.0035981374
0.0037377904
0.0040050098
0.004149492
0.0041861092
0.004169633
0.0041145995
0.0040585256
0.0040142346
0.0039685102
0.0039138955
0.0038655334
0.0038248437
0.0037804533
0.0037294198
0.0036810698
0.0036362593
0.0035897987
0.0035398759
0.0034903765
0.0034413766
0.0033903222
0.0033369988
0.0032834062
0.0032295671
0.0031742556
0.0031176661
0.0030609222
0.0030042699
0.0029474107
0.0028911904
0.0028369719
0.0027855861
0.0027377651
0.0026951433
0.0026601969
0.0026352584
0.0026246362
0.0026333978
0.0026620677
0.0027116848
0.0027833886
0.0028762091
0.0029884577
0.0031172772
0.0032581105
0.0034048258
0.0035556701
0.0037040957
0.0038315685
0.0039255453
0.003979891
0.0039955825
0.003975924
0.0039273175
0.0038580933
0.0037752313
0.0036837234
0.0035875399
0.003490046
0.0033925228
0.0032959255
0.0032008286
0.0031073668
0.0030150603
0.002923961
0.0028340401
0.0027445085
0.0026559673
0.0025674156
0.0024768422
0.0023847627
0.0022912019
0.0021969753
0.0021016702
0.0020041468
0.001905476
0.0018047304
0.0017025731
0.0015988202
0.0014935399
0.0013873501
0.0012798481
0.0011723377
0.0010644925
0.00095815334
0.00085269026
0.0007549637
0.00065137851
0.00060013739
0.00032795445
0.00087531136
-0.00086810713
0.036111665
0.031613131
0.024821259
0.017878276
0.011921901
0.0075940997
0.0051779145
0.0043063716
0.0042219785
0.0043357497
0.0043951115
0.0043816804
0.00433318
0.0042601066
0.0041866107
0.0041236015
0.0040640519
0.0040013921
0.0039449639
0.0038945924
0.0038417988
0.0037855269
0.0037330787
0.0036843362
0.0036332524
0.0035789101
0.0035261223
0.0034744211
0.0034206704
0.0033649836
0.0033097791
0.003254656
0.0031980567
0.0031404446
0.0030831399
0.0030261622
0.0029689554
0.0029124983
0.0028582966
0.0028070848
0.0027595324
0.002717342
0.0026830069
0.0026588777
0.0026484164
0.0026566226
0.0026850897
0.0027346015
0.0028058757
0.0028980107
0.0030093165
0.0031368791
0.003276189
0.0034213468
0.0035698607
0.0037153187
0.0038406198
0.0039330956
0.0039870538
0.0040020526
0.0039817809
0.0039330741
0.0038637816
0.0037808738
0.0036893001
0.0035930275
0.003495426
0.0033977628
0.0033010068
0.0032057367
0.003112086
0.0030195836
0.0029282946
0.0028381805
0.0027484498
0.0026597087
0.0025709483
0.0024801818
0.0023879271
0.0022941874
0.0021997902
0.0021043215
0.0020066437
0.0019078339
0.0018069577
0.0017046826
0.00160082
0.0014954386
0.0013891554
0.001281565
0.0011739733
0.0010660512
0.00095964115
0.00085411
0.00075632217
0.00065267529
0.00060177695
0.00033426165
0.00089082324
-0.00086284234
0.034213144
0.030231407
0.024254626
0.018021872
0.012568641
0.0084853448
0.0060406848
0.004983728
0.004704089
0.0046765098
0.0046508668
0.0045861631
0.0045034923
0.0044090045
0.0043176891
0.0042380265
0.0041651303
0.0040930519
0.0040268966
0.0039665676
0.0039065452
0.0038456148
0.0037883858
0.0037340614
0.0036781675
0.003620652
0.0035652854
0.0035108937
0.0034541628
0.003395831
0.0033387563
0.0032821015
0.0032237983
0.0031646921
0.0031064597
0.0030488002
0.0029909611
0.0029341481
0.0028799528
0.0028289675
0.0027817814
0.0027401936
0.0027067358
0.0026837698
0.0026735248
0.002680914
0.002709057
0.0027585343
0.0028294947
0.0029209955
0.003031257
0.0031572684
0.003294825
0.0034384933
0.0035837225
0.0037247266
0.0038474778
0.0039388316
0.0039928662
0.0040075603
0.0039870455
0.0039385831
0.0038694939
0.0037867559
0.0036952803
0.0035990407
0.0035014179
0.0034036696
0.0033067919
0.0032113737
0.0031175514
0.0030248596
0.0029333775
0.0028430607
0.0027531155
0.0026641567
0.0025751657
0.0024841844
0.0023917352
0.0022977924
0.0022031978
0.0021075364
0.0020096738
0.0019106959
0.0018096606
0.0017072405
0.001603242
0.001497735
0.0013913356
0.0012836357
0.0011759435
0.0010679261
0.00096142746
0.00085581223
0.00075794501
0.00065422856
0.00060372205
0.00034172027
0.00090864829
-0.0008561549
0.032492609
0.02894008
0.023680277
0.018101235
0.013118773
0.0092763203
0.0068347066
0.0056327015
0.0051826809
0.0050235019
0.0049142402
0.0047974319
0.004679683
0.0045621343
0.0044522398
0.0043560866
0.0042693777
0.0041867873
0.0041110771
0.004041754
0.0039745914
0.0039081903
0.0038454207
0.0037854911
0.0037253411
0.0036647468
0.0036062495
0.003548507
0.0034889394
0.0034286077
0.0033699246
0.0033116025
0.003251375
0.0031905878
0.0031312368
0.0030726942
0.0030139996
0.002956495
0.0029018452
0.0028506141
0.002803348
0.0027619478
0.0027289899
0.0027067221
0.0026970055
0.0027043548
0.0027321415
0.0027811924
0.002851533
0.0029422148
0.0030513683
0.0031758887
0.0033118353
0.0034540924
0.0035965364
0.003733344
0.0038531812
0.0039433714
0.0039973759
0.004011961
0.0039915148
0.0039435393
0.0038748438
0.0037924683
0.0037012697
0.0036051997
0.0035076609
0.0034099098
0.0033129769
0.0032174605
0.0031235026
0.0030306483
0.0029389935
0.0028484854
0.0027583287
0.0026691509
0.0025799207
0.0024887144
0.0023960626
0.0023019052
0.0022070991
0.0021112277
0.0020131606
0.0019139951
0.0018127799
0.0017101948
0.0016060403
0.0015003884
0.0013938543
0.0012860272
0.0011782181
0.0010700894
0.0009634867
0.00085777336
0.00075980972
0.00065601775
0.00060592987
0.0003501823
0.00092820293
-0.00084811314
0.030929453
0.027740483
0.023109629
0.018126468
0.01358022
0.0099739204
0.0075620702
0.0062497037
0.0056524796
0.0053728699
0.0051835238
0.0050150651
0.0048617245
0.0047197397
0.0045906108
0.0044776104
0.0043768928
0.0042832003
0.0041974797
0.0041192865
0.004044753
0.0039723663
0.0039041447
0.0038390544
0.0037746124
0.0037104415
0.003648521
0.0035875646
0.0035254039
0.0034630371
0.0034022893
0.0033418918
0.0032799469
0.003217919
0.003157571
0.0030980332
0.0030383267
0.0029799256
0.0029246215
0.0028729103
0.0028252381
0.0027835916
0.0027505917
0.0027283131
0.0027186278
0.0027258411
0.0027531667
0.0028015217
0.002871006
0.0029607203
0.0030687726
0.00319201
0.0033265369
0.0034673212
0.0036078859
0.0037419541
0.0038592916
0.0039474275
0.0040003912
0.0040149714
0.0039948217
0.0039474538
0.0038793305
0.0037975506
0.0037068295
0.0036110553
0.0035137211
0.0034160869
0.0033191898
0.0032236455
0.0031296147
0.0030366546
0.0029448744
0.00285421
0.0027638666
0.0026744879
0.0025850279
0.0024936032
0.0024007558
0.0023063861
0.0022113687
0.0021152842
0.0020170059
0.0019176448
0.0018162397
0.001713479
0.0016091566
0.0015033474
0.0013966661
0.0012886989
0.0011807606
0.0010725082
0.00096578904
0.0008599662
0.00076189088
0.00065801969
0.00060835206
0.00035950248
0.00094891599
-0.00083864365
0.029506237
0.026630342
0.022547616
0.018102398
0.013960231
0.010585025
0.0082242174
0.0068319807
0.006110403
0.0057224915
0.0054575045
0.0052383198
0.0050490929
0.0048816037
0.0047326137
0.0046025035
0.0044874717
0.004382258
0.0042863926
0.0041991894
0.0041171868
0.0040385654
0.00396452
0.0038942215
0.0038254334
0.003757447
0.0036921173
0.0036281372
0.0035633196
0.0034986016
0.0034356619
0.0033733659
0.0033098666
0.0032465536
0.0031848675
0.0031241221
0.0030635019
0.0030043632
0.0029484956
0.0028962675
0.0028480831
0.0028059992
0.0027726963
0.0027500569
0.0027398975
0.0027465035
0.0027730591
0.002820405
0.0028886526
0.0029770113
0.0030836268
0.0032053331
0.0033382523
0.0034774483
0.0036164956
0.003748998
0.0038647819
0.0039510285
0.0040030757
0.0040176459
0.0039970843
0.003949895
0.0038825705
0.0038016211
0.0037115029
0.00361616
0.0035192081
0.0034218455
0.0033250719
0.0032295824
0.0031355771
0.0030425902
0.0029507446
0.0028599755
0.0027694887
0.0026799443
0.0025902817
0.0024986649
0.0024056459
0.0023110816
0.0022158692
0.0021195838
0.0020211018
0.0019215504
0.0018199573
0.0017170208
0.001612528
0.0015065571
0.0013997229
0.0012916085
0.0011835335
0.001075149
0.00096830439
0.00086236354
0.00076416327
0.00066021149
0.00061093907
0.00036954725
0.00097025233
-0.00082760969
0.028207731
0.025604763
0.021997966
0.018035438
0.014267339
0.011116875
0.0088234676
0.0073780875
0.0065540424
0.006070093
0.005734428
0.0054659618
0.0052409921
0.0050473544
0.0048780208
0.0047306278
0.0046010422
0.0044839806
0.0043778199
0.0042814656
0.0041917773
0.0041066927
0.0040267175
0.0039511242
0.0038778718
0.0038060885
0.0037370961
0.0036698377
0.0036024023
0.0035352509
0.0034701081
0.0034059829
0.0033408789
0.0032760844
0.0032129969
0.0031511951
0.0030897541
0.0030298503
0.0029732357
0.0029203944
0.0028717629
0.0028292591
0.0027955978
0.0027725126
0.0027617735
0.0027675862
0.0027931258
0.0028391681
0.0029057972
0.002992365
0.0030970785
0.0032167757
0.0033476348
0.0034848806
0.0036221772
0.0037530048
0.0038673018
0.0039526701
0.0040047008
0.0040194751
0.0039988375
0.0039520012
0.003885446
0.0038047578
0.0037149256
0.0036202238
0.0035238583
0.0034268443
0.0033302846
0.0032349818
0.0031411276
0.0030481811
0.002956331
0.0028655295
0.0027749526
0.0026852888
0.0025954714
0.0025037086
0.0024105579
0.0023158337
0.0022204599
0.0021240007
0.0020253364
0.0019256139
0.0018238469
0.0017207455
0.0016160894
0.001509961
0.0014029756
0.001294713
0.0011864989
0.0010779784
0.00097100296
0.00086493863
0.00076660227
0.00066257096
0.00061364161
0.00038019213
0.0009917013
-0.00081484439
0.027020575
0.024657948
0.021464026
0.017932356
0.01450937
0.011575973
0.0093623694
0.0078869856
0.0069809607
0.0064132284
0.0060124377
0.0056967721
0.0054366826
0.0052166441
0.0050266391
0.004861839
0.0047175239
0.0045883294
0.0044717012
0.0043660733
0.0042685064
0.0041767687
0.004090777
0.0040097857
0.0039319278
0.0038562166
0.0037834679
0.0037128655
0.0036427215
0.0035732101
0.0035057361
0.0034395082
0.003372793
0.0033065284
0.0032420405
0.003179172
0.0031168758
0.0030561173
0.0029987302
0.0029453712
0.0028963364
0.0028533645
0.0028192514
0.0027956978
0.0027844087
0.0027894122
0.0028138561
0.0028584508
0.0029232695
0.0030077978
0.0031103013
0.0032276136
0.0033559835
0.0034908244
0.0036259058
0.0037546227
0.0038671488
0.0039516707
0.0040035136
0.0040187373
0.0039990728
0.0039534255
0.0038877198
0.0038073369
0.0037180604
0.0036240675
0.0035278074
0.0034307952
0.0033346114
0.0032396614
0.0031459922
0.0030531358
0.0029613863
0.0028706502
0.0027800301
0.0026903091
0.0026004109
0.0025085555
0.0024153234
0.0023204908
0.0022250028
0.0021284076
0.0020295957
0.0019297345
0.0018278189
0.0017245742
0.0016197718
0.0015134987
0.0014063712
0.0012979664
0.0011896168
0.0010809612
0.00097385357
0.00086766376
0.00076918262
0.00066507556
0.00061641041
0.00039131453
0.0010127437
-0.0008001665
0.025933006
0.023783775
0.020948206
0.017799318
0.014693344
0.011968391
0.0098437991
0.0083581453
0.0073890298
0.006749667
0.0062898077
0.0059295694
0.0056353894
0.0053890385
0.0051782022
0.0049959374
0.0048367868
0.0046952371
0.0045679894
0.0044529858
0.0043473794
0.0042488102
0.0041566931
0.0040701996
0.0039876059
0.0039078284
0.0038312752
0.0037572701
0.0036843105
0.0036123562
0.0035424794
0.003474096
0.0034057241
0.0033380027
0.0032721076
0.0032079784
0.0031447298
0.0030831752
0.0030250144
0.0029711064
0.0029216418
0.0028781591
0.0028436048
0.0028196276
0.0028077712
0.0028119096
0.0028351823
0.0028782892
0.0029412873
0.0030237184
0.0031238855
0.0032386244
0.0033642642
0.0034963969
0.0036289009
0.0037551164
0.0038654855
0.0039488232
0.0040001209
0.0040156517
0.0039970535
0.0039527226
0.0038881519
0.003808897
0.0037207605
0.0036274939
0.0035313177
0.0034345255
0.0033387993
0.0032437734
0.003149936
0.0030572863
0.0029657673
0.0028751145
0.0027845094
0.0026948416
0.0026049462
0.0025130407
0.0024197948
0.0023249205
0.0022293648
0.0021326793
0.0020337668
0.0019338078
0.0018317774
0.0017284213
0.0016234986
0.0015171022
0.0014098505
0.0013013168
0.0011928419
0.0010840579
0.00097682161
0.00087050841
0.00077187682
0.00066770108
0.0006191957
0.00040278687
0.0010328081
-0.00078340041
0.024934631
0.022976105
0.02045198
0.017641905
0.014825863
0.012299991
0.010270909
0.0087915356
0.0077764884
0.007077371
0.0065648549
0.0061631202
0.0058362557
0.0055640146
0.0053323858
0.0051326908
0.004958676
0.0048046197
0.0046666285
0.0045421634
0.0044283807
0.0043228161
0.004224465
0.0041323758
0.0040449272
0.0039609582
0.0038805384
0.0038030569
0.0037271758
0.0036526818
0.0035803682
0.0035097992
0.0034396962
0.0033704605
0.0033031156
0.0032376798
0.0031734476
0.0031110983
0.003052176
0.0029975785
0.0029475983
0.0029036358
0.0028686269
0.0028442417
0.0028317735
0.0028349791
0.0028570705
0.0028987062
0.0029598744
0.0030401518
0.0031378883
0.0032499781
0.0033728252
0.0035021445
0.0036319006
0.0037554012
0.0038633486
0.0039451993
0.0039956009
0.0040111515
0.0039935796
0.0039503342
0.0038869236
0.0038089159
0.0037218957
0.003629497
0.0035340426
0.0034379762
0.0033426887
0.0032475232
0.0031537073
0.0030613153
0.0029696213
0.0028787594
0.0027882991
0.0026987837
0.0026088962
0.0025170066
0.0024238563
0.0023290007
0.0022334144
0.0021367053
0.0020377452
0.0019377283
0.0018356244
0.0017321968
0.0016271855
0.0015206959
0.0014133463
0.0013047048
0.001196122
0.0010872227
0.00097986714
0.00087343757
0.00077465362
0.00067042032
0.00062194712
0.00041447138
0.0010512256
-0.00076439366
0.02401625
0.022229001
0.019976073
0.017465116
0.014913135
0.012576345
0.010646955
0.0091875261
0.0081419154
0.0073944727
0.0068359402
0.006396171
0.0060383841
0.0057409959
0.0054888242
0.0052718384
0.0050830101
0.0049163681
0.0047675435
0.0046335501
0.00451148
0.0043987775
0.0042940906
0.0041963194
0.0041039058
0.004015627
0.0039312706
0.0038502419
0.0037713419
0.0036942222
0.0036194322
0.0035466298
0.003474715
0.0034039049
0.0033350764
0.0032683131
0.0032030556
0.0031398674
0.003080154
0.0030248319
0.0029743037
0.0029299069
0.002894322
0.002869416
0.0028563958
0.0028586718
0.0028795517
0.0029196754
0.0029789626
0.0030570307
0.003152298
0.0032617195
0.003381744
0.003508177
0.0036350718
0.0037557738
0.0038612214
0.0039414604
0.0039908101
0.004006222
0.0039894192
0.0039470249
0.0038846184
0.0038077198
0.0037217444
0.003630276
0.0035356486
0.0034402489
0.003345445
0.0032506474
0.0031572947
0.0030651195
0.0029731933
0.0028823108
0.0027919581
0.0027021968
0.0026121362
0.0025204027
0.0024273972
0.0023325683
0.0022370315
0.0021403947
0.002041428
0.0019413929
0.0018392689
0.0017358092
0.0016307452
0.0015242002
0.0014167857
0.0013080637
0.0011993977
0.0010904026
0.0009829435
0.00087641001
0.00077747647
0.00067320167
0.00062461395
0.00042621683
0.0010671938
-0.00074303427
0.023169696
0.021536862
0.019520627
0.017273322
0.014960915
0.012802715
0.010975243
0.0095468476
0.0084842433
0.0076993086
0.0071015082
0.0066274816
0.0062408534
0.0059193568
0.0056471035
0.0054130832
0.0052095766
0.005030345
0.0048706398
0.0047270761
0.0045966359
0.0044766769
0.0043655608
0.0042620278
0.0041645486
0.0040718499
0.0039834854
0.0038988427
0.0038168327
0.0037370035
0.0036596896
0.0035846044
0.0035108043
0.0034383643
0.0033680185
0.0032998957
0.0032335608
0.0031694877
0.0031089537
0.0030528883
0.0030017823
0.0029569136
0.0029207604
0.0028952228
0.0028815968
0.0028830023
0.0029026091
0.0029411473
0.0029985163
0.0030743419
0.0031670825
0.0032737971
0.0033909854
0.003514476
0.0036384498
0.0037563294
0.0038592476
0.0039378056
0.0039860362
0.0040012266
0.0039850791
0.0039434379
0.0038819384
0.0038059271
0.0037208613
0.0036302232
0.0035363488
0.0034415438
0.0033472568
0.0032529068
0.0031599456
0.0030680127
0.0029762979
0.0028857471
0.00279542
0.0027053959
0.0026153591
0.0025236209
0.0024303623
0.002335531
0.0022401857
0.0021436186
0.0020446786
0.0019447072
0.0018426235
0.0017391648
0.0016340986
0.0015275404
0.0014200948
0.0013113239
0.0012026044
0.0010935382
0.00098599694
0.0008793774
0.00078030243
0.00067600783
0.00062714578
0.00043785719
0.0010797779
-0.00071926896
0.022387714
0.020894488
0.01908535
0.01707026
0.014974492
0.012984064
0.011259091
0.0098705398
0.0088027495
0.0079904344
0.0073601034
0.0068558366
0.0064427241
0.0060984265
0.0058067627
0.0055560923
0.0053381327
0.0051463862
0.0049758035
0.0048226574
0.0046837939
0.0045564852
0.004438858
0.0043294917
0.0042268576
0.0041296381
0.0040371946
0.0039488733
0.0038636679
0.0037810469
0.0037011586
0.0036237433
0.0035479891
0.0034738627
0.0034019619
0.0033324444
0.0032649828
0.0031999817
0.0031385985
0.0030817637
0.0030300407
0.0029846559
0.0029479109
0.0029217063
0.0029074258
0.0029079366
0.0029262251
0.0029631217
0.0030185411
0.0030920862
0.0031822606
0.0032862292
0.0034005292
0.0035210203
0.0036420155
0.003757028
0.0038574012
0.0039342309
0.0039813365
0.0039962887
0.0039807479
0.0039398173
0.0038791665
0.0038039971
0.0037198139
0.0036298201
0.0035365867
0.0034422843
0.0033484293
0.0032544362
0.003161808
0.0030701488
0.0029787001
0.0028883818
0.0027981545
0.0027082837
0.0026184944
0.0025266323
0.002433185
0.0023385137
0.0022430853
0.0021462474
0.002047426
0.0019476011
0.0018455594
0.0017421665
0.0016371775
0.0015306423
0.001423202
0.0013144193
0.0012056765
0.0010965671
0.00098896869
0.00088228579
0.00078308266
0.00067879561
0.00062949387
0.00044921296
0.001087985
-0.00069311995
0.021663848
0.020297112
0.018669646
0.016859078
0.014958677
0.013125061
0.011501787
0.010159889
0.0090970327
0.0082666338
0.0076103854
0.0070800593
0.0066430507
0.0062775002
0.0059673002
0.0057004988
0.0054684065
0.0052643007
0.0050828994
0.0049201936
0.0047728852
0.0046381611
0.0045139559
0.0043986953
0.0042908286
0.0041889979
0.0040924064
0.0040003447
0.0039118641
0.0038263721
0.0037438578
0.0036640656
0.0035862915
0.0035104209
0.0034369257
0.003365978
0.0032973425
0.00323137
0.003169106
0.0031114725
0.0030590931
0.0030131506
0.0029757848
0.0029488862
0.0029338996
0.0029334703
0.0029504075
0.0029856268
0.0030390596
0.0031102818
0.0031978447
0.0032990118
0.003410363
0.003527801
0.0036457695
0.0037578863
0.0038557147
0.0039307051
0.0039767002
0.0039914139
0.0039764021
0.0039361693
0.0038763383
0.0038021062
0.0037187965
0.0036293999
0.0035366551
0.0034428855
0.0033493992
0.0032556037
0.0031632005
0.0030717442
0.0029804928
0.0028903538
0.002800263
0.0027105653
0.0026208956
0.0025290828
0.0024358575
0.0023414151
0.0022457852
0.0021488287
0.0020500955
0.0019501105
0.0018480038
0.0017447935
0.0016398765
0.0015334021
0.0014260322
0.0013172829
0.0012085478
0.0010994303
0.00099179914
0.00088508114
0.00078576551
0.00068151791
0.0006316137
0.00046009647
0.0010909518
-0.00066469464
0.020992349
0.019740395
0.018272715
0.016642382
0.014917803
0.013230074
0.011706562
0.010416376
0.0093669877
0.008526925
0.0078511444
0.0072990283
0.0068408954
0.0064558499
0.0061281786
0.005845903
0.005600097
0.0053838699
0.00519177
0.0050195674
0.0048638261
0.0047216503
0.0045908186
0.0044696148
0.0043564506
0.0042499295
0.0041491248
0.0040532642
0.0039614347
0.0038729968
0.003787804
0.0037055883
0.0036257317
0.0035480593
0.0034729292
0.0034005154
0.0033306595
0.0032636709
0.0032004926
0.0031420298
0.0030889552
0.0030424129
0.0030043959
0.0029767704
0.0029610253
0.0029596117
0.0029751678
0.0030086718
0.0030600751
0.0031289315
0.0032138377
0.0033121508
0.0034205013
0.0035348377
0.0036497315
0.0037589133
0.0038541761
0.0039272516
0.0039721256
0.0039865838
0.0039720572
0.0039325109
0.0038734937
0.0038001957
0.003717707
0.0036291035
0.0035367045
0.0034435304
0.0033503531
0.0032567117
0.0031644652
0.0030731002
0.0029819386
0.0028918988
0.0028018869
0.0027123049
0.002622717
0.0025310124
0.0024379806
0.0023436569
0.0022481025
0.0021513794
0.0020526594
0.0019525122
0.0018504954
0.0017472377
0.0016420933
0.0015357668
0.0014285113
0.0013198129
0.0012111441
0.0011020659
0.00099442916
0.00088771504
0.00078830067
0.00068412823
0.00063347081
0.00047032103
0.0010881528
-0.00063418268
0.020368094
0.019220415
0.017893638
0.016422306
0.014855731
0.013303162
0.01187656
0.010641628
0.0096127756
0.0087705596
0.0080813141
0.0075116906
0.0070353404
0.0066327341
0.0062888309
0.0059918746
0.0057328753
0.0055048488
0.0053022349
0.0051206433
0.0049565173
0.0048068853
0.0046693996
0.0045422183
0.0044237055
0.004312427
0.0042073495
0.0041076356
0.0040123902
0.0039209357
0.0038330119
0.0037483268
0.0036663282
0.0035867974
0.0035099909
0.0034360745
0.0033649524
0.0032969025
0.0032327747
0.0031734511
0.0031196419
0.0030724566
0.0030337554
0.003005368
0.002988813
0.0029863715
0.0030005144
0.0030322627
0.0030815932
0.003148042
0.003230247
0.0033256558
0.0034309541
0.0035421396
0.0036539087
0.0037601212
0.0038527443
0.0039239089
0.0039676331
0.0039817991
0.003967708
0.0039288347
0.0038706409
0.0037982755
0.0037165966
0.0036287907
0.0035368143
0.003444177
0.0033513012
0.003257889
0.0031657711
0.003074438
0.0029833279
0.0028933062
0.0028032649
0.0027137072
0.0026241376
0.0025324962
0.0024396068
0.0023453902
0.0022499774
0.0021533995
0.0020547392
0.0019547429
0.0018529457
0.0017495322
0.0016443076
0.0015380579
0.0014306427
0.0013219546
0.0012134248
0.0011043795
0.00099679322
0.00089013254
0.00079063586
0.00068658158
0.00063504887
0.00047971483
0.0010794936
-0.00060185496
0.019786519
0.018733642
0.017531437
0.016200577
0.014775869
0.013348073
0.012014814
0.010837379
0.0098347905
0.0089970165
0.0082999803
0.0077170745
0.0072254997
0.006807409
0.0064486682
0.0061379561
0.0058663859
0.0056269664
0.005414091
0.0052232669
0.0050508435
0.004893784
0.004749641
0.0046164646
0.004492567
0.0043764773
0.0042670749
0.0041634586
0.0040647367
0.0039702006
0.0038794944
0.0037922949
0.003708098
0.0036266533
0.0035481282
0.0034726721
0.0034002387
0.003331082
0.0032659684
0.0032057511
0.0031511674
0.0031032951
0.0030638744
0.0030346887
0.0030172732
0.0030137584
0.0030264536
0.0030564061
0.003103621
0.0031676207
0.0032470804
0.0033395349
0.0034417298
0.003549715
0.0036583112
0.0037615208
0.0038514343
0.0039206892
0.0039632283
0.0039770638
0.0039633574
0.0039251413
0.0038677693
0.0037963353
0.0037154865
0.0036283866
0.0035370415
0.0034448374
0.0033522549
0.0032590958
0.0031671061
0.0030758524
0.0029848099
0.0028947468
0.0028046222
0.0027150314
0.0026253868
0.002533715
0.0024408924
0.0023467399
0.0022514382
0.0021549636
0.0020563958
0.0019565471
0.0018548618
0.0017515179
0.0016465198
0.0015402649
0.0014327332
0.0013241025
0.0012154834
0.0011063231
0.00099887694
0.00089224078
0.00079269899
0.00068881901
0.00063633156
0.00048814164
0.0010652715
-0.00056808986
0.019243551
0.018276911
0.017185117
0.015978575
0.014681198
0.013368237
0.012124231
0.011005431
0.010033626
0.00920599
0.0085063869
0.0079143006
0.0074105307
0.0069791386
0.006607087
0.0062836674
0.006000249
0.0057499272
0.0055271119
0.0053272644
0.0051466726
0.0049822496
0.0048314726
0.0046923025
0.0045630004
0.0044420601
0.0043282897
0.0042207281
0.0041184766
0.0040207995
0.0039272613
0.0038375038
0.0037510558
0.0036676436
0.0035873572
0.003510324
0.0034365351
0.0033662264
0.0033000892
0.0032389439
0.0031835452
0.0031349414
0.0030947637
0.003064742
0.0030464153
0.0030417803
0.0030529919
0.0030811089
0.0031261655
0.0031876743
0.0032643449