/*--------------------------------*- C++ -*----------------------------------*\
| =========                 |                                                 |
| \\      /  F ield         | OpenFOAM: The Open Source CFD Toolbox           |
|  \\    /   O peration     | Version:  2206                                  |
|   \\  /    A nd           | Website:  www.openfoam.com                      |
|    \\/     M anipulation  |                                                 |
\*---------------------------------------------------------------------------*/
FoamFile
{
    version     2.0;
    format      ascii;
    arch        "LSB;label=32;scalar=64";
    class       surfaceScalarField;
    location    "1500";
    object      phi;
}
// * * * * * * * * * * * * * * * * * * * * * * * * * * * * * * * * * * * * * //

dimensions      [0 3 -1 0 0 0 0];

oriented        oriented;

internalField   nonuniform List<scalar> 
14782
(
0.00061767897
8.777989e-05
-0.00070545886
0.00051028652
0.00010739245
0.00040011825
0.00011016827
0.00030666003
9.3458217e-05
0.00023999012
6.6669905e-05
0.0001992555
4.0734627e-05
0.00017534093
2.391457e-05
0.00016116894
1.417199e-05
0.00015175976
9.4091735e-06
0.00014419086
7.568909e-06
0.00013731961
6.8712472e-06
0.00013095678
6.3628241e-06
0.00012514664
5.810146e-06
0.00011985232
5.2943154e-06
0.00011501705
4.8352762e-06
0.00011061468
4.4023686e-06
0.00010660772
4.0069537e-06
0.00010291549
3.6922371e-06
9.9487494e-05
3.4279931e-06
9.6303538e-05
3.1839553e-06
9.3341639e-05
2.9618995e-06
9.0567002e-05
2.7746365e-06
8.7958275e-05
2.6087275e-06
8.5506052e-05
2.4522225e-06
8.3197513e-05
2.3085391e-06
8.1014047e-05
2.1834659e-06
7.8944665e-05
2.0693824e-06
7.6984596e-05
1.960069e-06
7.5126521e-05
1.858075e-06
7.3360977e-05
1.7655433e-06
7.1682828e-05
1.6781499e-06
7.0089719e-05
1.5931086e-06
6.8577467e-05
1.5122521e-06
6.7141374e-05
1.4360934e-06
6.5779226e-05
1.3621473e-06
6.4490115e-05
1.2891111e-06
6.3272333e-05
1.2177825e-06
6.2124874e-05
1.1474589e-06
6.1048644e-05
1.0762299e-06
6.0045375e-05
1.0032687e-06
5.9116302e-05
9.2907331e-07
5.8263084e-05
8.532179e-07
5.7488887e-05
7.7419688e-07
5.6796199e-05
6.9268793e-07
5.6192824e-05
6.0337546e-07
5.5684451e-05
5.083721e-07
5.5279618e-05
4.0483343e-07
5.4984977e-05
2.9464133e-07
5.4799855e-05
1.8512119e-07
5.4722532e-05
7.7323345e-08
5.4748703e-05
-2.6171114e-08
5.487156e-05
-1.2285648e-07
5.5078887e-05
-2.0732721e-07
5.5350858e-05
-2.7197079e-07
5.5674321e-05
-3.2346315e-07
5.6036487e-05
-3.6216642e-07
5.6403999e-05
-3.6751165e-07
5.6740156e-05
-3.3615666e-07
5.7008791e-05
-2.6863504e-07
5.7194643e-05
-1.8585251e-07
5.7294936e-05
-1.0029314e-07
5.7313113e-05
-1.8176875e-08
5.7259239e-05
5.3874698e-08
5.7146599e-05
1.1264006e-07
5.6988609e-05
1.5798992e-07
5.6797186e-05
1.9142284e-07
5.6583066e-05
2.1411934e-07
5.6354061e-05
2.2900496e-07
5.6116022e-05
2.3803945e-07
5.5873408e-05
2.4261385e-07
5.5629464e-05
2.4394378e-07
5.5385894e-05
2.4357023e-07
5.5144211e-05
2.4168301e-07
5.490568e-05
2.385308e-07
5.4670207e-05
2.3547311e-07
5.4438403e-05
2.3180466e-07
5.4206957e-05
2.3144528e-07
5.3971417e-05
2.3554045e-07
5.3733089e-05
2.3832805e-07
5.3493304e-05
2.3978444e-07
5.3252968e-05
2.403358e-07
5.3011979e-05
2.4098995e-07
5.2769079e-05
2.4289943e-07
5.2524454e-05
2.4462506e-07
5.2277507e-05
2.4694696e-07
5.2028498e-05
2.4900859e-07
5.1777502e-05
2.5099653e-07
5.152463e-05
2.5287236e-07
5.1270401e-05
2.5422832e-07
5.1014673e-05
2.5572794e-07
5.0758028e-05
2.5664537e-07
5.050032e-05
2.5770807e-07
5.0241711e-05
2.5860886e-07
4.9981902e-05
2.5980899e-07
4.972002e-05
2.618825e-07
4.945604e-05
2.6397914e-07
4.9210608e-05
2.4543273e-07
4.8807468e-05
4.0313988e-07
4.8816964e-05
-9.4960655e-09
8.4125678e-07
0.00079174803
9.1057058e-05
-0.0007950252
0.0007787752
0.00012036529
0.00075193667
0.0001370068
0.00070878727
0.00013660761
0.0006552494
0.00012020778
0.00060116548
9.481855e-05
0.00055307757
7.2002479e-05
0.00051314415
5.4105407e-05
0.00048028032
4.2272997e-05
0.00045278135
3.5067883e-05
0.00042915057
3.0502027e-05
0.00040848639
2.7027004e-05
0.00039017574
2.4120793e-05
0.00037373359
2.1736471e-05
0.00035881639
1.9752477e-05
0.00034522024
1.7998513e-05
0.00033277264
1.6454552e-05
0.00032129703
1.5167852e-05
0.00031065843
1.4066594e-05
0.00030076647
1.307591e-05
0.00029154322
1.2185151e-05
0.00028290702
1.1410835e-05
0.00027479551
1.072024e-05
0.00026716279
1.0084938e-05
0.0002599654
9.5059281e-06
0.00025315967
8.9891956e-06
0.0002467128
8.5162577e-06
0.00024060209
8.070776e-06
0.0002348051
7.6550711e-06
0.00022929855
7.2720901e-06
0.00022406562
6.911076e-06
0.00021909491
6.5638186e-06
0.00021437466
6.2325044e-06
0.00020989342
5.917338e-06
0.00020564378
5.6117854e-06
0.00020162154
5.3113526e-06
0.000197823
5.0163211e-06
0.00019424653
4.7239297e-06
0.00019089433
4.428427e-06
0.0001877713
4.1262939e-06
0.00018488301
3.8173658e-06
0.00018223668
3.4995523e-06
0.00017984264
3.1682298e-06
0.00017771049
2.8248445e-06
0.00017586677
2.4470895e-06
0.00017432083
2.0543193e-06
0.0001730932
1.6324585e-06
0.00017220507
1.1827689e-06
0.00017165167
7.3852297e-07
0.00017142463
3.0436604e-07
0.00017150776
-1.093011e-07
0.00017187697
-4.9207214e-07
0.00017249342
-8.2377683e-07
0.00017330208
-1.0806218e-06
0.00017425489
-1.2762779e-06
0.00017529697
-1.4042445e-06
0.0001763344
-1.4049451e-06
0.00017726648
-1.2682324e-06
0.000177999
-1.0011597e-06
0.00017849188
-6.7872755e-07
0.00017873813
-3.4654782e-07
0.00017874852
-2.8569117e-08
0.00017855128
2.5112286e-07
0.00017818359
4.8032601e-07
0.00017768383
6.5775372e-07
0.00017708661
7.8864159e-07
0.00017642205
8.7867957e-07
0.00017571311
9.3793921e-07
0.00017497718
9.7397748e-07
0.00017422731
9.9247788e-07
0.00017347293
9.9832258e-07
0.00017271972
9.9678211e-07
0.00017197225
9.8915506e-07
0.00017123397
9.7680822e-07
0.00017050551
9.6393346e-07
0.00016978759
9.4972151e-07
0.0001690693
9.4974371e-07
0.00016833882
9.6601142e-07
0.00016760048
9.7667327e-07
0.00016685851
9.8175367e-07
0.0001661147
9.8414984e-07
0.00016536835
9.8733401e-07
0.00016461675
9.945022e-07
0.00016385955
1.001828e-06
0.00016309561
1.0108803e-06
0.00016232537
1.0192464e-06
0.00016154916
1.0272153e-06
0.0001607675
1.0345279e-06
0.00015998163
1.0400944e-06
0.00015919175
1.0456137e-06
0.00015839908
1.0493143e-06
0.00015760391
1.0528824e-06
0.00015680624
1.0562713e-06
0.00015600681
1.059243e-06
0.00015519952
1.0691723e-06
0.00015439732
1.066174e-06
0.0001535872
1.0555535e-06
0.00015257125
1.4190938e-06
0.00015201707
5.4468519e-07
2.5312623e-06
0.00083155464
8.6586333e-05
-0.00082708392
0.00083707077
0.00011484916
0.00084159913
0.00013247844
0.0008405028
0.00013770395
0.00083138737
0.00012932321
0.00081410595
0.00011209997
0.00079126446
9.4843963e-05
0.00076527372
8.009615e-05
0.00073803381
6.951291e-05
0.00071105705
6.2044641e-05
0.00068518338
5.6375693e-05
0.0006607099
5.1500487e-05
0.00063764471
4.7185986e-05
0.00061588526
4.3495923e-05
0.00059536624
4.0271497e-05
0.00057605807
3.7306682e-05
0.00055790237
3.4610251e-05
0.00054080488
3.2265337e-05
0.00052468128
3.0190196e-05
0.00050946643
2.8290766e-05
0.00049509496
2.6556614e-05
0.00048149316
2.5012634e-05
0.00046860076
2.3612644e-05
0.00045637032
2.2315379e-05
0.00044475567
2.1120573e-05
0.00043370838
2.0036494e-05
0.00042318946
1.903517e-05
0.00041316909
1.8091155e-05
0.00040361851
1.7205652e-05
0.00039450957
1.6381029e-05
0.00038582082
1.559982e-05
0.00037753648
1.4848165e-05
0.00036964154
1.4127444e-05
0.00036212247
1.3436406e-05
0.00035497046
1.276379e-05
0.0003481809
1.210092e-05
0.00034175105
1.1446171e-05
0.00033568125
1.0793722e-05
0.00032997649
1.0133187e-05
0.00032464555
9.4572342e-06
0.00031969929
8.7636246e-06
0.00031515155
8.0472998e-06
0.00031102015
7.2996225e-06
0.00030732438
6.520623e-06
0.000304098
5.6734685e-06
0.00030136386
4.788457e-06
0.00029914295
3.8533629e-06
0.00029745185
2.8738705e-06
0.00029628344
1.9069305e-06
0.00029561932
9.6849275e-07
0.00029542848
8.1541715e-08
0.00029566809
-7.3168287e-07
0.00029627656
-1.4322486e-06
0.00029717311
-1.9771743e-06
0.00029827962
-2.3827867e-06
0.00029950101
-2.6256313e-06
0.00030069906
-2.6029957e-06
0.00030173428
-2.303456e-06
0.00030248845
-1.7553287e-06
0.00030290802
-1.0982928e-06
0.00030298495
-4.2348274e-07
0.00030273681
2.1957357e-07
0.00030220327
7.8465658e-07
0.00030143638
1.2472198e-06
0.00030048888
1.6052531e-06
0.00029940841
1.8691113e-06
0.00029823627
2.0508205e-06
0.00029700485
2.1693558e-06
0.00029573902
2.2398132e-06
0.00029445755
2.2739485e-06
0.00029317393
2.2819378e-06
0.00029189682
2.2738923e-06
0.00029063306
2.2529111e-06
0.00028938757
2.2223004e-06
0.00028816165
2.1898557e-06
0.00028695544
2.1559337e-06
0.00028575163
2.153548e-06
0.00028453533
2.1823193e-06
0.00028331426
2.1977375e-06
0.00028209302
2.2030001e-06
0.00028087224
2.2049203e-06
0.00027965009
2.2094928e-06
0.00027842279
2.2218017e-06
0.000277189
2.2356167e-06
0.00027594705
2.2528267e-06
0.00027469709
2.2692108e-06
0.0002734394
2.2848995e-06
0.00027217473
2.2992027e-06
0.00027090453
2.3102948e-06
0.00026962932
2.3208165e-06
0.00026835056
2.3280789e-06
0.00026706897
2.3344725e-06
0.00026578428
2.3409561e-06
0.00026449837
2.3451613e-06
0.00026320032
2.3672204e-06
0.00026191567
2.3508236e-06
0.00026058595
2.3852677e-06
0.00025910085
2.9042025e-06
0.00025782957
1.8159618e-06
4.6148487e-06
0.00086134582
8.225708e-05
-0.00085701656
0.00086788059
0.00010831439
0.00087517035
0.00012518868
0.00088219539
0.00013067891
0.00088610264
0.00012541596
0.00088508572
0.00011311688
0.00088099926
9.8930423e-05
0.00087427769
8.6817726e-05
0.00086519239
7.8598209e-05
0.00085398878
7.3248247e-05
0.00084099684
6.9367637e-05
0.00082641748
6.6079843e-05
0.00081061575
6.2987714e-05
0.00079418122
5.9930453e-05
0.0007774531
5.6999619e-05
0.00076065704
5.4102746e-05
0.00074393213
5.1335159e-05
0.00072736594
4.8831522e-05
0.0007110433
4.651284e-05
0.00069504311
4.4290949e-05
0.00067942055
4.2179178e-05
0.00066420262
4.0230561e-05
0.00064941097
3.8404301e-05
0.00063506389
3.6662459e-05
0.00062117023
3.5014234e-05
0.00060772663
3.3480089e-05
0.00059472997
3.203183e-05
0.00058217813
3.0642992e-05
0.00057006473
2.9319059e-05
0.00055838019
2.806556e-05
0.00054711813
2.6861884e-05
0.00053627469
2.5691604e-05
0.00052584515
2.4556983e-05
0.00051582537
2.3456192e-05
0.00050621526
2.2373899e-05
0.00049701872
2.129746e-05
0.0004882407
2.0224186e-05
0.00047988761
1.9146817e-05
0.00047196947
1.8051323e-05
0.00046449998
1.6926722e-05
0.00045749529
1.5768313e-05
0.00045097488
1.4567715e-05
0.0004449621
1.3312405e-05
0.00043948356
1.1999163e-05
0.00043457314
1.0583884e-05
0.00043025691
9.1046853e-06
0.00042654523
7.5650427e-06
0.00042343845
5.9806568e-06
0.00042092461
4.4207681e-06
0.00041897993
2.9131732e-06
0.00041756995
1.4915198e-06
0.00041664533
1.9293334e-07
0.00041613552
-9.2243563e-07
0.00041595721
-1.7988631e-06
0.00041602423
-2.4498039e-06
0.00041621883
-2.8202351e-06
0.00041638904
-2.7732081e-06
0.00041640305
-2.3174619e-06
0.00041616465
-1.5169248e-06
0.00041563366
-5.6731035e-07
0.00041480622
4.0395686e-07
0.00041370172
1.3240765e-06
0.00041235768
2.1286942e-06
0.000410819
2.7859045e-06
0.00040913099
3.2932653e-06
0.00040733552
3.6645818e-06
0.00040546993
3.9164101e-06
0.00040356447
4.0748075e-06
0.00040164302
4.1612644e-06
0.00039972391
4.1930656e-06
0.00039782033
4.1855123e-06
0.00039594118
4.1530409e-06
0.00039409368
4.1004087e-06
0.0003922827
4.0332818e-06
0.00039050932
3.963237e-06
0.00038877227
3.8929883e-06
0.0003870662
3.8596136e-06
0.00038538368
3.8648439e-06
0.00038371999
3.8614288e-06
0.00038207116
3.8518262e-06
0.00038043429
3.8417928e-06
0.00037880586
3.8379175e-06
0.00037718107
3.846594e-06
0.00037555728
3.8594113e-06
0.00037393188
3.8782198e-06
0.00037230412
3.8969767e-06
0.00037067361
3.9154077e-06
0.00036904057
3.9322429e-06
0.00036740599
3.944872e-06
0.00036577013
3.9566821e-06
0.00036413401
3.9641913e-06
0.00036249834
3.9701458e-06
0.00036086226
3.9770316e-06
0.00035922818
3.9792455e-06
0.00035758186
4.0135412e-06
0.00035595548
3.9772035e-06
0.00035426627
4.0744787e-06
0.00035247031
4.7001609e-06
0.00035066422
3.622048e-06
6.844666e-06
0.00089163424
7.8533074e-05
-0.00088791024
0.00089766596
0.00010228267
0.00090487184
0.0001179828
0.00091177634
0.00012377441
0.00091694272
0.00012024958
0.00091986916
0.00011019044
0.00092050833
9.829125e-05
0.00091936581
8.7960248e-05
0.00091747882
8.0485204e-05
0.0009149274
7.5799666e-05
0.00091163749
7.265754e-05
0.00090738911
7.0328231e-05
0.0009019372
6.8439617e-05
0.00089522096
6.6646694e-05
0.00088731329
6.4907289e-05
0.00087823611
6.3179923e-05
0.00086814028
6.1430994e-05
0.00085731383
5.9657976e-05
0.00084591957
5.7907092e-05
0.00083407861
5.6131912e-05
0.00082188933
5.436846e-05
0.00080943009
5.2689801e-05
0.00079677869
5.1055701e-05
0.00078401395
4.9427193e-05
0.00077120501
4.7823178e-05
0.00075840785
4.6277245e-05
0.00074567526
4.4764427e-05
0.00073305465
4.3263596e-05
0.00072058385
4.1789868e-05
0.00070829311
4.0356299e-05
0.00069621137
3.8943617e-05
0.00068436579
3.7537187e-05
0.00067277934
3.6143432e-05
0.00066147316
3.4762371e-05
0.00065047093
3.3376127e-05
0.00063979868
3.1969717e-05
0.000629477
3.0545861e-05
0.00061952204
2.9101776e-05
0.00060995314
2.7620224e-05
0.00060079326
2.6086603e-05
0.00059206739
2.4494187e-05
0.00058380312
2.2831984e-05
0.00057603088
2.1084643e-05
0.00056878809
1.9241949e-05
0.0005621043
1.7267674e-05
0.00055599079
1.5218201e-05
0.00055044412
1.3111708e-05
0.00054545743
1.0967353e-05
0.00054102511
8.8530851e-06
0.00053713373
6.8045502e-06
0.00053375984
4.8654086e-06
0.0005308628
3.0899763e-06
0.00052837956
1.5608019e-06
0.00052624614
3.345608e-07
0.0005243711
-5.7476431e-07
0.00052260805
-1.0571815e-06
0.00052082236
-9.8752316e-07
0.0005189401
-4.3519626e-07
0.0005169225
5.006705e-07
0.00051475889
1.5963028e-06
0.00051245313
2.7097118e-06
0.0005100182
3.759011e-06
0.0005074745
4.6723929e-06
0.00050484583
5.4145771e-06
0.00050215714
5.981955e-06
0.00049943291
6.3888073e-06
0.00049669654
6.6527788e-06
0.00049396791
6.8034431e-06
0.00049126344
6.8657335e-06
0.00048859611
6.8603942e-06
0.00048597529
6.8063326e-06
0.00048340776
6.7205703e-06
0.0004808993
6.6088705e-06
0.00047845311
6.4794673e-06
0.00047606893
6.3474215e-06
0.00047374391
6.2180083e-06
0.00047147927
6.1242551e-06
0.00046927338
6.0707305e-06
0.00046711575
6.0190599e-06
0.00046499634
5.9712377e-06
0.00046290866
5.9294644e-06
0.00046084733
5.899255e-06
0.00045880631
5.8876132e-06
0.00045678161
5.8841133e-06
0.00045476944
5.8903837e-06
0.00045276776
5.8986573e-06
0.00045077506
5.9081081e-06
0.00044879051
5.9167926e-06
0.00044681412
5.9212669e-06
0.00044484534
5.9254619e-06
0.0004428844
5.9251288e-06
0.00044093146
5.9230892e-06
0.00043898479
5.9236982e-06
0.0004370467
5.9173341e-06
0.00043510064
5.9595998e-06
0.00043318123
5.8966201e-06
0.00043119498
6.0607281e-06
0.00042914228
6.7528563e-06
0.00042690564
5.8586922e-06
9.1700817e-06
0.0009230256
7.5203157e-05
-0.00091969568
0.00092854386
9.6764403e-05
0.00093511604
0.00011141062
0.00094153421
0.00011735624
0.0009466838
0.0001151
0.00094992613
0.0001069481
0.00095151279
9.6704591e-05
0.00095188779
8.7585253e-05
0.00095154884
8.0824155e-05
0.00095103691
7.631159e-05
0.00095038882
7.3305636e-05
0.0009495388
7.1178247e-05
0.00094838772
6.9590697e-05
0.00094680878
6.8225633e-05
0.00094472485
6.6991227e-05
0.00094200028
6.5904493e-05
0.00093849448
6.493679e-05
0.00093416578
6.3986673e-05
0.00092902001
6.3052864e-05
0.00092303662
6.2115305e-05
0.00091626916
6.1135922e-05
0.00090884509
6.0113864e-05
0.00090084038
5.9060414e-05
0.00089231384
5.7953733e-05
0.00088331781
5.6819208e-05
0.00087390483
5.5690225e-05
0.00086413143
5.4537831e-05
0.00085405182
5.3343203e-05
0.0008437186
5.2123084e-05
0.00083318332
5.0891583e-05
0.00082249848
4.9628453e-05
0.00081171515
4.8320518e-05
0.00080087962
4.6978967e-05
0.00079003478
4.5607208e-05
0.00077922345
4.4187454e-05
0.00076848853
4.2704634e-05
0.00075787199
4.1162408e-05
0.00074741545
3.955831e-05
0.00073716053
3.7875142e-05
0.00072714866
3.6098483e-05
0.00071742081
3.4222033e-05
0.00070801934
3.2233452e-05
0.00069898898
3.0115002e-05
0.00069038805
2.7842885e-05
0.00068222249
2.5433231e-05
0.00067447084
2.2969846e-05
0.00066715621
2.0426337e-05
0.00066030922
1.7814343e-05
0.00065394823
1.5214078e-05
0.00064807303
1.2679755e-05
0.00064266597
1.0272467e-05
0.00063768824
8.0677047e-06
0.00063308933
6.1597074e-06
0.00062884124
4.5826519e-06
0.00062481455
3.4519327e-06
0.00062081897
2.9383922e-06
0.00061680266
3.0287923e-06
0.00061279115
3.5763072e-06
0.00060879957
4.4922511e-06
0.00060483246
5.5634192e-06
0.00060089196
6.6502066e-06
0.00059698049
7.67048e-06
0.00059310041
8.5524759e-06
0.00058925585
9.2591315e-06
0.00058545293
9.7848827e-06
0.00058169897
1.0142764e-05
0.00057800253
1.0349221e-05
0.00057437158
1.0434387e-05
0.00057081345
1.0423867e-05
0.00056733443
1.033942e-05
0.00056393964
1.020112e-05
0.00056063225
1.0027963e-05
0.0005574143
9.8268144e-06
0.00055428639
9.6073781e-06
0.00055124639
9.3874254e-06
0.00054829029
9.1741061e-06
0.00054541639
8.9981516e-06
0.00054262324
8.8638787e-06
0.00053990396
8.7383435e-06
0.00053724857
8.626627e-06
0.00053464895
8.5290887e-06
0.00053209821
8.4499936e-06
0.00052958925
8.3965701e-06
0.00052711686
8.3565072e-06
0.00052467606
8.3311773e-06
0.00052226347
8.3112497e-06
0.00051987626
8.2953197e-06
0.00051751232
8.2807356e-06
0.00051517038
8.2631996e-06
0.00051284901
8.2468322e-06
0.00051054744
8.226704e-06
0.00050826473
8.2057974e-06
0.00050599804
8.1903876e-06
0.00050374907
8.1663056e-06
0.0005014997
8.2089734e-06
0.00049928427
8.1120436e-06
0.00049700498
8.3400253e-06
0.00049469362
9.064216e-06
0.00049206393
8.4883737e-06
1.1623126e-05
0.00095540268
7.2204131e-05
-0.00095240365
0.00096048638
9.1680704e-05
0.00096655526
0.00010534174
0.00097252409
0.00011138741
0.00097740652
0.00011021757
0.00098065215
0.00010370247
0.00098240347
9.4953274e-05
0.00098316357
8.6825147e-05
0.00098337412
8.0613612e-05
0.00098335933
7.6326372e-05
0.00098326978
7.3395188e-05
0.00098315426
7.1293771e-05
0.00098300925
6.9735703e-05
0.00098277059
6.8464294e-05
0.00098239245
6.7369372e-05
0.00098183739
6.6459552e-05
0.00098105577
6.5718403e-05
0.00097998435
6.5058091e-05
0.0009785725
6.4464718e-05
0.00097673365
6.3954156e-05
0.00097437499
6.3494578e-05
0.00097145508
6.3033774e-05
0.00096795259
6.2562912e-05
0.00096383564
6.2070678e-05
0.00095911891
6.1535936e-05
0.00095385309
6.095605e-05
0.00094806637
6.0324551e-05
0.00094178362
5.9625947e-05
0.00093502787
5.8878833e-05
0.00092782516
5.8094294e-05
0.00092020868
5.7244931e-05
0.00091221442
5.6314778e-05
0.00090387392
5.5319473e-05
0.00089521924
5.4261886e-05
0.00088628873
5.3117961e-05
0.00087712187
5.1871502e-05
0.00086776067
5.0523605e-05
0.0008582523
4.9066677e-05
0.00084864629
4.7481156e-05
0.00083899324
4.5751533e-05
0.00082934467
4.3870599e-05
0.0008197542
4.1823928e-05
0.00081027903
3.9590167e-05
0.00080097994
3.7141978e-05
0.00079190501
3.4508154e-05
0.00078307892
3.1795939e-05
0.00077451908
2.8986174e-05
0.00076625623
2.6077198e-05
0.00075832124
2.3149066e-05
0.00075073357
2.0267426e-05
0.00074349763
1.7508406e-05
0.00073659872
1.496662e-05
0.00073002223
1.2736192e-05
0.00072377498
1.0829902e-05
0.00071777552
9.451399e-06
0.00071188493
8.8289772e-06
0.00070606427
8.8494515e-06
0.00070033301
9.3075706e-06
0.00069470359
1.012167e-05
0.00068918133
1.1085679e-05
0.00068377297
1.2058564e-05
0.00067848239
1.2961062e-05
0.00067330812
1.3726746e-05
0.00066825009
1.4317163e-05
0.00066330888
1.4726096e-05
0.00065848416
1.4967484e-05
0.00065377641
1.5056967e-05
0.00064918658
1.5024214e-05
0.00064471581
1.4894641e-05
0.00064036517
1.4690056e-05
0.00063613621
1.4430087e-05
0.00063202905
1.4135116e-05
0.00062804267
1.3813193e-05
0.00062417523
1.3474826e-05
0.00062042271
1.3139941e-05
0.00061678011
1.2816704e-05
0.00061324318
1.2535089e-05
0.0006098088
1.2298252e-05
0.00060647224
1.2074908e-05
0.00060322525
1.1873617e-05
0.00060005982
1.1694515e-05
0.00059696848
1.1541339e-05
0.00059394336
1.1421688e-05
0.00059097827
1.1321592e-05
0.00058806719
1.1242261e-05
0.00058520543
1.117301e-05
0.00058238883
1.1111923e-05
0.00057961389
1.1055668e-05
0.00057687799
1.0999106e-05
0.00057417849
1.0946329e-05
0.00057151344
1.0891752e-05
0.00056888068
1.0838561e-05
0.00056627613
1.0794939e-05
0.00056370057
1.0741864e-05
0.00056113464
1.0774899e-05
0.00055861125
1.0635442e-05
0.00055603021
1.0921066e-05
0.00055344849
1.1645931e-05
0.00055044123
1.1495637e-05
1.4234783e-05
0.00098880611
6.947488e-05
-0.00098607686
0.00099348349
8.7003332e-05
0.0009991135
9.9711722e-05
0.0010046945
0.00010580643
0.0010093512
0.00010556088
0.0010125742
0.00010047947
0.0010144219
9.3105551e-05
0.0010153208
8.5926277e-05
0.0010157068
8.0227568e-05
0.001015879
7.6154138e-05
0.0010159771
7.32971e-05
0.0010160467
7.122417e-05
0.0010161151
6.9667322e-05
0.0010161683
6.8411065e-05
0.0010161784
6.7359311e-05
0.0010161417
6.6496265e-05
0.0010160543
6.5805778e-05
0.0010158898
6.5222576e-05
0.0010156271
6.4727478e-05
0.0010152418
6.4339404e-05
0.0010146987
6.4037661e-05
0.0010139568
6.3775724e-05
0.0010129758
6.3543874e-05
0.0010116946
6.3351867e-05
0.0010100504
6.3180169e-05
0.0010080057
6.3000765e-05
0.0010055287
6.2801508e-05
0.0010025887
6.2565949e-05
0.00099918528
6.2282293e-05
0.00099533222
6.1947351e-05
0.00099103184
6.1545309e-05
0.00098628573
6.1060888e-05
0.00098109862
6.0506581e-05
0.00097547945
5.9881057e-05
0.00096944022
5.9157192e-05
0.00096299505
5.831667e-05
0.00095615948
5.7359174e-05
0.00094895009
5.627607e-05
0.00094138556
5.5045689e-05
0.00093349132
5.3645768e-05
0.00092529876
5.2063165e-05
0.00091684348
5.0279205e-05
0.000908168
4.8265647e-05
0.00089931108
4.5998901e-05
0.0008903516
4.3467629e-05
0.00088138584
4.0761703e-05
0.0008724477
3.792431e-05
0.00086355779
3.4967114e-05
0.00085474992
3.1956933e-05
0.00084606334
2.8954006e-05
0.00083753861
2.6033135e-05
0.00082921265
2.329258e-05
0.00082111399
2.0834855e-05
0.00081325033
1.8693555e-05
0.00080566522
1.7036513e-05
0.00079834069
1.6153514e-05
0.00079119622
1.5993918e-05
0.00078419537
1.6308416e-05
0.00077730713
1.7009911e-05
0.00077053159
1.786122e-05
0.00076388238
1.8707771e-05
0.00075736723
1.947622e-05
0.00075099092
2.0103049e-05
0.00074476368
2.0544403e-05
0.00073869171
2.0798067e-05
0.00073277546
2.0883733e-05
0.00072701603
2.0816396e-05
0.00072141445
2.0625795e-05
0.00071597008
2.033901e-05
0.00071068159
1.9978552e-05
0.00070554857
1.9563105e-05
0.00070056994
1.9113742e-05
0.00069574351
1.8639626e-05
0.00069106593
1.8152403e-05
0.00068653173
1.7674143e-05
0.00068213504
1.7213391e-05
0.00067787023
1.6799904e-05
0.00067373263
1.643585e-05
0.00066971793
1.6089606e-05
0.00066581929
1.5772261e-05
0.00066202952
1.5484283e-05
0.00065834121
1.5229645e-05
0.00065474612
1.5016781e-05
0.00065123729
1.4830419e-05
0.00064780773
1.4671819e-05
0.00064445156
1.452918e-05
0.00064116328
1.4400209e-05
0.00063793797
1.4280972e-05
0.00063477154
1.4165536e-05
0.00063165991
1.4057959e-05
0.00062859971
1.3951952e-05
0.00062558752
1.3850749e-05
0.00062261802
1.3764447e-05
0.00061969084
1.3669042e-05
0.00061678547
1.368027e-05
0.00061393288
1.3488031e-05
0.0006110307
1.3823241e-05
0.00060815809
1.4518542e-05
0.00060476826
1.4885466e-05
1.7036062e-05
0.0010232729
6.6959733e-05
-0.0010207577
0.0010275694
8.2706766e-05
0.0010327856
9.4495576e-05
0.0010380064
0.00010058565
0.001042457
0.00010111029
0.0010456597
9.7276733e-05
0.0010476083
9.1156915e-05
0.0010486431
8.4891504e-05
0.001049153
7.9717694e-05
0.0010494219
7.5885183e-05
0.0010495989
7.3120121e-05
0.0010497449
7.1078154e-05
0.0010498848
6.9527416e-05
0.0010500099
6.8286008e-05
0.0010501121
6.7257117e-05
0.0010501939
6.6414469e-05
0.0010502657
6.5733993e-05
0.001050318
6.5170281e-05
0.0010503336
6.4711858e-05
0.0010503149
6.4358095e-05
0.0010502586
6.4093981e-05
0.001050148
6.388625e-05
0.0010499679
6.3724011e-05
0.0010496995
6.3620266e-05
0.0010493174
6.3562263e-05
0.0010487927
6.3525462e-05
0.0010480933
6.350088e-05
0.0010471737
6.3485547e-05
0.0010459889
6.3467155e-05
0.0010445079
6.342835e-05
0.0010426965
6.3356678e-05
0.0010405244
6.3232953e-05
0.0010379847
6.3046367e-05
0.0010350737
6.2792048e-05
0.0010317807
6.2450212e-05
0.0010280937
6.200363e-05
0.0010240016
6.1451292e-05
0.001019497
6.078067e-05
0.001014576
5.9966677e-05
0.0010092345
5.8987263e-05
0.0010034677
5.7829917e-05
0.00099727177
5.6475174e-05
0.00099064601
5.4891405e-05
0.00098358673
5.3058178e-05
0.00097610262
5.0951745e-05
0.0009682558
4.8608518e-05
0.00096011568
4.606443e-05
0.00095172634
4.3356459e-05
0.0009431298
4.0553473e-05
0.00093437231
3.7711491e-05
0.00092550986
3.4895588e-05
0.0009166095
3.2192934e-05
0.0009077343
2.9710063e-05
0.00089891039
2.7517458e-05
0.00089023801
2.5708899e-05
0.00088185649
2.453503e-05
0.00087376234
2.4088067e-05
0.00086582671
2.4244049e-05
0.00085797403
2.4862591e-05
0.00085022308
2.5612168e-05
0.0008425742
2.6356652e-05
0.00083502611
2.7024315e-05
0.00082759745
2.75317e-05
0.00082031245
2.7829411e-05
0.00081318147
2.7929044e-05
0.00080621025
2.7854952e-05
0.00079940948
2.7617166e-05
0.00079278605
2.7249222e-05
0.00078634106
2.6784e-05
0.00078007531
2.6244307e-05
0.0007739906
2.5647816e-05
0.00076808664
2.5017696e-05
0.0007623615
2.4364766e-05
0.00075681208
2.3701823e-05
0.00075143279
2.3053437e-05
0.00074621788
2.2428305e-05
0.00074116179
2.1855985e-05
0.0007362594
2.1338245e-05
0.00073150631
2.0842692e-05
0.00072689653
2.0382044e-05
0.00072242386
1.9956951e-05
0.00071808138
1.9572129e-05
0.0007138608
1.9237361e-05
0.00070975472
1.8936496e-05
0.00070575536
1.8671179e-05
0.00070185578
1.8428763e-05
0.00069804923
1.8206757e-05
0.00069432944
1.8000765e-05
0.00069069083
1.7804145e-05
0.00068712781
1.7620984e-05
0.00068363549
1.7444271e-05
0.00068020907
1.7277161e-05
0.00067684191
1.7131609e-05
0.00067353237
1.697858e-05
0.00067025875
1.6953889e-05
0.00066704998
1.6696806e-05
0.00066380103
1.7072194e-05
0.00066061157
1.7707996e-05
0.0006568214
1.8675637e-05
2.0057743e-05
0.0010588322
6.4618987e-05
-0.0010564915
0.0010627776
7.8761374e-05
0.0010676046
8.9668558e-05
0.001072487
9.5703269e-05
0.0010767336
9.6863686e-05
0.0010799017
9.4108626e-05
0.0010819383
8.9120351e-05
0.0010831073
8.3722433e-05
0.0010837466
7.9078443e-05
0.001084116
7.5515754e-05
0.0010843636
7.2872507e-05
0.0010845589
7.0882898e-05
0.001084734
6.9352293e-05
0.0010848918
6.8128178e-05
0.0010850306
6.7118361e-05
0.0010851543
6.629077e-05
0.0010852665
6.5621741e-05
0.0010853633
6.5073495e-05
0.0010854449
6.463025e-05
0.0010855145
6.4288553e-05
0.001085577
6.4031472e-05
0.0010856279
6.3835374e-05
0.0010856528
6.3699095e-05
0.0010856506
6.3622483e-05
0.0010856202
6.3592595e-05
0.0010855504
6.359529e-05
0.0010854302
6.362111e-05
0.0010852445
6.3671203e-05
0.0010849735
6.3738189e-05
0.0010845958
6.3806006e-05
0.0010840851
6.3867369e-05
0.0010834062
6.3911865e-05
0.0010825252
6.3927389e-05
0.0010814165
6.3900779e-05
0.0010800467
6.3819985e-05
0.0010783886
6.3661693e-05
0.0010764299
6.3410041e-05
0.0010741533
6.3057219e-05
0.0010715405
6.257946e-05
0.0010685709
6.1956908e-05
0.0010652215
6.1179276e-05
0.001061468
6.0228725e-05
0.0010572843
5.9075109e-05
0.0010526411
5.7701352e-05
0.0010474999
5.6092922e-05
0.0010418415
5.4267003e-05
0.0010356747
5.2231158e-05
0.0010290159
5.0015242e-05
0.0010218833
4.7686153e-05
0.0010143006
4.5294175e-05
0.0010063033
4.2892843e-05
0.00099794332
4.0552934e-05
0.00098928876
3.8364632e-05
0.00098040125
3.6404968e-05
0.0009713731
3.4737047e-05
0.0009623978
3.3510331e-05
0.00095361354
3.2872325e-05
0.00094502013
3.2837455e-05
0.00093659811
3.3284612e-05
0.00092828519
3.3925095e-05
0.00091999592
3.4645918e-05
0.00091172764
3.5292591e-05
0.00090353255
3.5726796e-05
0.00089543038
3.5931578e-05
0.000887427
3.593243e-05
0.00087954632
3.5735627e-05
0.00087181525
3.5348232e-05
0.0008642457
3.4818779e-05
0.00085684442
3.4185278e-05
0.00084962221
3.3466518e-05
0.00084258773
3.2682295e-05
0.00083574369
3.1861736e-05
0.00082909148
3.1016972e-05
0.00082263167
3.0161633e-05
0.00081636116
2.9323948e-05
0.00081027661
2.8512855e-05
0.00080437491
2.7757685e-05
0.0007986521
2.7061056e-05
0.00079310437
2.639042e-05
0.00078772675
2.5759666e-05
0.00078251423
2.5169465e-05
0.00077746072
2.462564e-05
0.00077255838
2.41397e-05
0.00076779981
2.369507e-05
0.00076317674
2.3294251e-05
0.00075868146
2.2924038e-05
0.00075430624
2.2581979e-05
0.00075004357
2.2263436e-05
0.00074588652
2.1961197e-05
0.00074182802
2.1679481e-05
0.00073786169
2.1410606e-05
0.00073398126
2.1157586e-05
0.00073017872
2.0934155e-05
0.00072645105
2.0706243e-05
0.00072277532
2.0629626e-05
0.00071917842
2.0293707e-05
0.00071555209
2.0698519e-05
0.00071201547
2.1244621e-05
0.00070779797
2.2893129e-05
2.3331023e-05
0.001095518
6.2424471e-05
-0.0010933235
0.0010991445
7.5134903e-05
0.0011036083
8.5204714e-05
0.0011081727
9.1138855e-05
0.0011122176
9.2818844e-05
0.0011153355
9.0990743e-05
0.0011174403
8.7015515e-05
0.0011187298
8.2432919e-05
0.0011194929
7.8315408e-05
0.0011199653
7.5043307e-05
0.0011202904
7.254742e-05
0.0011205413
7.0632018e-05
0.0011207549
6.9138676e-05
0.0011209418
6.7941269e-05
0.0011211045
6.69556e-05
0.001121249
6.614636e-05
0.0011213801
6.5490576e-05
0.001121498
6.4955571e-05
0.0011216045
6.4523787e-05
0.0011217031
6.4189978e-05
0.0011217949
6.3939639e-05
0.0011218775
6.3752833e-05
0.0011219509
6.3625637e-05
0.0011220171
6.3556337e-05
0.0011220755
6.3534152e-05
0.001122129
6.3541755e-05
0.0011221672
6.3582975e-05
0.0011221806
6.3657744e-05
0.0011221721
6.3746723e-05
0.0011221335
6.3844573e-05
0.0011220566
6.3944308e-05
0.0011219293
6.4039148e-05
0.0011217351
6.412158e-05
0.0011214578
6.4178119e-05
0.0011210747
6.4203082e-05
0.0011205575
6.4178911e-05
0.0011198802
6.4087343e-05
0.001119019
6.3918432e-05
0.0011179426
6.3655773e-05
0.0011166255
6.3273998e-05
0.0011150505
6.2754372e-05
0.0011131908
6.2088378e-05
0.001111016
6.1249881e-05
0.0011084922
6.022518e-05
0.0011055779
5.9007227e-05
0.0011022282
5.7616681e-05
0.0010984005
5.6058847e-05
0.0010940591
5.4356663e-05
0.0010891733
5.2571965e-05
0.0010837172