/*--------------------------------*- C++ -*----------------------------------*\
| =========                 |                                                 |
| \\      /  F ield         | OpenFOAM: The Open Source CFD Toolbox           |
|  \\    /   O peration     | Version:  2206                                  |
|   \\  /    A nd           | Website:  www.openfoam.com                      |
|    \\/     M anipulation  |                                                 |
\*---------------------------------------------------------------------------*/
FoamFile
{
    version     2.0;
    format      ascii;
    arch        "LSB;label=32;scalar=64";
    class       volVectorField;
    location    "1500";
    object      U;
}
// * * * * * * * * * * * * * * * * * * * * * * * * * * * * * * * * * * * * * //

dimensions      [0 1 -1 0 0 0 0];

internalField   nonuniform List<vector> 
7480
(
(0.82753266 0.011170054 0)
(0.70298535 0.020216807 0)
(0.56653898 0.021428811 0)
(0.43052738 0.014560182 0)
(0.33054441 0.0062893843 0)
(0.26657907 0.0019076951 0)
(0.23007308 0.0022226251 0)
(0.20853274 -0.00029203734 0)
(0.19447341 -0.00043041871 0)
(0.18414299 -0.00017540837 0)
(0.17531757 1.0906809e-06 0)
(0.16712766 5.4321231e-05 0)
(0.15955527 6.5027649e-05 0)
(0.15265239 6.6972462e-05 0)
(0.14636281 0.00024047588 0)
(0.14062609 0.00020346284 0)
(0.1353935 8.63595e-05 0)
(0.13060681 5.2738921e-05 0)
(0.12618005 4.6904768e-05 0)
(0.12206477 4.1841872e-05 0)
(0.11824007 3.786238e-05 0)
(0.11467011 3.5549073e-05 0)
(0.1113181 3.3097193e-05 0)
(0.10816605 3.0292978e-05 0)
(0.10520133 2.7905942e-05 0)
(0.10240372 2.6169037e-05 0)
(0.099753964 2.4374406e-05 0)
(0.097242857 2.2437993e-05 0)
(0.094863798 2.0753819e-05 0)
(0.09260581 1.9356062e-05 0)
(0.090459271 1.7925144e-05 0)
(0.088420006 1.6460879e-05 0)
(0.086484358 1.5154991e-05 0)
(0.084646447 1.3981351e-05 0)
(0.082901708 1.2808803e-05 0)
(0.081248496 1.1651671e-05 0)
(0.079685281 1.0586311e-05 0)
(0.078210134 9.5678116e-06 0)
(0.076822916 8.5432398e-06 0)
(0.075525538 7.5308618e-06 0)
(0.074319964 6.5733677e-06 0)
(0.073207708 5.6536159e-06 0)
(0.072192072 4.7259325e-06 0)
(0.071276204 3.8538663e-06 0)
(0.070463722 1.4450513e-05 0)
(0.069775246 8.383787e-06 0)
(0.069200416 3.970458e-06 0)
(0.068764038 1.238293e-06 0)
(0.068466476 -3.2783519e-07 0)
(0.068304945 -1.3832087e-06 0)
(0.0682758 -2.3630168e-06 0)
(0.068372639 -3.0113007e-06 0)
(0.068584644 -3.4180345e-06 0)
(0.068889652 -3.5157752e-06 0)
(0.069265958 -3.5819582e-06 0)
(0.069701737 -3.6550623e-06 0)
(0.070167764 -3.3179786e-06 0)
(0.070616667 -2.7862274e-06 0)
(0.071003366 -2.319885e-06 0)
(0.071285725 -4.7750255e-06 0)
(0.071463029 -9.3607739e-07 0)
(0.071534218 -5.654069e-07 0)
(0.071507865 -2.7009047e-07 0)
(0.071399312 -8.6259769e-08 0)
(0.07122624 5.5301366e-08 0)
(0.071004568 1.6109361e-07 0)
(0.070748603 2.1890943e-07 0)
(0.07046995 2.5225026e-07 0)
(0.070176939 2.6604939e-07 0)
(0.069875832 2.662512e-07 0)
(0.069571507 2.57321e-07 0)
(0.069266847 2.5069792e-07 0)
(0.068963621 2.4078561e-07 0)
(0.068663854 2.2654e-07 0)
(0.068368039 2.2252974e-07 0)
(0.068076526 2.1249398e-07 0)
(0.067789771 2.227679e-07 0)
(0.067498273 2.5233659e-07 0)
(0.067201887 2.5896227e-07 0)
(0.06690329 2.6447365e-07 0)
(0.066603633 2.6320198e-07 0)
(0.066303556 2.6036478e-07 0)
(0.066001749 2.6625687e-07 0)
(0.065697613 2.6351023e-07 0)
(0.065390905 2.6606891e-07 0)
(0.065081363 2.6411738e-07 0)
(0.064769341 2.6250203e-07 0)
(0.064454799 2.6129696e-07 0)
(0.064138329 2.5661163e-07 0)
(0.063820023 2.5576762e-07 0)
(0.063500277 2.5025281e-07 0)
(0.063179179 2.4921362e-07 0)
(0.062857389 2.4315737e-07 0)
(0.0625328 2.4968115e-07 0)
(0.062211413 2.2561315e-07 0)
(0.061870858 3.0446544e-07 0)
(0.06157704 9.0618911e-07 0)
(0.061138748 1.1257026e-05 0)
(0.060898089 1.8985602e-05 0)
(0.060225675 9.059508e-06 0)
(0.95865063 0.028033389 0)
(0.94941721 0.038584249 0)
(0.93029305 0.041832357 0)
(0.88512154 0.039309916 0)
(0.82440927 0.032446001 0)
(0.75683408 0.023966913 0)
(0.69438116 0.0155071 0)
(0.6414026 0.0094032041 0)
(0.59777405 0.0060304226 0)
(0.56171797 0.0043640209 0)
(0.53122736 0.0035606048 0)
(0.50476935 0.0030823768 0)
(0.481429 0.0027040764 0)
(0.46058602 0.0023898376 0)
(0.44175287 0.0021294685 0)
(0.42460711 0.00187369 0)
(0.40894195 0.0016549829 0)
(0.39455079 0.0014825631 0)
(0.38124115 0.0013358989 0)
(0.36887704 0.0012047415 0)
(0.35736449 0.0010885532 0)
(0.34660724 0.00098961642 0)
(0.33651632 0.0009026415 0)
(0.32702879 0.00082376216 0)
(0.31809072 0.00075321435 0)
(0.30965031 0.00069141019 0)
(0.30166032 0.00063571066 0)
(0.2940879 0.00058422634 0)
(0.2869075 0.00053730621 0)
(0.28009109 0.00049509379 0)
(0.27361351 0.00045624928 0)
(0.26745837 0.00041994481 0)
(0.26161257 0.00038641392 0)
(0.25606174 0.00035556172 0)
(0.25079394 0.00032669563 0)
(0.24580257 0.00029943629 0)
(0.24108312 0.00027382131 0)
(0.23663205 0.00024958833 0)
(0.23244946 0.00022629799 0)
(0.22854009 0.00020375399 0)
(0.22491057 0.00018200243 0)
(0.22156813 0.00016091977 0)
(0.21852385 0.00014024481 0)
(0.21578917 0.00012002539 0)
(0.21338253 0.00010186643 0)
(0.21134811 0.00010195938 0)
(0.20965904 5.4142397e-05 0)
(0.20838121 3.6347221e-05 0)
(0.20751655 1.7606551e-05 0)
(0.20705245 2.1676167e-07 0)
(0.20697439 -1.5337853e-05 0)
(0.2072593 -2.8886084e-05 0)
(0.20787169 -3.9723028e-05 0)
(0.20874985 -4.7099236e-05 0)
(0.20982966 -5.2012642e-05 0)
(0.21105825 -5.4544398e-05 0)
(0.21234405 -5.2544679e-05 0)
(0.21356047 -4.6001049e-05 0)
(0.21458666 -3.6780836e-05 0)
(0.21532873 -2.5716711e-05 0)
(0.21576965 -1.4653785e-05 0)
(0.21591677 -5.0131043e-06 0)
(0.21579241 2.8453307e-06 0)
(0.21543801 8.8308369e-06 0)
(0.21490214 1.3059841e-05 0)
(0.21422936 1.5846215e-05 0)
(0.21345912 1.7459946e-05 0)
(0.2126235 1.8269617e-05 0)
(0.21174644 1.8516518e-05 0)
(0.21084585 1.8368465e-05 0)
(0.20993542 1.7959817e-05 0)
(0.20902369 1.7428005e-05 0)
(0.20811631 1.6800596e-05 0)
(0.20721876 1.6109489e-05 0)
(0.206333 1.5449382e-05 0)
(0.20545999 1.478522e-05 0)
(0.20459957 1.4457488e-05 0)
(0.20372419 1.4443758e-05 0)
(0.20283521 1.4261191e-05 0)
(0.20194069 1.3967902e-05 0)
(0.20104348 1.3624171e-05 0)
(0.20014437 1.3294877e-05 0)
(0.19924028 1.3034682e-05 0)
(0.19832946 1.2768361e-05 0)
(0.19741102 1.2530884e-05 0)
(0.19648447 1.2281047e-05 0)
(0.19555057 1.2028601e-05 0)
(0.19460952 1.1771444e-05 0)
(0.19366284 1.1494668e-05 0)
(0.19271108 1.1226329e-05 0)
(0.19175537 1.0939141e-05 0)
(0.19079618 1.0661472e-05 0)
(0.1898353 1.0385764e-05 0)
(0.18886827 1.0120895e-05 0)
(0.18790817 9.9140414e-06 0)
(0.18690598 9.6443954e-06 0)
(0.18600582 1.176682e-05 0)
(0.18477525 3.960416e-05 0)
(0.18403396 6.4648545e-05 0)
(0.18205671 3.585533e-05 0)
(0.96800602 0.029705775 0)
(0.97309359 0.037720064 0)
(0.98238232 0.041542455 0)
(0.98424189 0.04101253 0)
(0.979369 0.037119879 0)
(0.96361216 0.03059107 0)
(0.93925569 0.024142415 0)
(0.91010892 0.019116186 0)
(0.8783485 0.015500867 0)
(0.84614922 0.012897875 0)
(0.81514844 0.010957954 0)
(0.78574516 0.0094050371 0)
(0.75800842 0.0081191509 0)
(0.731856 0.007081481 0)
(0.70718437 0.0062343685 0)
(0.68393773 0.0055141961 0)
(0.66207908 0.004899759 0)
(0.64151651 0.0043854904 0)
(0.62213773 0.0039460298 0)
(0.60385395 0.0035587823 0)
(0.58659417 0.0032175398 0)
(0.57027568 0.0029223914 0)
(0.55481803 0.0026630388 0)
(0.54015852 0.0024304732 0)
(0.52624502 0.0022226124 0)
(0.51302147 0.0020388801 0)
(0.50043549 0.0018738673 0)
(0.48844744 0.0017231081 0)
(0.47702455 0.0015858457 0)
(0.46613312 0.00146153 0)
(0.45574336 0.0013474503 0)
(0.44583412 0.0012415769 0)
(0.43638818 0.0011436654 0)
(0.42738853 0.0010531936 0)
(0.41882161 0.00096870732 0)
(0.41067986 0.00088917427 0)
(0.40295931 0.00081428907 0)
(0.39565832 0.00074334539 0)
(0.38877975 0.00067533599 0)
(0.38233199 0.00060966064 0)
(0.37632683 0.00054618548 0)
(0.37077827 0.00048455447 0)
(0.36570536 0.00042417028 0)
(0.36112883 0.00036519581 0)
(0.35707751 0.00030419062 0)
(0.3536031 0.00028637341 0)
(0.35069897 0.00018847953 0)
(0.34841552 0.00012919091 0)
(0.34675396 7.4522042e-05 0)
(0.34569503 2.4123872e-05 0)
(0.34521079 -2.0769593e-05 0)
(0.34525755 -5.9509305e-05 0)
(0.34577848 -9.0655606e-05 0)
(0.34668347 -0.00011264567 0)
(0.34787987 -0.0001271131 0)
(0.34927672 -0.00013395936 0)
(0.3507325 -0.00012962508 0)
(0.35207302 -0.00011324256 0)
(0.35314323 -8.7257842e-05 0)
(0.35383255 -5.8719386e-05 0)
(0.35411543 -3.0397567e-05 0)
(0.35400446 -5.0853584e-06 0)
(0.3535315 1.5928864e-05 0)
(0.35275384 3.2036057e-05 0)
(0.35173593 4.3553996e-05 0)
(0.35053701 5.1201772e-05 0)
(0.34920947 5.5683595e-05 0)
(0.34779638 5.7881128e-05 0)
(0.34633079 5.845333e-05 0)
(0.34483763 5.7884566e-05 0)
(0.34333582 5.6561522e-05 0)
(0.34183752 5.4839017e-05 0)
(0.34035117 5.2833316e-05 0)
(0.33888439 5.0651491e-05 0)
(0.33744026 4.8514928e-05 0)
(0.33601992 4.6404931e-05 0)
(0.33462173 4.5189562e-05 0)
(0.33320554 4.4784924e-05 0)
(0.33177893 4.3999067e-05 0)
(0.33035156 4.2936507e-05 0)
(0.32892496 4.1789666e-05 0)
(0.32749857 4.0709396e-05 0)
(0.32606803 3.980579e-05 0)
(0.32463047 3.8933029e-05 0)
(0.32318404 3.8135075e-05 0)
(0.32172784 3.7326193e-05 0)
(0.32026248 3.6514887e-05 0)
(0.3187882 3.5692617e-05 0)
(0.31730681 3.4829515e-05 0)
(0.31581914 3.3978405e-05 0)
(0.31432666 3.3092274e-05 0)
(0.31283006 3.2218464e-05 0)
(0.31133175 3.1364098e-05 0)
(0.3098263 3.0508618e-05 0)
(0.30832958 2.9891999e-05 0)
(0.30678135 2.8848106e-05 0)
(0.30535846 3.1897155e-05 0)
(0.30351914 7.2184047e-05 0)
(0.30231606 0.00011254923 0)
(0.29931876 5.5481273e-05 0)
(0.97004389 0.027082955 0)
(0.9763938 0.034264255 0)
(0.98545108 0.038377872 0)
(0.99341641 0.03921155 0)
(1.0016196 0.036174924 0)
(1.0025048 0.031199473 0)
(0.99954623 0.026292725 0)
(0.99330748 0.022248212 0)
(0.98418002 0.019369337 0)
(0.97248983 0.017347406 0)
(0.95866563 0.015777034 0)
(0.94310526 0.014350583 0)
(0.92568509 0.013015321 0)
(0.90733977 0.011780948 0)
(0.88852304 0.010669851 0)
(0.86952042 0.009663926 0)
(0.85053394 0.0087604535 0)
(0.83168818 0.0079709633 0)
(0.81307314 0.0072750554 0)
(0.79478093 0.0066467886 0)
(0.77689188 0.0060789227 0)
(0.75945115 0.0055730086 0)
(0.74248278 0.0051178388 0)
(0.72600707 0.0047030624 0)
(0.7100423 0.0043266303 0)
(0.69459044 0.0039881413 0)
(0.67964579 0.0036807849 0)
(0.66520533 0.003398463 0)
(0.65126519 0.0031397368 0)
(0.6378156 0.002903431 0)
(0.62484657 0.0026854661 0)
(0.6123526 0.0024826437 0)
(0.60032933 0.0022941785 0)
(0.58877125 0.0021189804 0)
(0.57767531 0.0019547137 0)
(0.56704385 0.0017995929 0)
(0.55688279 0.0016529551 0)
(0.54719808 0.0015136503 0)
(0.53799852 0.0013800103 0)
(0.52929769 0.0012509414 0)
(0.5211127 0.0011260428 0)
(0.51346333 0.0010046452 0)
(0.50637445 0.00088578444 0)
(0.49987266 0.00076959728 0)
(0.49399338 0.00064928228 0)
(0.48878343 0.00058594631 0)
(0.48424302 0.00042917272 0)
(0.4803941 0.00031277496 0)
(0.47722703 0.00020963596 0)
(0.47471912 0.00011548819 0)
(0.4728386 3.126308e-05 0)
(0.47153948 -4.1471517e-05 0)
(0.47075565 -0.00010014679 0)
(0.4703911 -0.00014252758 0)
(0.47035876 -0.0001713369 0)
(0.47054946 -0.00018597113 0)
(0.47079734 -0.0001784673 0)
(0.47093082 -0.00015154752 0)
(0.47082203 -0.00010676004 0)
(0.47038868 -6.0977794e-05 0)
(0.46961398 -1.5002894e-05 0)
(0.46851085 2.6178793e-05 0)
(0.46711274 6.0114409e-05 0)
(0.46546816 8.5944946e-05 0)
(0.4636302 0.00010416718 0)
(0.46164861 0.00011593589 0)
(0.45956858 0.00012241403 0)
(0.45742852 0.00012501095 0)
(0.45525879 0.00012482458 0)
(0.45308288 0.00012268757 0)
(0.45091874 0.00011927615 0)
(0.44877791 0.00011517243 0)
(0.44666925 0.00011059 0)
(0.44460027 0.00010574106 0)
(0.44257382 0.00010099164 0)
(0.44059045 9.6391644e-05 0)
(0.43864599 9.2960732e-05 0)
(0.4367319 9.0741973e-05 0)
(0.43484114 8.8366826e-05 0)
(0.43296939 8.5811023e-05 0)
(0.43111252 8.3251261e-05 0)
(0.42926766 8.0876816e-05 0)
(0.42742932 7.8836328e-05 0)
(0.42559331 7.6913539e-05 0)
(0.42375663 7.5148134e-05 0)
(0.42191733 7.3403408e-05 0)
(0.42007512 7.1678366e-05 0)
(0.41822957 6.9951962e-05 0)
(0.41638187 6.8177357e-05 0)
(0.41453248 6.6428254e-05 0)
(0.41268234 6.4640178e-05 0)
(0.4108319 6.2871897e-05 0)
(0.40898337 6.1158584e-05 0)
(0.40713071 5.9422995e-05 0)
(0.4052903 5.8197889e-05 0)
(0.40339825 5.600214e-05 0)
(0.40163733 5.9928718e-05 0)
(0.39945431 0.00010709625 0)
(0.39791998 0.0001567039 0)
(0.39438283 7.2635117e-05 0)
(0.9723991 0.025563039 0)
(0.97775827 0.032399521 0)
(0.98584749 0.036407122 0)
(0.99415414 0.037068286 0)
(1.0012341 0.034667979 0)
(1.005586 0.030634598 0)
(1.0079222 0.02637143 0)
(1.0070722 0.022757968 0)
(1.005264 0.020143048 0)
(1.0027557 0.018354948 0)
(0.99954893 0.017018642 0)
(0.99554371 0.015925127 0)
(0.99025071 0.014973043 0)
(0.98357932 0.014080277 0)
(0.97554416 0.013227172 0)
(0.96626896 0.012374395 0)
(0.95565351 0.011538409 0)
(0.94414977 0.010747864 0)
(0.93195407 0.010010443 0)
(0.919209 0.0093180402 0)
(0.90603089 0.0086717549 0)
(0.89252266 0.0080778787 0)
(0.8787615 0.0075281098 0)
(0.86483351 0.0070126681 0)
(0.85082303 0.0065310458 0)
(0.8367982 0.0060854861 0)
(0.82281715 0.005670557 0)
(0.80893453 0.0052812404 0)
(0.79519773 0.0049176262 0)
(0.78164326 0.0045797133 0)
(0.76830238 0.0042635443 0)
(0.75520579 0.003965899 0)
(0.74238122 0.0036862212 0)
(0.72985214 0.0034233387 0)
(0.71764195 0.0031743505 0)
(0.70577846 0.0029369781 0)
(0.69429034 0.002710865 0)
(0.68319455 0.0024950741 0)
(0.67250961 0.0022874712 0)
(0.66225899 0.0020864144 0)
(0.65246928 0.0018911661 0)
(0.64316894 0.0017007372 0)
(0.63439039 0.0015138401 0)
(0.62616673 0.0013300004 0)
(0.61854725 0.0011481398 0)
(0.6115509 0.00096618975 0)
(0.60517692 0.0007888827 0)
(0.59942019 0.00062399184 0)
(0.59427376 0.0004670539 0)
(0.58972893 0.00032313695 0)
(0.58576624 0.0001945564 0)
(0.58235366 8.3245069e-05 0)
(0.57943365 -7.3153594e-06 0)
(0.57692362 -7.4752207e-05 0)
(0.57477114 -0.00012101659 0)
(0.57282608 -0.0001422517 0)
(0.5709109 -0.00013438758 0)
(0.5689148 -0.00010123713 0)
(0.56678762 -4.491279e-05 0)
(0.56449799 9.2925919e-06 0)
(0.56204783 6.4683247e-05 0)
(0.5594484 0.00011398157 0)
(0.55671781 0.00015399923 0)
(0.5538804 0.00018379617 0)
(0.55096388 0.00020403196 0)
(0.5479955 0.00021611237 0)
(0.54500183 0.00022146697 0)
(0.54200685 0.00022185321 0)
(0.5390304 0.00021866633 0)
(0.53608854 0.00021299214 0)
(0.5331936 0.00020573208 0)
(0.53035343 0.00019762888 0)
(0.52757532 0.00018896506 0)
(0.52486463 0.00018005881 0)
(0.52222249 0.00017140842 0)
(0.51964795 0.00016314306 0)
(0.5171351 0.00015641961 0)
(0.51469228 0.00015121016 0)
(0.51230833 0.00014603721 0)
(0.50997076 0.00014098448 0)
(0.50767059 0.00013617382 0)
(0.50540233 0.00013176236 0)
(0.50315929 0.00012790497 0)
(0.50093598 0.00012431566 0)
(0.49872814 0.00012102039 0)
(0.49653251 0.00011782984 0)
(0.49434746 0.00011472653 0)
(0.49217142 0.00011167116 0)
(0.49000439 0.00010859687 0)
(0.48784589 0.00010559097 0)
(0.48569589 0.00010257108 0)
(0.48355416 9.9599706e-05 0)
(0.48142214 9.6745642e-05 0)
(0.47929308 9.3858832e-05 0)
(0.47718274 9.1805418e-05 0)
(0.47502674 8.8196653e-05 0)
(0.47300239 9.2788581e-05 0)
(0.47058177 0.00014269008 0)
(0.46878529 0.0001968968 0)
(0.46489829 0.00013925173 0)
(0.97458718 0.024511319 0)
(0.97928015 0.030793753 0)
(0.98635231 0.034468368 0)
(0.99376385 0.035112257 0)
(1.0001592 0.033233368 0)
(1.0047848 0.029794397 0)
(1.0072764 0.025981191 0)
(1.008261 0.022699632 0)
(1.007937 0.020249256 0)
(1.0073837 0.018530502 0)
(1.006753 0.017264558 0)
(1.0059956 0.016266027 0)
(1.004964 0.015425899 0)
(1.0035441 0.014656038 0)
(1.0016219 0.013931637 0)
(0.99913154 0.01326136 0)
(0.99583727 0.012640843 0)
(0.99168568 0.012046929 0)
(0.98666163 0.011472173 0)
(0.98077925 0.010900218 0)
(0.97397249 0.010332092 0)
(0.96643129 0.0097854641 0)
(0.95824282 0.0092605875 0)
(0.94947184 0.0087552733 0)
(0.94017563 0.0082717726 0)
(0.93041044 0.007813188 0)
(0.92023558 0.0073752876 0)
(0.90970744 0.0069541466 0)
(0.89888311 0.0065510175 0)
(0.8878188 0.0061671324 0)
(0.8765689 0.0057994747 0)
(0.86518838 0.0054459191 0)
(0.85372969 0.0051073095 0)
(0.84223953 0.0047834699 0)
(0.83076248 0.0044719476 0)
(0.81934384 0.0041707834 0)
(0.80802868 0.0038797028 0)
(0.79686165 0.0035980694 0)
(0.78588642 0.0033242726 0)
(0.77514689 0.0030569421 0)
(0.7646867 0.0027954932 0)
(0.7545494 0.0025388703 0)
(0.74478152 0.0022857042 0)
(0.73543022 0.0020345179 0)
(0.72657257 0.0017867099 0)
(0.71814614 0.0015462718 0)
(0.71016209 0.0013125499 0)
(0.70266151 0.0010871946 0)
(0.69567011 0.00087532104 0)
(0.68919778 0.00068041929 0)
(0.68323525 0.00050525517 0)
(0.67775408 0.00035302845 0)
(0.67269988 0.00022778535 0)
(0.66801853 0.00013017784 0)
(0.66370987 6.4457814e-05 0)
(0.65949471 3.4804267e-05 0)
(0.65524534 3.9079754e-05 0)
(0.65098646 6.9204159e-05 0)
(0.64674957 0.00012526266 0)
(0.64253389 0.00017466273 0)
(0.63834566 0.0002273339 0)
(0.6341884 0.00027384589 0)
(0.630063 0.00031064057 0)
(0.6259721 0.00033670017 0)
(0.62192168 0.00035265488 0)
(0.61791901 0.0003599239 0)
(0.61397265 0.00035997509 0)
(0.61009157 0.00035469334 0)
(0.60628405 0.00034558598 0)
(0.60255727 0.00033384717 0)
(0.5989174 0.00032048404 0)
(0.59536892 0.00030636251 0)
(0.59191426 0.00029181472 0)
(0.58855534 0.00027721108 0)
(0.58529105 0.00026314876 0)
(0.58211867 0.00024982171 0)
(0.57903188 0.00023823367 0)
(0.57603318 0.00022838579 0)
(0.57311774 0.00021906036 0)
(0.57027516 0.00021034781 0)
(0.56749511 0.00020224681 0)
(0.56477046 0.00019485165 0)
(0.5620935 0.00018830514 0)
(0.5594577 0.00018225023 0)
(0.55685772 0.00017669211 0)
(0.55428902 0.00017138801 0)
(0.55174861 0.0001662981 0)
(0.5492336 0.0001613598 0)
(0.54674259 0.00015648211 0)
(0.54427392 0.00015175485 0)
(0.54182675 0.00014707807 0)
(0.53939965 0.00014251621 0)
(0.53699283 0.00013817162 0)
(0.53459875 0.00013380573 0)
(0.53223187 0.0001306459 0)
(0.52982893 0.00012533994 0)
(0.52755709 0.00013015584 0)
(0.52492136 0.00018007483 0)
(0.52289119 0.00023648032 0)
(0.51869563 0.0001868357 0)
(0.97655903 0.023525805 0)
(0.98072027 0.029152262 0)
(0.9869776 0.032517239 0)
(0.99359417 0.033275476 0)
(0.99940258 0.031815007 0)
(1.0037153 0.028880384 0)
(1.0062609 0.025504185 0)
(1.0074143 0.022522904 0)
(1.0077303 0.020237703 0)
(1.0077086 0.018573081 0)
(1.00761 0.017320202 0)
(1.0075047 0.016320135 0)
(1.0073836 0.015486273 0)
(1.007202 0.014746594 0)
(1.0068978 0.014073078 0)
(1.0064312 0.01346513 0)
(1.0057568 0.012911771 0)
(1.0048196 0.012388911 0)
(1.0035596 0.011891869 0)
(1.0019233 0.011425278 0)
(0.99978062 0.010984694 0)
(0.99707801 0.010557395 0)
(0.99379038 0.010138385 0)
(0.98989275 0.0097199295 0)
(0.98534125 0.0093037786 0)
(0.98021552 0.0088980508 0)
(0.97454302 0.0085012537 0)
(0.96834914 0.0081118795 0)
(0.96165835 0.0077324557 0)
(0.95449586 0.0073643618 0)
(0.94689131 0.0070044328 0)
(0.93888075 0.0066506655 0)
(0.93050142 0.0063049454 0)
(0.92178214 0.005967732 0)
(0.91276025 0.0056365844 0)
(0.90347602 0.0053099905 0)
(0.89396961 0.0049888184 0)
(0.88428821 0.004673119 0)
(0.87448138 0.0043612846 0)
(0.86460038 0.0040521808 0)
(0.8546976 0.0037457133 0)
(0.8448267 0.0034412451 0)
(0.83504417 0.0031377072 0)
(0.82541014 0.0028337914 0)
(0.81598857 0.002529727 0)
(0.8068179 0.0022348966 0)
(0.79790418 0.0019519989 0)
(0.78927905 0.001678885 0)
(0.78097594 0.0014199902 0)
(0.77302231 0.0011790968 0)
(0.76543134 0.000960132 0)
(0.75819857 0.00076764728 0)
(0.75129779 0.00060614222 0)
(0.7447245 0.00047486786 0)
(0.7385007 0.00038028812 0)
(0.73243368 0.00033251111 0)
(0.72642796 0.00032645551 0)
(0.7205036 0.00034670337 0)
(0.71468467 0.00039210886 0)
(0.70896813 0.0004296817 0)
(0.70336601 0.00047096621 0)
(0.69788584 0.00050615977 0)
(0.69252579 0.00053210154 0)
(0.68728396 0.00054771087 0)
(0.68216182 0.00055353693 0)
(0.67715937 0.00055098976 0)
(0.67227616 0.00054148573 0)
(0.66751312 0.00052689744 0)
(0.6628716 0.00050872416 0)
(0.65835255 0.00048818123 0)
(0.65395729 0.00046629214 0)
(0.64968745 0.00044395014 0)
(0.6455419 0.00042150674 0)
(0.64151965 0.00039938034 0)
(0.63761752 0.00037823554 0)
(0.63383112 0.00035829048 0)
(0.63015406 0.00034045296 0)
(0.62658376 0.00032469242 0)
(0.62311723 0.00030990752 0)
(0.61974712 0.00029624887 0)
(0.61646424 0.00028364937 0)
(0.61326112 0.00027214846 0)
(0.61012963 0.00026186983 0)
(0.60706255 0.00025238531 0)
(0.60405367 0.00024367522 0)
(0.6010974 0.00023544335 0)
(0.59818944 0.00022762336 0)
(0.59532562 0.0002201248 0)
(0.59250315 0.00021282811 0)
(0.58971905 0.00020581857 0)
(0.58697144 0.00019897387 0)
(0.58425761 0.00019235464 0)
(0.58157648 0.00018609677 0)
(0.57891965 0.00017986285 0)
(0.57630003 0.00017525197 0)
(0.57365594 0.00016793396 0)
(0.57114354 0.00017252398 0)
(0.56829798 0.00022079074 0)
(0.56605135 0.00027877579 0)
(0.56156481 0.00023225986 0)
(0.97835864 0.022612825 0)
(0.98206153 0.027631818 0)
(0.98760664 0.030750828 0)
(0.9935459 0.031603918 0)
(0.99885223 0.030476347 0)
(1.002888 0.027993612 0)
(1.005411 0.025027939 0)
(1.0066564 0.022315928 0)
(1.0071383 0.020162861 0)
(1.0073069 0.018544865 0)
(1.007398 0.017307543 0)
(1.0074781 0.016313432 0)
(1.0075416 0.015480859 0)
(1.0076107 0.014746711 0)
(1.0076494 0.014084186 0)
(1.0076349 0.013487742 0)
(1.0075762 0.012948356 0)
(1.0074566 0.012448326 0)
(1.0072506 0.011982402 0)
(1.0069357 0.011552225 0)
(1.0064828 0.011150733 0)
(1.005854 0.0107662 0)
(1.0050101 0.010396295 0)
(1.0039059 0.010043597 0)
(1.0024625 0.0097053087 0)
(1.0006379 0.0093749596 0)
(0.99840303 0.0090481173 0)
(0.99571957 0.008720549 0)
(0.99256383 0.0083942612 0)
(0.9889624 0.0080724037 0)
(0.98491705 0.0077532451 0)
(0.98042757 0.0074354086 0)
(0.97549688 0.0071202883 0)
(0.97013372 0.0068084988 0)
(0.96434724 0.0064978966 0)
(0.95815067 0.0061868824 0)
(0.95155856 0.0058760705 0)
(0.94458857 0.0055653611 0)
(0.93725578 0.0052532706 0)
(0.92958145 0.0049386337 0)
(0.92159487 0.0046214016 0)
(0.91332957 0.0043010572 0)
(0.90482287 0.0039764506 0)
(0.89612157 0.0036463373 0)
(0.88725398 0.0033127808 0)
(0.87835429 0.0029857903 0)
(0.86947405 0.002666658 0)
(0.86062838 0.0023560025 0)
(0.85184523 0.0020589386 0)
(0.84316227 0.0017795145 0)
(0.83462038 0.0015222174 0)
(0.82625897 0.001292494 0)
(0.81811176 0.0010958263 0)
(0.8102009 0.00093147153 0)
(0.80252021 0.00080650956 0)
(0.79516467 0.00073654226 0)
(0.78799658 0.00071272033 0)
(0.78099576 0.00071507083 0)
(0.77411604 0.00074182132 0)
(0.76733593 0.00076317749 0)
(0.76067738 0.00078759707 0)
(0.75415147 0.00080622936 0)
(0.74775899 0.00081634213 0)
(0.74150871 0.00081664381 0)
(0.73541169 0.00080774188 0)
(0.72946935 0.00079121663 0)
(0.72368133 0.00076838814 0)
(0.71804969 0.00074106133 0)
(0.71257474 0.00071074083 0)
(0.70725484 0.00067862706 0)
(0.70208902 0.0006456767 0)
(0.69707731 0.00061279194 0)
(0.69221773 0.00058034908 0)
(0.6875079 0.00054877372 0)
(0.6829432 0.00051877133 0)
(0.67851797 0.00049054902 0)
(0.6742258 0.0004649665 0)
(0.67006165 0.00044192998 0)
(0.66602207 0.00042032877 0)
(0.66210143 0.00040037531 0)
(0.6582921 0.00038197542 0)
(0.65458722 0.00036513489 0)
(0.65097871 0.00034996456 0)
(0.64745896 0.000335969 0)
(0.64402112 0.00032310311 0)
(0.64065868 0.0003110183 0)
(0.63736621 0.00029961937 0)
(0.6341383 0.00028878452 0)
(0.63097078 0.00027836171 0)
(0.62785937 0.00026842319 0)
(0.62480072 0.00025882113 0)
(0.62179099 0.0002496099 0)
(0.61882783 0.00024095407 0)
(0.61590198 0.00023240963 0)
(0.61302462 0.00022594763 0)
(0.61013569 0.00021626633 0)
(0.60738098 0.00022023225 0)
(0.60432019 0.00026589562 0)
(0.60186275 0.00032577082 0)
(0.59708419 0.00027928171 0)
(0.98000288 0.021775889 0)
(0.98331453 0.026247228 0)
(0.98822556 0.029131221 0)
(0.99355065 0.030040248 0)
(0.99839766 0.02919236 0)
(1.0021893 0.027112827 0)
(1.0046813 0.024524063 0)
(1.0060259 0.022066565 0)
(1.0066356 0.020048721 0)
(1.0069091 0.018488352 0)
(1.0070781 0.017271963 0)
(1.0072239 0.01628497 0)
(1.0073603 0.015454 0)
(1.00749 0.014724372 0)
(1.0076006 0.014068734 0)
(1.0076897 0.013477065 0)
(1.0077576 0.012940646 0)
(1.0078244 0.012445441 0)
(1.0078587 0.011987293 0)
(1.0078551 0.01156551 0)
(1.0078212 0.011173693 0)
(1.0077448 0.01080391 0)
(1.0076096 0.010453415 0)
(1.0073987 0.010122978 0)
(1.007092 0.0098089307 0)
(1.0066626 0.0095057432 0)
(1.0060842 0.0092119188 0)
(1.005318 0.0089276652 0)
(1.0043145 0.0086509937 0)
(1.0030396 0.0083785971 0)
(1.0014691 0.0081067221 0)
(0.99955854 0.0078325121 0)
(0.99729402 0.0075580608 0)
(0.99467891 0.0072844594 0)
(0.99170293 0.0070097732 0)
(0.98835367 0.006732582 0)
(0.98462066 0.0064531499 0)
(0.9804944 0.0061708741 0)
(0.97597017 0.0058840765 0)
(0.97104439 0.0055917882 0)
(0.96571268 0.0052938836 0)
(0.95997095 0.0049896115 0)
(0.95381582 0.0046773616 0)
(0.94724932 0.0043565953 0)
(0.9402606 0.0040280889 0)
(0.9328818 0.0036972408 0)
(0.92519773 0.0033673523 0)
(0.91725589 0.0030424558 0)
(0.90909489 0.0027287618 0)
(0.9007556 0.0024302193 0)
(0.89228652 0.002151153 0)
(0.88374655 0.0018970238 0)
(0.87520586 0.0016731421 0)
(0.86671481 0.0014804106 0)
(0.85827222 0.0013255892 0)
(0.85007625 0.0012208064 0)
(0.84219196 0.0011643235 0)
(0.83454371 0.0011445021 0)
(0.82696578 0.0011519138 0)
(0.81947376 0.0011566808 0)
(0.81208896 0.0011633415 0)
(0.80479657 0.001164418 0)
(0.79760512 0.0011568698 0)
(0.79054267 0.0011394504 0)
(0.78362679 0.0011132843 0)
(0.77685995 0.0010801895 0)
(0.770251 0.0010413008 0)
(0.7638111 0.00099848448 0)
(0.75754255 0.00095342593 0)
(0.75144507 0.0009072872 0)
(0.74552054 0.00086092301 0)
(0.73977037 0.0008152726 0)
(0.73419278 0.00077073974 0)
(0.72878582 0.00072774816 0)
(0.72354515 0.00068704129 0)
(0.71846494 0.00064879769 0)
(0.71353954 0.00061383503 0)
(0.70876373 0.00058199684 0)
(0.70413354 0.00055211721 0)
(0.69964405 0.00052444188 0)
(0.69528899 0.00049885358 0)
(0.69106249 0.00047534235 0)
(0.68695689 0.00045401843 0)
(0.68296459 0.00043432606 0)
(0.67907833 0.00041619769 0)
(0.67529091 0.00039923435 0)
(0.67159596 0.00038331086 0)
(0.66798697 0.00036827188 0)
(0.66445853 0.00035392951 0)
(0.66100508 0.00034033888 0)
(0.65762185 0.00032732165 0)
(0.65430377 0.00031491856 0)
(0.65104725 0.00030331851 0)
(0.64784215 0.00029196591 0)
(0.64469792 0.00028319974 0)
(0.64155586 0.00027075912 0)
(0.63855263 0.00027371254 0)
(0.63526684 0.00031620208 0)
(0.63259724 0.00037878483 0)
(0.62751649 0.00032909944 0)
(0.98150489 0.021000957 0)
(0.9844797 0.024976238 0)
(0.98883019 0.027627021 0)
(0.993598 0.028569227 0)
(0.998019 0.02796189 0)
(1.0015733 0.026237383 0)
(1.004018 0.023991334 0)
(1.0054432 0.021779252 0)
(1.0061745 0.019903031 0)
(1.0065536 0.018410672 0)
(1.0067954 0.017222792 0)
(1.0069878 0.01624682 0)
(1.0071568 0.015419355 0)
(1.0073107 0.014693447 0)
(1.007449 0.014042195 0)
(1.0075709 0.013454189 0)
(1.007679 0.012920416 0)
(1.0077768 0.012429353 0)
(1.007859 0.011975771 0)
(1.0079294 0.011556749 0)
(1.007987 0.011167084 0)
(1.0080441 0.010800155 0)
(1.0080824 0.010454454 0)
(1.0080904 0.010129895 0)
(1.0080771 0.0098225923 0)
(1.0080328 0.0095291985 0)
(1.007948 0.0092480516 0)
(1.007809 0.0089779295 0)
(1.007601 0.0087169232 0)
(1.0073041 0.0084623784 0)
(1.0068991 0.0082134185 0)
(1.0063537 0.0079692854 0)
(1.0056345 0.0077282363 0)
(1.0047145 0.0074883795 0)
(1.0035731 0.0072466992 0)
(1.0021666 0.0070010774 0)
(1.0004889 0.0067525146 0)
(0.99852463 0.0065010405 0)
(0.996257 0.0062453284 0)
(0.99366758 0.0059839467 0)
(0.99073642 0.0057164022 0)
(0.9874418 0.0054420378 0)
(0.98376008 0.0051591052 0)
(0.97966611 0.0048671559 0)
(0.97512939 0.0045658628 0)
(0.97011227 0.0042588999 0)
(0.96461436 0.0039489614 0)
(0.95865288 0.0036392668 0)
(0.95224208 0.0033358553 0)
(0.94540042 0.0030428731 0)
(0.93815437 0.0027643916 0)
(0.93054324 0.0025052714 0)
(0.92262449 0.0022709341 0)
(0.91446738 0.0020648903 0)
(0.90611625 0.0018909305 0)
(0.89770086 0.0017591982 0)
(0.88945103 0.001672533 0)
(0.88138758 0.001621464 0)
(0.87349711 0.0016017554 0)
(0.86574814 0.0015892117 0)
(0.85805642 0.001581275 0)
(0.85035466 0.001567548 0)
(0.84270232 0.0015431071 0)
(0.83513745 0.0015082638 0)
(0.82765724 0.0014648948 0)
(0.82027601 0.0014144372 0)
(0.81302438 0.0013581118 0)
(0.8059209 0.0012982942 0)
(0.79896929 0.0012368849 0)
(0.79217845 0.0011749122 0)
(0.78555957 0.0011132255 0)
(0.77911727 0.0010529493 0)
(0.77285215 0.00099449517 0)
(0.76676622 0.00093826173 0)
(0.76085813 0.00088507392 0)
(0.75512403 0.00083508029 0)
(0.74956114 0.00078904656 0)
(0.74416623 0.00074678465 0)
(0.73893583 0.00070708034 0)
(0.73386585 0.00067018531 0)
(0.72895149 0.00063595007 0)
(0.724188 0.00060436194 0)
(0.71956857 0.00057554035 0)
(0.71508608 0.00054887756 0)
(0.71073324 0.00052429095 0)
(0.70650246 0.0005013338 0)
(0.70238676 0.00047985108 0)
(0.69837881 0.00045965337 0)
(0.69447214 0.00044051454 0)
(0.69066005 0.00042246973 0)
(0.68693652 0.00040530554 0)
(0.68329527 0.00038904228 0)
(0.67973148 0.00037388783 0)
(0.67623415 0.00035917099 0)
(0.67281101 0.00034759298 0)
(0.6694045 0.00033194575 0)
(0.66614341 0.00033347887 0)
(0.66262049 0.00037237409 0)
(0.65973271 0.0004387028 0)
(0.65433436 0.00038265063 0)
(0.98287801 0.020276874 0)
(0.98556027 0.023807313 0)
(0.98941795 0.026234218 0)
(0.99368351 0.027194206 0)
(0.99771065 0.026790984 0)
(1.0010327 0.025375288 0)
(1.0034126 0.023438814 0)
(1.0048931 0.021460213 0)
(1.0057275 0.019726527 0)
(1.0062044 0.018308174 0)
(1.0065198 0.017155382 0)
(1.0067631 0.016195947 0)
(1.0069668 0.015376385 0)
(1.0071445 0.014656453 0)
(1.007301 0.014010667 0)
(1.0074383 0.013426868 0)
(1.0075607 0.012896146 0)
(1.0076719 0.012408312 0)
(1.0077725 0.011957504 0)
(1.0078641 0.011540431 0)
(1.0079489 0.011152282 0)
(1.0080279 0.010787624 0)
(1.0080978 0.01044465 0)
(1.0081603 0.010121983 0)
(1.008216 0.0098165776 0)
(1.0082643 0.0095248484 0)
(1.0083134 0.009246154 0)
(1.0083327 0.0089802623 0)
(1.0083362 0.0087242271 0)
(1.0083167 0.008476466 0)
(1.0082674 0.0082362026 0)
(1.0081781 0.0080016265 0)
(1.0080368 0.0077711868 0)
(1.0078281 0.0075434525 0)
(1.0075379 0.0073181996 0)