# Wall shear stress
# Time          	patch           	min             	max             
2000            	bottom	(-4.60518559e-02 -2.43816174e-03 -1.99999138e-16)	(-2.07240885e-03 3.85635320e-09 5.11985883e-18)
