/*--------------------------------*- C++ -*----------------------------------*\
| =========                 |                                                 |
| \\      /  F ield         | OpenFOAM: The Open Source CFD Toolbox           |
|  \\    /   O peration     | Version:  2206                                  |
|   \\  /    A nd           | Website:  www.openfoam.com                      |
|    \\/     M anipulation  |                                                 |
\*---------------------------------------------------------------------------*/
FoamFile
{
    version     2.0;
    format      ascii;
    arch        "LSB;label=32;scalar=64";
    class       volScalarField;
    location    "100";
    object      p;
}
// * * * * * * * * * * * * * * * * * * * * * * * * * * * * * * * * * * * * * //

dimensions      [0 2 -2 0 0 0 0];

internalField   nonuniform List<scalar> 
3000
(
0.30354451398
0.30368857785
0.303972921517
0.304360869704
0.304827660507
0.305353639806
0.305922736353
0.30652164841
0.307139319166
0.307766557557
0.308395748252
0.30902062121
0.309636062743
0.310237956569
0.310823047371
0.311388821943
0.311933404633
0.312455464995
0.312954136203
0.313428941363
0.313879719367
0.314306550163
0.314709747981
0.315090028398
0.315448540766
0.315785963832
0.316102277434
0.316402288643
0.316694286752
0.316936595938
0.276641930774
0.276558627546
0.276390375068
0.276158294778
0.275874978229
0.275550741628
0.27519423249
0.274812925025
0.274413398699
0.274001488172
0.273582367991
0.273160603095
0.2727401829
0.272324549332
0.271916624512
0.271518840762
0.271133173859
0.270761179811
0.270404035506
0.270062579759
0.269737333718
0.269428477104
0.269135888187
0.26885960277
0.268600867094
0.268363281506
0.268154318658
0.267988115259
0.267881734706
0.267835003191
0.254162843797
0.254130336581
0.254065101435
0.253979162391
0.253879653796
0.253772592932
0.253662613286
0.25355322179
0.253446960282
0.253345562299
0.253250106354
0.25316115631
0.253078885301
0.253003181922
0.25293373867
0.25287012361
0.252811836758
0.252758352698
0.252709151133
0.25266373876
0.252621664439
0.252582526745
0.252546011805
0.252512075066
0.252481264465
0.252454825923
0.2524342449
0.252420135241
0.252410845718
0.252404204589
0.247907202154
0.247914616388
0.247928803224
0.247948290284
0.247970332739
0.247993294364
0.248015767747
0.248036698048
0.248055325297
0.248071145735
0.248083875238
0.248093411618
0.248099798096
0.248103189158
0.248103819598
0.248101977399
0.248097980862
0.24809215972
0.248084838755
0.24807632443
0.248066902316
0.248056859589
0.248046547918
0.248036489499
0.248027455226
0.248020316359
0.248015504993
0.248012400208
0.248009731115
0.24800741992
0.243584836298
0.243577574146
0.243562325658
0.243541839086
0.243516848762
0.243488663986
0.243458195629
0.243426272999
0.243393608943
0.243360810754
0.243328386033
0.243296747408
0.243266218833
0.24323704335
0.243209391952
0.243183373111
0.24315904259
0.243136412821
0.243115460348
0.243096132604
0.243078366092
0.243062136605
0.243047545629
0.243034895209
0.243024633993
0.243017071275
0.243012007525
0.243008698993
0.243006314337
0.243004596791
0.236657217774
0.236651831075
0.236640020083
0.236624605535
0.236606486158
0.236586955965
0.236566758182
0.236546513707
0.236526662145
0.236507508354
0.236489251437
0.236472009278
0.236455839419
0.23644075587
0.236426742321
0.236413762265
0.23640176655
0.236390698807
0.236380499176
0.236371109055
0.23636248521
0.236354632033
0.236347644752
0.236341720423
0.236337062015
0.236333686489
0.236331334668
0.236329596124
0.236328114063
0.236326914107
0.230007009304
0.230006377871
0.230004173453
0.23000160373
0.22999834395
0.229994720447
0.229990730969
0.229986472049
0.229982003363
0.229977380486
0.229972653273
0.229967866517
0.229963060582
0.229958271574
0.229953531417
0.229948867887
0.229944304586
0.229939861029
0.229935553904
0.22993140238
0.229927440679
0.22992373638
0.229920403536
0.229917581527
0.229915352371
0.229913659573
0.229912332494
0.229911168556
0.229910020211
0.229909029242
0.224468063407
0.224467020477
0.224464252957
0.224460908248
0.224456696633
0.224452003675
0.224446874534
0.224441461601
0.224435859967
0.224430157417
0.224424427038
0.224418729188
0.224413113014
0.224407617714
0.224402273829
0.22439710445
0.224392126211
0.224387350383
0.224382785969
0.224378448318
0.224374374304
0.224370637921
0.224367350873
0.224364622477
0.224362484273
0.224360855378
0.224359584122
0.224358503271
0.224357487028
0.224356637197
0.219363606158
0.219362141118
0.219358570636
0.219354116859
0.219348647074
0.219342651444
0.219336237945
0.219329610304
0.219322888182
0.219316176143
0.219309553086
0.219303078981
0.219296798457
0.219290743709
0.219284936969
0.219279392491
0.219274118089
0.21926911691
0.21926439188
0.219259956085
0.219255848375
0.219252145768
0.219248953823
0.219246356014
0.219244351053
0.21924284302
0.219241686062
0.219240730857
0.219239863063
0.219239151728
0.214403146494
0.214402043946
0.214399194416
0.21439567507
0.214391313964
0.214386539666
0.214381407811
0.214376090583
0.214370677403
0.214365254335
0.21435988554
0.214354621222
0.214349499647
0.214344549241
0.214339790392
0.214335236892
0.214330897202
0.214326776513
0.214322881951
0.214319232728
0.214315872739
0.214312876649
0.214310331812
0.214308289303
0.21430672264
0.214305536016
0.214304607845
0.214303823902
0.214303098963
0.214302498976
0.209646993075
0.209646165869
0.209643905929
0.209641167196
0.209637738257
0.20963399211
0.209629944582
0.209625742793
0.209621451137
0.209617139934
0.209612859849
0.209608651626
0.209604546602
0.209600568407
0.209596734318
0.209593056348
0.209589542425
0.209586198879
0.209583036185
0.209580078108
0.209577370682
0.209574982089
0.209572979296
0.209571386511
0.209570162776
0.209569220389
0.209568462903
0.209567804645
0.209567182751
0.209566662576
0.205121520615
0.205120793024
0.205118772468
0.205116344134
0.205113293913
0.205109971191
0.205106378361
0.205102654153
0.205098851406
0.205095034093
0.205091246082
0.205087523288
0.20508389305
0.205080375926
0.20507698688
0.205073736271
0.205070631185
0.205067678457
0.205064890802
0.20506229502
0.205059938106
0.20505788205
0.205056177628
0.205054830852
0.205053793558
0.205052986176
0.205052328826
0.205051752004
0.205051204497
0.205050745983
0.200786255895
0.200785599861
0.200783748555
0.20078153299
0.200778742956
0.20077570985
0.200772427845
0.20076902976
0.200765560442
0.200762080095
0.200758628059
0.200755237315
0.200751932679
0.200748732813
0.200745651235
0.200742697306
0.200739877786
0.200737200344
0.200734679765
0.20073234511
0.20073024324
0.200728429482
0.200726940873
0.200725770576
0.200724867415
0.200724159515
0.200723578871
0.200723067016
0.200722580729
0.20072217366
0.196606811425
0.19660623598
0.196604566984
0.196602583851
0.196600076654
0.196597356847
0.196594409649
0.196591360355
0.19658824571
0.196585121617
0.196582022673
0.196578978808
0.196576012258
0.196573139815
0.196570373629
0.19656772222
0.196565192284
0.196562792523
0.196560539579
0.196558463916
0.19655661076
0.196555027672
0.196553739379
0.19655272987
0.196551947971
0.196551329743
0.196550817485
0.196550362266
0.196549927971
0.196549563863
0.192567926828
0.192567423339
0.192565918462
0.192564145577
0.192561894602
0.192559458282
0.19255681428
0.192554080585
0.192551286779
0.192548484699
0.192545704551
0.192542973468
0.192540311294
0.192537733122
0.19253524988
0.192532869411
0.192530598531
0.192528447022
0.192526433081
0.192524587852
0.192522953921
0.192521570886
0.192520453104
0.192519578461
0.192518897604
0.192518354064
0.192517898855
0.192517490899
0.192517099867
0.192516771421
0.188658354185
0.1886579072
0.188656533821
0.188654928263
0.188652881944
0.188650671709
0.188648269931
0.188645788442
0.188643251211
0.18864070683
0.188638181964
0.188635701561
0.188633283545
0.188630941669
0.188628685901
0.188626523622
0.188624461912
0.18862251159
0.188620692096
0.18861903472
0.188617578888
0.188616356745
0.18861537436
0.188614605843
0.188614004455
0.1886135202
0.188613111061
0.188612742029
0.188612387166
0.188612088762
0.184865895134
0.184865494583
0.184864230503
0.184862763144
0.184860886346
0.184858863048
0.184856661782
0.184854388993
0.18485206417
0.184849733234
0.184847419946
0.184845147496
0.184842932213
0.184840786749
0.184838720278
0.184836739865
0.184834852934
0.184833071247
0.184831415184
0.184829915699
0.184828608717
0.18482751959
0.184826647883
0.184825965576
0.184825428872
0.184824993347
0.184824622622
0.184824286498
0.184823962495
0.184823689824
0.1811795918
0.181179231655
0.181178063203
0.181176716489
0.181174987972
0.181173127993
0.181171102098
0.181169011784
0.181166872795
0.18116472866
0.181162600605
0.181160510264
0.181158472533
0.181156499078
0.181154598381
0.181152777297
0.181151043647
0.181149410036
0.181147897504
0.181146536235
0.181145358427
0.181144383332
0.181143605481
0.181142995891
0.181142513821
0.181142119717
0.181141781909
0.18114147415
0.181141176808
0.181140926377
0.177590527465
0.177590202655
0.177589118351
0.177587877567
0.177586279488
0.177584563044
0.177582691479
0.177580761719
0.177578786335
0.177576806658
0.177574841664
0.177572911589
0.177571030042
0.177569207826
0.177567452853
0.177565771878
0.177564173168
0.177562670075
0.177561284047
0.177560044136
0.177558978746
0.177558101759
0.177557403886
0.177556855988
0.177556420343
0.177556061655
0.177555752205
0.177555469033
0.177555194867
0.177554963785
0.174091108326
0.174090814382
0.174089804091
0.174088656166
0.174087172614
0.174085582012
0.174083845845
0.174082056819
0.174080224816
0.174078389163
0.174076566887
0.174074777006
0.174073032022
0.174071342022
0.174069714476
0.174068156149
0.174066675768
0.17406528732
0.174064012427
0.174062878721
0.174061910874
0.174061118135
0.174060488381
0.174059992865
0.174059596741
0.174059268418
0.174058983499
0.17405872175
0.174058467864
0.174058253738
0.170674593093
0.170674326235
0.170673381418
0.170672315383
0.170670932973
0.170669453311
0.17066783654
0.170666171461
0.170664465691
0.170662756758
0.170661060017
0.170659393445
0.170657768592
0.170656194945
0.170654679627
0.170653229473
0.170651853645
0.170650566641
0.170649390033
0.170648349818
0.170647467094
0.170646747168
0.170646175878
0.170645725225
0.170645363059
0.170645061012
0.170644797496
0.170644554563
0.170644318552
0.170644119393
0.167335005632
0.167334762557
0.167333875812
0.16733288222
0.16733158946
0.167330208018
0.167328697045
0.16732714175
0.167325547857
0.167323951266
0.167322365894
0.167320808783
0.167319290638
0.167317820408
0.167316404926
0.167315051123
0.167313768558
0.167312572121
0.167311483136
0.167310525821
0.167309717922
0.167309061431
0.167308540772
0.167308128921
0.167307796224
0.167307517131
0.167307272445
0.16730704616
0.167306826006
0.167306640138
0.164067062645
0.164066840535
0.16406600549
0.164065076213
0.164063863228
0.164062569134
0.164061152393
0.164059694911
0.164058200817
0.164056704513
0.164055218636
0.164053759367
0.164052336634
0.164050958897
0.164049632752
0.164048365251
0.164047166317
0.164046051132
0.164045040615
0.164044157115
0.164043415284
0.164042814354
0.164042337817
0.164041959755
0.164041652812
0.164041393905
0.164041165892
0.164040954418
0.164040748409
0.164040574406
0.160866059809
0.160865856431
0.160865067889
0.160864196291
0.16086305497
0.160861839286
0.160860507232
0.160859137646
0.160857733283
0.160856327143
0.160854930712
0.160853559375
0.160852222355
0.160850927693
0.160849681809
0.160848491913
0.160847368269
0.160846326262
0.16084538626
0.160844568711
0.160843885436
0.160843333387
0.160842895499
0.160842547031
0.160842262727
0.160842021674
0.160841808501
0.160841610274
0.160841416946
0.160841253589
0.157727780559
0.157727594117
0.157726847826
0.157726028491
0.15772495216
0.157723807494
0.157722552165
0.157721262127
0.157719938946
0.157718614298
0.157717298654
0.157716006673
0.157714746966
0.157713527227
0.157712353769
0.157711233985
0.157710178449
0.157709202656
0.157708326293
0.157707567902
0.157706936744
0.157706427907
0.157706024059
0.157705701659
0.157705437375
0.157705212205
0.157705012311
0.157704825989
0.157704644082
0.157704490322
0.154648431966
0.154648260833
0.154647553011
0.154646781142
0.154645763891
0.154644683694
0.154643498013
0.154642280103
0.154641030495
0.154639779644
0.15463853713
0.154637316963
0.154636127227
0.154634975329
0.154633867522
0.154632811388
0.154631817759
0.154630902143
0.154630083438
0.154629378309
0.15462879372
0.154628323255
0.154627949539
0.154627650229
0.154627403746
0.154627192779
0.154627004828
0.154626829254
0.154626657677
0.154626512603
0.151624588046
0.15162443067
0.151623757772
0.151623028889
0.151622065229
0.15162104345
0.151619920916
0.151618768367
0.151617585457
0.151616401512
0.151615225331
0.151614070338
0.151612944147
0.15161185392
0.15161080587
0.151609807753
0.151608870611
0.151608009869
0.151607243554
0.151606586511
0.151606043668
0.151605607409
0.151605260485
0.151604981726
0.15160475115
0.151604552946
0.151604375781
0.15160420995
0.151604047754
0.151603910571
0.148653138549
0.148652993534
0.148652352358
0.14865166242
0.148650747408
0.14864977863
0.148648713458
0.148647620292
0.148646498042
0.148645374984
0.148644259223
0.148643163635
0.148642095404
0.14864106147
0.148640068023
0.148639122977
0.148638237537
0.148637426968
0.14863670837
0.148636094851
0.148635589543
0.148635183886
0.148634860886
0.148634600501
0.148634384204
0.148634197517
0.148634030132
0.148633873166
0.14863371952
0.148633589534
0.145731248683
0.145731114878
0.14573050272
0.145729848307
0.145728977748
0.14572805738
0.14572704466
0.145726005806
0.14572493908
0.145723871773
0.145722811358
0.145721770191
0.145720755063
0.145719772719
0.145718829343
0.145717933003
0.145717095026
0.145716330458
0.145715655431
0.145715081414
0.145714609963
0.145714231789
0.145713930238
0.145713686353
0.145713482929
0.145713306677
0.145713148196
0.145712999324
0.145712853497
0.145712730094
0.142856328687
0.142856205162
0.142855619773
0.14285499805
0.14285416844
0.142853292633
0.142852328221
0.142851339368
0.142850323766
0.142849307769
0.142848298272
0.142847307148
0.142846340834
0.142845405914
0.142844508592
0.142843657081
0.142842862804
0.142842140528
0.142841505395
0.142840967332
0.142840526519
0.142840173115
0.142839890872
0.142839661862
0.142839470091
0.14283930333
0.142839152982
0.142839011526
0.142838872871
0.142838755511
0.140026007819
0.140025893762
0.140025333172
0.140024741661
0.140023949924
0.140023115289
0.140022195513
0.14002125282
0.140020284396
0.140019315711
0.14001835314
0.140017408106
0.140016486742
0.140015595505
0.140014740639
0.140013930498
0.140013176564
0.140012493267
0.140011894748
0.140011389495
0.140010976484
0.140010645477
0.140010380675
0.140010165128
0.140009983941
0.140009825844
0.140009682949
0.140009548307
0.140009416251
0.140009304454
0.137238109746
0.137238004379
0.137237466744
0.137236903131
0.137236146399
0.137235349778
0.137234471218
0.137233571112
0.137232646207
0.13723172114
0.137230801824
0.137229899271
0.137229019352
0.137228168424
0.137227352785
0.137226580914
0.137225864309
0.137225217013
0.137224652165
0.137224176912
0.137223789194
0.137223478494
0.137223229496
0.137223026171
0.137222854634
0.137222704469
0.137222568426
0.137222440064
0.137222314096
0.137222207432
0.134490630068
0.134490532645
0.134490016216
0.13448947831
0.134488753877
0.134487992305
0.134487151763
0.134486290928
0.134485406163
0.13448452133
0.134483641929
0.134482778596
0.134481936969
0.134481123327
0.134480344021
0.134479607636
0.134478925646
0.134478311661
0.134477777827
0.134477330057
0.134476965397
0.134476673158
0.134476438523
0.134476246332
0.134476083618
0.134475940739
0.134475811011
0.134475688452
0.134475568116
0.134475466202
0.131781717677
0.131781627518
0.131781130695
0.13178061649
0.131779921891
0.131779192671
0.131778387252
0.131777562698
0.131776715044
0.131775867423
0.131775024962
0.131774197947
0.131773391807
0.131772612755
0.131771867192
0.131771163788
0.131770513959
0.131769930845
0.131769425624
0.131769003074
0.131768659482
0.13176838407
0.131768162528
0.131767980509
0.13176782589
0.131767689722
0.131767565832
0.131767448649
0.131767333536
0.131767236026
0.129109660063
0.129109576578
0.129109097956
0.129108605692
0.129107938752
0.129107239516
0.129106466674
0.129105675775
0.129104862567
0.129104049495
0.129103241344
0.12910244807
0.129101674915
0.129100928036
0.129100213881
0.129099541191
0.129098921291
0.12909836683
0.129097888048
0.129097488687
0.129097164389
0.129096904355
0.129096694782
0.129096522085
0.129096374912
0.129096244944
0.129096126465
0.129096014273
0.129095904015
0.129095810601
0.126472871217
0.126472793903
0.126472332253
0.126471860395
0.126471219213
0.126470547882
0.126469805379
0.126469045816
0.126468264689
0.12646748379
0.12646670759
0.126465945734
0.126465203298
0.126464486391
0.126463801516
0.126463157471
0.126462565462
0.126462037631
0.126461583313
0.126461205312
0.12646089872
0.126460652776
0.126460454174
0.126460290045
0.12646014974
0.126460025514
0.126459912062
0.126459804517
0.126459698781
0.126459609182
0.123869880659
0.123869809064
0.123869363284
0.123868910457
0.123868293323
0.123867648026
0.123866933835
0.123866203502
0.123865452298
0.123864701395
0.123863954977
0.123863222399
0.123862508591
0.123861819634
0.123861162082
0.123860544779
0.123859978791
0.123859475738
0.123859044092
0.123858685797
0.123858395488
0.123858162481
0.123857973961
0.123857817725
0.123857683773
0.123857564879
0.123857456107
0.123857352897
0.123857251383
0.123857165347
0.121299323083
0.121299256786
0.121298825854
0.121298390779
0.121297796103
0.121297175099
0.12129648733
0.121295784261
0.121295060965
0.121294338027
0.121293619368
0.121292914077
0.121292226963
0.121291564085
0.121290932054
0.121290339744
0.12128979806
0.121289318091
0.12128890748
0.121288567394
0.121288292084
0.121288070981
0.121287891747
0.121287742801
0.12128761474
0.121287500806
0.121287396404
0.121287297246
0.121287199682
0.121287116979
0.118759929009
0.118759867606
0.118759450553
0.118759032022
0.118758458305
0.118757859952
0.118757196826
0.118756519176
0.118755821899
0.118755125027
0.118754432247
0.1187537524
0.118753090194
0.118752451676
0.118751843512
0.118751274592
0.118750755635
0.118750297193
0.118749906121
0.118749582884
0.118749321416
0.118749111288
0.118748940625
0.118748798429
0.118748675841
0.118748566536
0.11874846622
0.118748370858
0.118748276997
0.118748197418
0.11625051673
0.11625045984
0.116250055758
0.116249652637
0.116249098473
0.116248521235
0.116247881095
0.116247227147
0.116246554138
0.11624588158
0.116245212948
0.116244556855
0.116243917922
0.116243302193
0.11624271638
0.116242169378
0.116241671696
0.116241233351
0.11624086045
0.116240552823
0.116240304149
0.116240104159
0.116239941426
0.116239805493
0.116239688004
0.116239583026
0.11623948654
0.116239394742
0.116239304359
0.116239227713
0.113769985503
0.113769932773
0.113769540823
0.113769152065
0.113768616158
0.113768058622
0.113767439942
0.113766808121
0.113766157778
0.113765507933
0.113764861867
0.113764227985
0.113763610832
0.113763016451
0.113762451599
0.113761925158
0.113761447412
0.113761027844
0.113760671858
0.113760378714
0.113760141883
0.113759951277
0.113759795895
0.113759665787
0.11375955306
0.113759452136
0.113759359248
0.113759270801
0.113759183691
0.113759109805
0.111317309615
0.111317260725
0.111316880141
0.111316504788
0.111315985955
0.111315446831
0.111314848219
0.111314237089
0.111313607949
0.111312979354
0.111312354408
0.111311741322
0.111311144576
0.111310570217
0.111310025041
0.111309517903
0.11130905885
0.11130865684
0.111308316614
0.111308036923
0.111307811074
0.111307629171
0.111307480619
0.111307355942
0.11130724767
0.111307150552
0.11130706105
0.111306975761
0.111306891736
0.111306820451
0.108891533038
0.108891487696
0.108891117778
0.108890754957
0.108890252115
0.108889730222
0.108889150403
0.108888558646
0.108887949364
0.108887340671
0.108886735509
0.10888614191
0.1088855643
0.10888500873
0.108884482033
0.108883993029
0.108883551513
0.10888316593
0.108882840404
0.108882573224
0.108882357576
0.108882183757
0.108882041565
0.10888192196
0.108881817867
0.10888172433
0.108881638021
0.108881555714
0.108881474602
0.108881405773
0.106491764495
0.10649172243
0.106491362534
0.106491011438
0.106490523586
0.106490017833
0.106489455625
0.106488882019
0.106488291345
0.1064877013
0.106487114679
0.106486539346
0.106485979683
0.106485441752
0.106484932418
0.106484460454
0.106484035401
0.1064836652
0.106483353395
0.106483097867
0.106482891707
0.106482725414
0.106482589154
0.106482474299
0.106482374131
0.106482283971
0.106482200679
0.106482121191
0.106482042836
0.106481976328
0.104117172877
0.104117133838
0.104116783362
0.104116443238
0.104115969443
0.104115478811
0.104114933112
0.104114376513
0.104113803278
0.104113230706
0.10411266146
0.10411210325
0.104111560424
0.104111039057
0.104110546044
0.104110090104
0.104109680513
0.104109324727
0.104109025744
0.10410878108
0.104108583761
0.104108424485
0.10410829377
0.10410818337
0.104108086899
0.104107999928
0.104107919491
0.104107842676
0.104107766933
0.104107702624
0.101766983058
0.101766946806
0.101766605185
0.101766275328
0.101765814715
0.101765338247
0.10176480802
0.101764267356
0.101763710462
0.101763154262
0.1017626013
0.101762059145
0.10176153212
0.101761026316
0.101760548656
0.101760107794
0.101759712737
0.101759370469
0.101759083481
0.101758848962
0.10175865989
0.101758507169
0.101758381648
0.101758275435
0.101758182452
0.101758098501
0.101758020771
0.101757946491
0.101757873228
0.101757811005
0.0994404721011
0.0994404384104
0.0994401051164
0.099439784861
0.0994393366076
0.0994388734053
0.0994383576784
0.0994378319444
0.099437290364
0.0994367495081
0.0994362118115
0.0994356847167
0.099435172529
0.0994346813577
0.09943421815
0.0994337914863
0.099433410103
0.0994330805239
0.0994328047684
0.0994325797312
0.0994323983684
0.0994322517806
0.0994321311331
0.0994320288633
0.0994319391787
0.0994318580894
0.0994317829322
0.0994317110622
0.0994316401565
0.0994315799161
0.0971369657921
0.0971369344491
0.0971366089862
0.09713629771
0.097135861047
0.0971354102709
0.0971349081362
0.0971343963934
0.097133869169
0.0971333426986
0.0971328193211
0.0971323063623
0.097131808117
0.0971313307143
0.0971308811218
0.0971304678388
0.0971300993271
0.0971297816688
0.0971295164419
0.0971293002806
0.0971291261325
0.0971289852941
0.0971288692284
0.0971287706805
0.0971286841196
0.0971286057496
0.0971285330401
0.0971284634652
0.0971283948046
0.0971283364506
0.0948558354196
0.0948558062243
0.0948554881312
0.0948551852533
0.094854759464
0.0948543203317
0.0948538309439
0.0948533323196
0.0948528185608
0.0948523055856
0.094851795648
0.0948512959674
0.0948508108334
0.0948503463961
0.0948499096399
0.0948495089757
0.0948491525901
0.0948488461398
0.0948485907923
0.0948483829496
0.0948482155647
0.0948480801255
0.0948479683758
0.0948478733471
0.0948477897509
0.0948477139688
0.0948476435926
0.0948475762066
0.0948475096872
0.0948474531311
0.0925964948008
0.0925964675664
0.0925961564146
0.0925958613949
0.0925954458129
0.0925950175974
0.0925945401712
0.0925940538546
0.0925935527342
0.0925930524275
0.0925925551132
0.0925920679133
0.0925915951176
0.0925911428981
0.0925907182523
0.0925903294965
0.0925899845427
0.0925896886395
0.0925894425721
0.0925892425364
0.0925890815018
0.0925889511419
0.0925888434657
0.0925887517712
0.0925886709938
0.0925885976789
0.0925885295304
0.0925884642355
0.0925883997614
0.0925883449213
0.0903583974928
0.0903583720447
0.0903580674366
0.0903577797725
0.090357373779
0.0903569558045
0.09035648961
0.0903560148475
0.0903555255965
0.0903550371894
0.0903545517382
0.0903540762768
0.0903536150993
0.0903531744007
0.0903527611882
0.0903523836781
0.0903520495101
0.0903517635412
0.0903515262013
0.090351333503
0.0903511784406
0.0903510528681
0.0903509490437
0.0903508605141
0.0903507824216
0.0903507114628
0.0903506454447
0.0903505821503
0.0903505196327
0.0903504664328
0.0881410341385
0.0881410103134
0.08814071188
0.0881404311043
0.0881400341241
0.0881396257622
0.0881391701206
0.0881387062109
0.0881382281135
0.0881377508898
0.0881372765939
0.0881368121792
0.0881363619488
0.0881359321214
0.0881355297111
0.0881351628294
0.0881348388465
0.0881345622446
0.0881343331228
0.0881341473306
0.0881339978945
0.0881338768422
0.088133776667
0.0881336911469
0.0881336156163
0.0881335469112
0.0881334829335
0.0881334215558
0.0881333609124
0.0881333092825
0.0859439299442
0.0859439075891
0.0859436149882
0.0859433406659
0.0859429521641
0.0859425528302
0.0859421071096
0.0859416534
0.0859411857893
0.0859407190821
0.0859402552821
0.0859398012701
0.085939361362
0.085938941801
0.0859385496054
0.085938192778
0.0859378784225
0.0859376106628
0.0859373892898
0.0859372100078
0.0859370658811
0.0859369491046
0.0859368523928
0.0859367697397
0.0859366966578
0.0859366301119
0.0859365680914
0.0859365085526
0.0859364497071
0.085936399582
0.0837666423122
0.0837666212834
0.0837663341967
0.0837660659228
0.0837656854016
0.0837652945514
0.0837648581637
0.0837644140463
0.0837639563017
0.0837634994903
0.0837630455728
0.0837626013645
0.083762171198
0.0837617613418
0.0837613788153
0.0837610315089
0.0837607262641
0.0837604668615
0.0837602528051
0.0837600796698
0.083759940562
0.0837598278374
0.0837597344187
0.0837596545017
0.0837595837642
0.0837595192899
0.0837594591494
0.0837594013775
0.083759344259
0.083759295578
0.0816087586025
0.0816087387653
0.0816084568974
0.0816081942946
0.0816078212914
0.0816074384185
0.081607010817
0.0816065757267
0.0816061272715
0.0816056797793
0.0816052351749
0.0816048002149
0.0816043792517
0.0816039785796
0.0816036052164
0.081603266937
0.0816029703244
0.0816027188309
0.081602511693
0.0816023443705
0.0816022100153
0.0816021011372
0.0816020108554
0.0816019335539
0.0816018650642
0.0816018025807
0.0816017442485
0.0816016881763
0.0816016327188
0.0816015854255
0.0794698939774
0.0794698752057
0.0794695982834
0.0794693410014
0.0794689750871
0.0794685997219
0.0794681803994
0.0794677538125
0.0794673141121
0.079466875405
0.0794664395867
0.0794660133611
0.0794656011035
0.0794652091343
0.0794648444665
0.0794645147565
0.0794642263334
0.0794639823354
0.0794637817497
0.0794636199333
0.0794634900862
0.0794633848662
0.0794632975776
0.0794632227804
0.0794631564495
0.0794630958814
0.0794630392909
0.0794629848559
0.0794629309978
0.0794628850399
0.0773496893494
0.0773496715251
0.077349399296
0.0773491470104
0.0773487877881
0.077348419496
0.0773480079836
0.0773475894156
0.0773471579759
0.0773467275607
0.0773463000419
0.0773458820766
0.0773454780652
0.0773450943547
0.07734473795
0.0773444163864
0.0773441357437
0.0773438988597
0.0773437044887
0.0773435478965
0.0773434223332
0.0773433205983
0.0773432361706
0.0773431637751
0.0773430995202
0.0773430407976
0.0773429858866
0.0773429330307
0.0773428807146
0.0773428360429
0.0752478094458
0.075247792459
0.0752475246904
0.075247277101
0.0752469242046
0.0752465625843
0.0752461584494
0.0752457474536
0.0752453238191
0.0752449012412
0.0752444815739
0.0752440714323
0.0752436752444
0.0752432993832
0.0752429508429
0.075242637035
0.0752423637948
0.075242133673
0.0752419452062
0.0752417935792
0.0752416720937
0.0752415736847
0.075241491996
0.0752414219073
0.0752413596517
0.0752413027093
0.0752412494198
0.0752411980883
0.0752411472605
0.0752411038294
0.0731639409542
0.0731639247026
0.0731636611811
0.0731634180115
0.0731630711041
0.0731627157867
0.0731623186314
0.0731619147972
0.0731614985493
0.0731610833911
0.0731606711637
0.0731602684448
0.0731598796922
0.0731595113042
0.073159170261
0.0731588638486
0.0731585976624
0.0731583739786
0.0731581911304
0.0731580442307
0.0731579266335
0.073157831404
0.0731577523419
0.073157684472
0.073157624144
0.0731575689211
0.0731575171986
0.0731574673406
0.0731574179507
0.0731573757173
0.071097790738
0.0710977751271
0.0710975156578
0.0710972766547
0.0710969354281
0.0710965860753
0.0710961955353
0.0710957984862
0.0710953892416
0.0710949811206
0.0710945759562
0.071094180293
0.0710937986197
0.0710934373599
0.0710931034764
0.0710928041279
0.0710925446748
0.0710923271307
0.0710921496387
0.0710920072475
0.0710918933646
0.0710918011798
0.0710917246401
0.0710916589072
0.0710916004402
0.0710915468796
0.0710914966734
0.0710914482409
0.0710914002417
0.0710913591659
0.0690490841365
0.069049069079
0.0690488134845
0.0690485784159
0.0690482425885
0.0690478988913
0.0690475146337
0.069047124026
0.0690467214342
0.0690463200009
0.0690459215552
0.0690455326123
0.0690451576933
0.069044803246
0.069044476213
0.0690441836236
0.0690439306085
0.0690437189297
0.0690435465524
0.0690434084689
0.06904329814
0.0690432088752
0.0690431347616
0.0690430710895
0.0690430144211
0.0690429624694
0.0690429137313
0.0690428666794
0.0690428200265
0.0690427800706
0.0670175633499
0.0670175487652
0.067017296884
0.0670170655382
0.0670167348535
0.06701639653
0.0670160182514
0.0670156337716
0.0670152375132
0.0670148424493
0.0670144504087
0.0670140678805
0.0670136994197
0.0670133514969
0.0670130310314
0.0670127449217
0.0670124980734
0.0670122920079
0.0670121245234
0.0670119905625
0.0670118836399
0.0670117971801
0.067011725403
0.0670116637207
0.0670116087924
0.0670115583991
0.0670115110841
0.0670114653703
0.0670114200219
0.0670113811505
0.0650029858945
0.0650029717085
0.0650027233948
0.0650024955794
0.0650021698046
0.065001836599
0.0650014640239
0.0650010853877
0.065000695173
0.0650003061896
0.0649999202696
0.0649995438791
0.0649991816076
0.0649988399477
0.0649985257917
0.0649982459059
0.0649980049758
0.0649978042919
0.0649976414965
0.0649975114881
0.0649974078356
0.0649973240741
0.06499725455
0.0649971947911
0.0649971415478
0.0649970926654
0.0649970467309
0.064997002315
0.0649969582316
0.0649969204114
0.0630051231251
0.0630051092704
0.0630048643932
0.0630046399342
0.0630043188594
0.0630039905405
0.0630036234204
0.0630032503706
0.063002865938
0.0630024827741
0.063002102718
0.0630017322151
0.0630013758902
0.0630010402563
0.0630007321752
0.0630004582801
0.0630002230404
0.0630000275257
0.0629998692318
0.0629997430192
0.0629996425109
0.0629995613489
0.0629994940002
0.0629994361022
0.0629993844921
0.0629993370757
0.0629992924812
0.0629992493254