/*--------------------------------*- C++ -*----------------------------------*\
| =========                 |                                                 |
| \\      /  F ield         | OpenFOAM: The Open Source CFD Toolbox           |
|  \\    /   O peration     | Version:  2206                                  |
|   \\  /    A nd           | Website:  www.openfoam.com                      |
|    \\/     M anipulation  |                                                 |
\*---------------------------------------------------------------------------*/
FoamFile
{
    version     2.0;
    format      ascii;
    arch        "LSB;label=32;scalar=64";
    class       surfaceScalarField;
    location    "100";
    object      phi;
}
// * * * * * * * * * * * * * * * * * * * * * * * * * * * * * * * * * * * * * //

dimensions      [0 3 -1 0 0 0 0];

oriented        oriented;

internalField   nonuniform List<scalar> 
5870
(
-2.62252903835e-08
1.26032276792e-06
-9.8200826959e-08
3.40466758511e-06
-2.06755103961e-07
5.05768458969e-06
-3.447794639e-07
6.3055150998e-06
-5.0651989225e-07
7.22023297552e-06
-6.87136790259e-07
7.8621515424e-06
-8.82446098221e-07
8.28173860778e-06
-1.0887647616e-06
8.52119445313e-06
-1.30281979672e-06
8.61576766281e-06
-1.52169566058e-06
8.5948571416e-06
-1.7428037322e-06
8.48293744057e-06
-1.96386357634e-06
8.30033717937e-06
-2.18288952339e-06
8.06389474866e-06
-2.39817872527e-06
7.7875112976e-06
-2.60829863153e-06
7.48261755714e-06
-2.81207261121e-06
7.15856785449e-06
-3.0085610633e-06
6.82297069456e-06
-3.19703497035e-06
6.4819646123e-06
-3.37695908236e-06
6.14046732392e-06
-3.54806471043e-06
5.8024675882e-06
-3.71061045168e-06
5.47138374622e-06
-3.8655611456e-06
5.15012571269e-06
-4.01326842701e-06
4.83971756547e-06
-4.14773168322e-06
4.53497965482e-06
-4.24361468445e-06
4.21736962442e-06
-4.23711307435e-06
3.8489047784e-06
-4.00863520401e-06
3.37403523324e-06
-3.3794571905e-06
2.73366805225e-06
-2.12810320569e-06
1.88493402357e-06
7.94496394843e-07
-2.05617407817e-08
1.28088450881e-06
-7.55378139977e-08
3.45964365847e-06
-1.56661928126e-07
5.13880870425e-06
-2.56916913414e-07
6.40577008574e-06
-3.70494889408e-07
7.33381095222e-06
-4.9269888094e-07
7.98435553486e-06
-6.19812970677e-07
8.40885269835e-06
-7.48966308338e-07
8.65034779164e-06
-8.78001189328e-07
8.74480254452e-06
-1.00534991678e-06
8.72220586946e-06
-1.12992284849e-06
8.60751037334e-06
-1.25100880857e-06
8.42142313934e-06
-1.36818825102e-06
8.1810741925e-06
-1.48125912555e-06
7.900582172e-06
-1.5901748263e-06
7.59153325831e-06
-1.69499222012e-06
7.26338524878e-06
-1.79582647303e-06
6.92380494774e-06
-1.89282202961e-06
6.57896016926e-06
-1.98619323961e-06
6.23383853517e-06
-2.07638702414e-06
5.89266137294e-06
-2.16406055661e-06
5.5590572783e-06
-2.24855138739e-06
5.23461654399e-06
-2.32258721558e-06
4.91375339437e-06
-2.36258383619e-06
4.57497627495e-06
-2.31989669061e-06
4.17468247897e-06
-2.12553787323e-06
3.65454596121e-06
-1.72072290197e-06
2.96922026235e-06
-1.11278338807e-06
2.12572853852e-06
-4.36108570962e-07
1.20825920676e-06
3.583878239e-07
-1.06067007549e-08
1.29149120946e-06
-3.88679279959e-08
3.48790488566e-06
-8.11528163011e-08
5.18109359308e-06
-1.34501988482e-07
6.45911925888e-06
-1.96497175958e-07
7.39580614095e-06
-2.65157500977e-07
8.05301586141e-06
-3.38848304229e-07
8.48254350322e-06
-4.16207013295e-07
8.7277065024e-06
-4.96084830595e-07
8.82468036351e-06
-5.77502081552e-07
8.80362312197e-06
-6.59615046688e-07
8.6896233403e-06
-7.41692087298e-07
8.50350018123e-06
-8.23096983102e-07
8.26247909017e-06
-9.03277639615e-07
7.98076282966e-06
-9.81758076908e-07
7.67001369692e-06
-1.05813071013e-06
7.33975788325e-06
-1.13205091119e-06
6.99772514989e-06
-1.20326372439e-06
6.65017298352e-06
-1.27171065735e-06
6.30228546947e-06
-1.33754691938e-06
5.95849763578e-06
-1.40013275448e-06
5.62164311389e-06
-1.45423552288e-06
5.28871931321e-06
-1.48298233009e-06
4.94250020242e-06
-1.45246081743e-06
4.54445476252e-06
-1.31874231072e-06
4.04096397273e-06
-1.05496436045e-06
3.39076801139e-06
-6.88714441967e-07
2.60297034434e-06
-3.17668904578e-07
1.75468300152e-06
-6.78711303897e-08
9.58461432949e-07
2.90516693857e-07
-1.03183865379e-08
1.30180959607e-06
-3.8400943402e-08
3.51598744269e-06
-8.01948314705e-08
5.22288748149e-06
-1.32376615272e-07
6.51130104316e-06
-1.92197532878e-07
7.45562705911e-06
-2.57371946642e-07
8.11819027583e-06
-3.26000000874e-07
8.55117155812e-06
-3.9650940061e-07
8.79821590284e-06
-4.67609977992e-07
8.89578094157e-06
-5.38256393944e-07
8.87426953852e-06
-6.07616171366e-07
8.75898311849e-06
-6.75041386514e-07
8.57092539679e-06
-7.40043120448e-07
8.32748082495e-06
-8.02268148319e-07
8.0429878579e-06
-8.61476804514e-07
7.72922235362e-06
-9.17521541723e-07
7.39580262096e-06
-9.70338850466e-07
7.05054245904e-06
-1.01999290922e-06
6.6998270427e-06
-1.066725266e-06
6.34901782693e-06
-1.1104771016e-06
6.00224947169e-06
-1.14855525754e-06
5.6597212699e-06
-1.17056797131e-06
5.31073202736e-06
-1.15362741444e-06
4.92555964596e-06
-1.06614125945e-06
4.45696860753e-06
-8.86802657025e-07
3.86162537048e-06
-6.30974235929e-07
3.13493959048e-06
-3.59432534538e-07
2.33142864316e-06
-1.47594431982e-07
1.54284489913e-06
-3.27574678487e-08
8.43624468976e-07
2.57759226084e-07
-8.83849293991e-09
1.31064808934e-06
-3.27950765056e-08
3.53994402688e-06
-6.82288641553e-08
5.25832126963e-06
-1.12120197076e-07
6.55519237646e-06
-1.6199398204e-07
7.50550084433e-06
-2.15844016126e-07
8.17204031013e-06
-2.72063851212e-07
8.60739139331e-06
-3.29383112817e-07
8.85553516449e-06
-3.86810806461e-07
8.95320863517e-06
-4.43585654962e-07
8.93104438686e-06
-4.99133410035e-07
8.81453087356e-06
-5.53030738485e-07
8.6248227249e-06
-6.04975106112e-07
8.37942519266e-06
-6.54759737608e-07
8.09277248905e-06
-7.02252075785e-07
7.77671469161e-06
-7.47377990863e-07
7.44092853588e-06
-7.90131952638e-07
7.09329642061e-06
-8.30624691916e-07
6.74031978181e-06
-8.68943373633e-07
6.38733650874e-06
-9.03970727818e-07
6.03727682569e-06
-9.30067923924e-07
5.68581846567e-06
-9.32683907742e-07
5.31334801113e-06
-8.88562404887e-07
4.88143814312e-06
-7.77203500723e-07
4.34560970309e-06
-6.00654696553e-07
3.68507656621e-06
-3.94210354313e-07
2.92849524817e-06
-2.10343565518e-07
2.14756185431e-06
-8.43731611517e-08
1.41687449469e-06
-1.86645936519e-08
7.77915901415e-07
2.39094632046e-07
-7.19040533781e-09
1.31783849472e-06
-2.65688811107e-08
3.55932250272e-06
-5.53389243805e-08
5.28709131302e-06
-9.11880932837e-08
6.5910415455e-06
-1.32215091027e-07
7.54652784221e-06
-1.76865966954e-07
8.21669118623e-06
-2.23878021726e-07
8.65440344822e-06
-2.72231517121e-07
8.90388866001e-06
-3.21108904086e-07
9.00208602223e-06
-3.69860421645e-07
8.97979590444e-06
-4.17975295391e-07
8.86264574747e-06
-4.65057694154e-07
8.67190512356e-06
-5.10806656142e-07
8.42517415489e-06
-5.54998930718e-07
8.13696476352e-06
-5.97474012193e-07
7.81918977311e-06
-6.38128417675e-07
7.4815829414e-06
-6.76939099891e-07
7.13210710282e-06
-7.13958554214e-07
6.77733923615e-06
-7.48841160968e-07
6.42221911573e-06
-7.78942173075e-07
6.06737783779e-06
-7.95761135912e-07
5.70263742836e-06
-7.82819360149e-07
5.30040623544e-06
-7.20966776345e-07
4.81958555944e-06
-6.02573372646e-07
4.22721629927e-06
-4.44194936161e-07
3.52669812973e-06
-2.82146331963e-07
2.76644664398e-06
-1.50256085126e-07
2.01567160751e-06
-6.19837974787e-08
1.32860220706e-06
-1.43156317476e-08
7.30247735694e-07
2.24779000231e-07
-6.62945893961e-09
1.32446795337e-06
-2.45091643339e-08
3.57720220748e-06
-5.10700061407e-08
5.31365215432e-06
-8.41898471441e-08
6.62416138613e-06
-1.22120817444e-07
7.58445881223e-06
-1.63429419694e-07
8.25799978832e-06
-2.06945941549e-07
8.69791996996e-06
-2.51721891351e-07
8.94866460977e-06
-2.9699425796e-07
9.04735838882e-06
-3.42155214403e-07
9.02495686084e-06
-3.86726472502e-07
8.9072170057e-06
-4.30337536213e-07
8.71551618721e-06
-4.72707178817e-07
8.46754379775e-06
-5.13627247126e-07
8.1778848318e-06
-5.52949750179e-07
7.85851227626e-06
-5.90588281601e-07
7.51922147295e-06
-6.26537001796e-07
7.16805582311e-06
-6.60740675611e-07
6.8115429101e-06
-6.92193275141e-07
6.45367171558e-06
-7.16519346174e-07
6.09170390892e-06
-7.23046163515e-07
5.70916424567e-06
-6.95675148439e-07
5.27303522053e-06
-6.21529314191e-07
4.74543972538e-06
-5.03307466511e-07
4.10899445156e-06
-3.63036143298e-07
3.38642680659e-06
-2.30197943549e-07
2.6336084443e-06
-1.24895307643e-07
1.91036897168e-06
-5.3012303516e-08
1.256719203e-06
-1.26889346604e-08
6.89924366912e-07
2.1209006597e-07
-6.27924088618e-09
1.33074719424e-06
-2.32414256725e-08
3.59416439215e-06
-4.84227500361e-08
5.33883347849e-06
-7.97885702353e-08
6.65552720608e-06
-1.15666089497e-07
7.62033633118e-06
-1.54687326103e-07
8.29702102461e-06
-1.95740235551e-07
8.73897287905e-06
-2.37927023579e-07
8.99085139742e-06
-2.80528793984e-07
9.08996015883e-06
-3.22975524836e-07
9.06740359124e-06
-3.6482073194e-07
8.94906221249e-06
-4.05720111402e-07
8.75641556615e-06
-4.45413431174e-07
8.50723711731e-06
-4.83708983885e-07
8.21618038404e-06
-5.2047364933e-07
7.89527694136e-06
-5.55639570676e-07
7.55438739398e-06
-5.89192336166e-07
7.20160858828e-06
-6.20845336896e-07
6.84319591056e-06
-6.48709557385e-07
6.48153593601e-06
-6.66742248625e-07
6.10973659992e-06
-6.63167160758e-07
5.70558915747e-06
-6.24125746384e-07
5.23399380603e-06
-5.43285919265e-07
4.66459989819e-06
-4.29918718621e-07
3.99562725067e-06
-3.05980146739e-07
3.26248823456e-06
-1.93550501713e-07
2.52117879915e-06
-1.05262880656e-07
1.82208135051e-06
-4.46804945969e-08
1.19613681683e-06
-1.06296241076e-08
6.55873496333e-07
2.01460441835e-07
-5.87410384358e-09
1.33662129836e-06
-2.17428112938e-08
3.61003310045e-06
-4.53044650262e-08
5.36239513362e-06
-7.46589140749e-08
6.68488165692e-06
-1.08243910518e-07
7.65392132969e-06
-1.44781445808e-07
8.33355856217e-06
-1.8323188186e-07
8.77742331747e-06
-2.22755063774e-07
9.03037458177e-06
-2.62677418554e-07
9.12988251603e-06
-3.02464090325e-07
9.10719026535e-06
-3.4169546012e-07
8.98829358468e-06
-3.80047340005e-07
8.79476744814e-06
-4.1727410929e-07
8.54446388888e-06
-4.53194704984e-07
8.25210098163e-06
-4.87686526713e-07
7.92976876497e-06
-5.20690924112e-07
7.58739179315e-06
-5.52136196303e-07
7.23305386207e-06
-5.81368039151e-07
6.8724277549e-06
-6.05492229703e-07
6.50566012809e-06
-6.17131585178e-07
6.1213759566e-06
-6.045394689e-07
5.69299704218e-06
-5.57153106535e-07
5.18660744472e-06
-4.74206832288e-07
4.58165362493e-06
-3.68250766493e-07
3.88967118565e-06
-2.5885117996e-07
3.15308864882e-06
-1.62456791309e-07
2.42478441123e-06
-8.77168648635e-08
1.74734142476e-06
-3.69117576746e-08
1.14533171025e-06
-8.6796594016e-09
6.27641398599e-07
1.92780782549e-07
-5.52492745268e-09
1.3421462258e-06
-2.0444789203e-08
3.62495296195e-06
-4.26004182016e-08
5.38455076202e-06
-7.02091747287e-08
6.71249041258e-06
-1.01804950241e-07
7.68551710412e-06
-1.36187819986e-07
8.36794143072e-06
-1.72381035991e-07
8.81361653216e-06
-2.09594702821e-07
9.06758824722e-06
-2.47195046378e-07
9.16748285816e-06
-2.84678403991e-07
9.1446736215e-06
-3.21649290944e-07
9.0252644703e-06
-3.57801851151e-07
8.83092000687e-06
-3.92904048636e-07
8.57956608519e-06
-4.26785412099e-07
8.28598234374e-06
-4.59334094096e-07
7.96231744578e-06
-4.90489787305e-07
7.61854748526e-06
-5.20066336932e-07
7.26263041065e-06
-5.46927014815e-07
6.89928843184e-06
-5.67174731504e-07
6.52590784408e-06
-5.72581842229e-07
6.12678306653e-06
-5.52340535461e-07
5.67275573459e-06
-4.99437490321e-07
5.13370439898e-06
-4.17197279773e-07
4.49941341386e-06
-3.1920887238e-07
3.79168277764e-06
-2.22149457226e-07
3.05602923315e-06
-1.385145843e-07
2.34114953784e-06
-7.44681892404e-08
1.68329502927e-06
-3.12707406972e-08
1.10213426132e-06
-7.35649850574e-09
6.03727156058e-07
1.85424283762e-07
-5.24894412751e-09
1.34739517e-06
-1.94228307169e-08
3.63912684854e-06
-4.04705368402e-08
5.4055984679e-06
-6.66985708618e-08
6.73871844618e-06
-9.67141917823e-08
7.71553272447e-06
-1.29377613386e-07
8.40060485168e-06
-1.63761120441e-07
8.84800003848e-06
-1.99114553201e-07
9.1029416792e-06
-2.34836071377e-07
9.20320437552e-06
-2.70447425229e-07
9.18028497447e-06
-3.05573097405e-07
9.06039014171e-06
-3.39922640326e-07
8.86526954886e-06
-3.73275753954e-07
8.61291919815e-06
-4.05471896417e-07
8.31817848533e-06
-4.36408217099e-07
7.99325376572e-06
-4.66004804099e-07
7.64814407158e-06
-4.93898057772e-07
7.29052366366e-06
-5.18389810968e-07
6.92378018445e-06
-5.34689415637e-07
6.54220744835e-06
-5.34235824657e-07
6.12632947503e-06
-5.07749255047e-07
5.64626916442e-06
-4.51493536418e-07
5.07744867998e-06
-3.71471463214e-07
4.41939134034e-06
-2.81043119617e-07
3.70125443363e-06
-1.94214828929e-07
2.96920094213e-06
-1.20657963432e-07
2.26759267204e-06
-6.48140821865e-08
1.62745114774e-06
-2.72573313642e-08
1.06457751023e-06
-6.43577854121e-09
5.82905603006e-07
1.78988504916e-07
-5.01329220444e-09
1.35240846204e-06
-1.85520453058e-08
3.65266560105e-06
-3.86566050017e-08
5.42570302666e-06
-6.37090729191e-08
6.76377091293e-06
-9.23789548118e-08
7.74420260502e-06
-1.23577440594e-07
8.43180333604e-06
-1.56418318947e-07
8.88084091533e-06
-1.90185006179e-07
9.13670836492e-06
-2.24302600235e-07
9.23732196804e-06
-2.58314259618e-07
9.21429663231e-06
-2.91861269085e-07
9.09393714977e-06
-3.24666147912e-07
8.89807442618e-06
-3.56518656343e-07
8.64477170538e-06
-3.87267211885e-07
8.34892703952e-06
-4.16813634042e-07
8.0228001867e-06
-4.45033811284e-07
7.67636424773e-06
-4.71325212612e-07
7.31681506396e-06
-4.93393974686e-07
6.94584894561e-06
-5.05742689639e-07
6.55455616261e-06
-4.99947710457e-07
6.12053449507e-06
-4.68550734285e-07
5.61487218746e-06
-4.10573169401e-07
5.0194711145e-06
-3.33583181964e-07
4.34240135237e-06
-2.50101511181e-07
3.61777276224e-06
-1.71863838912e-07
2.89096326935e-06
-1.06463368075e-07
2.20219220074e-06
-5.71313353191e-08
1.57811911457e-06
-2.40259162736e-08
1.03147209081e-06
-5.67421661808e-09
5.64553903023e-07
1.73314288259e-07
-4.80223545274e-09
1.35721069732e-06
-1.77712994947e-08
3.66563466453e-06
-3.70301215953e-08
5.44496184792e-06
-6.10290155888e-08
6.78776980587e-06
-8.84935968947e-08
7.77166718513e-06
-1.18380944723e-07
8.4616906826e-06
-1.49842155789e-07
8.91230212506e-06
-1.82190776917e-07
9.16905698469e-06
-2.14876037975e-07
9.27000722774e-06
-2.47460240126e-07
9.24688083308e-06
-2.79599658701e-07
9.12607656712e-06
-3.11028377939e-07
8.92950314408e-06
-3.41545318966e-07
8.67528864535e-06
-3.71006955529e-07
8.37838867489e-06
-3.99313054037e-07
8.05110628417e-06
-4.26266420439e-07
7.70331761319e-06
-4.50973483097e-07
7.34152212573e-06
-4.70556588291e-07
6.96543205001e-06
-4.79039906802e-07
6.56303948053e-06
-4.68513413626e-07
6.11000800122e-06
-4.33401621313e-07
5.57976039445e-06
-3.74899126759e-07
4.96096861943e-06
-3.01348346204e-07
4.26885057135e-06
-2.24194440579e-07
3.54061885609e-06
-1.53295054984e-07
2.82006388331e-06
-9.46821147438e-08
2.14357926009e-06
-5.0724571051e-08
1.53416157051e-06
-2.13090348186e-08
1.00205655425e-06
-5.02760442731e-09
5.48272472353e-07
1.68286683853e-07
-4.61361267191e-09
1.36182430995e-06
-1.70730644966e-08
3.67809411618e-06
-3.55752960667e-08
5.46346407919e-06
-5.8631721039e-08
6.81082623045e-06
-8.50182042501e-08
7.79805366785e-06
-1.13732927232e-07
8.49040540504e-06
-1.43960415854e-07
8.94252961308e-06
-1.75041223781e-07
9.20013779198e-06
-2.06446218633e-07
9.30141222191e-06
-2.37754869297e-07
9.27818948302e-06
-2.68636894995e-07
9.15695859219e-06
-2.9883679517e-07
8.95970304349e-06
-3.28161941313e-07
8.70461379096e-06
-3.56475448821e-07
8.40670218168e-06
-3.83665712306e-07
8.07829654706e-06
-4.09431784483e-07
7.72908368482e-06
-4.32551715199e-07
7.36464205591e-06
-4.49615714284e-07
6.98249604861e-06
-4.54405253516e-07
6.56782901945e-06
-4.39787598458e-07
6.09539034574e-06
-4.01973819183e-07
5.54194661472e-06
-3.43783421298e-07
4.90277822123e-06
-2.73806210277e-07
4.19887336005e-06
-2.02367177435e-07
3.4691798229e-06
-1.37780569626e-07
2.75547727522e-06
-8.48834595245e-08
2.09068214973e-06
-4.54121448558e-08
1.49469025561e-06
-1.90649286526e-08
9.75709337837e-07
-4.49722630625e-09
5.33704769821e-07
1.63789457419e-07
-4.44551028502e-09
1.36626982022e-06
-1.64509213928e-08
3.69009952753e-06
-3.42790121604e-08
5.4812921708e-06
-5.649555127e-08
6.83304277086e-06
-8.19211121719e-08
7.82347923039e-06
-1.09590453749e-07
8.51807474853e-06
-1.38717861908e-07
8.9716570233e-06
-1.68667942108e-07
9.23008787436e-06
-1.98930842225e-07
9.33167512425e-06
-2.29101336511e-07
9.3083599795e-06
-2.58861140238e-07
9.18671839817e-06
-2.87964119402e-07
8.9888060247e-06
-3.16225380636e-07
8.73287505437e-06
-3.43512443177e-07
8.43398924611e-06
-3.69690624553e-07
8.10447473029e-06
-3.94325324264e-07
7.75371838628e-06
-4.15846279167e-07
7.38616301242e-06
-4.30392543802e-07
6.99704231475e-06
-4.31721275081e-07
6.56915775223e-06
-4.13634858486e-07
6.0773039304e-06
-3.73945699716e-07
5.50225745704e-06
-3.16631610514e-07
4.84546413313e-06
-2.50196281878e-07
4.13243803246e-06
-1.83890180558e-07
3.40287372248e-06
-1.24757177084e-07
2.69634427262e-06
-7.67051765524e-08
2.04263015001e-06
-4.09977509329e-08
1.45898283074e-06
-1.72072366185e-08
9.51918824188e-07
-4.05978757538e-09
5.20557321365e-07
1.59729670322e-07
-4.29429968533e-09
1.37056411987e-06
-1.58914027178e-08
3.70169663028e-06
-3.31132337697e-08
5.49851400123e-06
-5.45743939878e-08
6.85450393021e-06
-7.91356257575e-08
7.84804046111e-06
-1.05864553002e-07
8.54480367462e-06
-1.34002205043e-07
8.9997946741e-06
-1.62934803867e-07
9.25902047189e-06
-1.92169829572e-07
9.36091014864e-06
-2.21315818255e-07
9.33750596684e-06
-2.50065283109e-07
9.2154678618e-06
-2.78180603474e-07
9.01692134373e-06
-3.0548388518e-07
8.760178335e-06
-3.31843881706e-07
8.46034924142e-06
-3.57089307263e-07
8.12972015478e-06
-3.80625124857e-07
7.77725420289e-06
-4.00530548079e-07
7.40606843471e-06
-4.12592522784e-07
7.00910428862e-06
-4.10730486943e-07
6.56729571574e-06
-3.89752829082e-07
6.05632627182e-06
-3.48850349821e-07
5.46135497705e-06
-2.92784907478e-07
4.78939869021e-06
-2.29773178368e-07
4.06942630282e-06
-1.68074937768e-07
3.34117548131e-06
-1.13684493685e-07
2.64195382804e-06
-6.97788215758e-08
1.99872447745e-06
-3.72656805816e-08
1.42646968934e-06
-1.56366632379e-08
9.30289806484e-07
-3.68930612179e-09
5.08609963935e-07
1.5604036404e-07
-4.15692794798e-09
1.37472104813e-06
-1.53830703969e-08
3.71292277336e-06
-3.20540900124e-08
5.51518502141e-06
-5.28289544169e-08
6.87527879512e-06
-7.66048998171e-08
7.87181640693e-06
-1.02479407963e-07
8.57067818314e-06
-1.29717805444e-07
9.02703307187e-06
-1.57725953562e-07
9.28702862024e-06
-1.86027080082e-07
9.38921127533e-06
-2.14242224695e-07
9.36572111154e-06
-2.42073726139e-07
9.24329936337e-06
-2.6929178792e-07
9.04413940547e-06
-2.95724665086e-07
8.78661121229e-06
-3.21238186259e-07
8.48586276251e-06
-3.45609858777e-07
8.15409182727e-06
-3.68062395842e-07
7.79970673992e-06
-3.8633849694e-07
7.42434453574e-06
-3.95979682764e-07
7.01874547439e-06
-3.91216041423e-07
6.56253207446e-06
-3.67867516649e-07
6.03297774699e-06
-3.26275330773e-07
5.41976279107e-06
-2.71696234308e-07
4.73481959374e-06
-2.11946513727e-07
4.00967658224e-06
-1.54391643741e-07
3.28362061126e-06
-1.04155226377e-07
2.59171741064e-06
-6.38338229965e-08
1.95840307403e-06
-3.40649167525e-08
1.39670078304e-06
-1.42891074145e-08
9.1051399709e-07
-3.37104270366e-09
4.97691899161e-07
1.52669320872e-07
-4.03142555042e-09
1.37875247355e-06
-1.49186327627e-08
3.7238099802e-06
-3.108638659e-08
5.53135277475e-06
-5.12341924826e-08
6.89542660044e-06
-7.42926298101e-08
7.89487484363e-06
-9.93864606378e-08
8.59577201331e-06
-1.25803212488e-07
9.05344982303e-06
-1.52966691935e-07
9.314192099e-06
-1.80414516835e-07
9.41665909953e-06
-2.07779153452e-07
9.39308574744e-06
-2.3477194137e-07
9.27029215067e-06
-2.61170308342e-07
9.07053777172e-06
-2.86807583197e-07
8.81224848664e-06
-3.11541541866e-07
8.51059672053e-06
-3.35083621588e-07
8.17763390645e-06
-3.56458649981e-07
7.82108176782e-06
-3.73100303806e-07
7.44098618909e-06
-3.80410445815e-07
7.02605561598e-06
-3.73039339194e-07
6.55516096756e-06
-3.47778741565e-07
6.00771714899e-06
-3.05905868204e-07
5.37788991731e-06
-2.52954642434e-07
4.68186836768e-06
-1.96284103216e-07
3.95300604277e-06
-1.42461974439e-07
3.22979848218e-06
-9.58862783438e-08
2.5451417143e-06
-5.8688359213e-08
1.92120515467e-06
-3.129804205e-08
1.36931046568e-06
-1.31248808007e-08
8.92340835665e-07
-3.09618763505e-09
4.87663205847e-07
1.49573133245e-07
-3.91627987131e-09
1.38266875316e-06
-1.44925216178e-08
3.73438622118e-06
-3.01985334567e-08
5.54705878553e-06
-4.97710066593e-08
6.91499907239e-06
-7.21711061805e-08
7.91727494176e-06
-9.65486189127e-08
8.6201495246e-06
-1.22211439021e-07
9.07911264166e-06
-1.4859983643e-07
9.34058049493e-06
-1.75264631765e-07
9.44332389339e-06
-2.01848777831e-07
9.41966989204e-06
-2.28071902145e-07
9.29651527366e-06
-2.53718097282e-07
9.09618396547e-06
-2.7862438756e-07
8.83715477577e-06
-3.02634513755e-07
8.53460684549e-06
-3.25379522196e-07
8.20037891381e-06
-3.45677451366e-07
7.841379696e-06
-3.6069060603e-07
7.45599934282e-06
-3.65779851651e-07
7.03114486077e-06
-3.56089495519e-07
6.54547061076e-06
-3.29314794354e-07
5.9809424471e-06
-2.87477226781e-07
5.33605234901e-06
-2.36227262519e-07
4.63061840282e-06
-1.82445753229e-07
3.89922453293e-06
-1.31993551858e-07
3.17934628024e-06
-8.86610878394e-08
2.50180924978e-06
-5.42034808601e-08
1.88674754724e-06
-2.88896092254e-08
1.34399659366e-06
-1.21121781729e-08
8.75563404272e-07
-2.85719899254e-09
4.78408226379e-07
1.46715934404e-07
-3.81015370475e-09
1.3864789069e-06
-1.40997926946e-08
3.74467586019e-06
-2.93802327626e-08
5.56233922559e-06
-4.84224319089e-08
6.93404127149e-06
-7.02157392633e-08
7.93906824904e-06
-9.39330021462e-08
8.64386678741e-06
-1.18900883362e-07
9.10408052277e-06
-1.44574824909e-07
9.36625443637e-06
-1.70517815412e-07
9.46926688377e-06
-1.96382476839e-07
9.44553455331e-06
-2.21896108418e-07
9.32202890515e-06
-2.46848913523e-07
9.12113677036e-06
-2.7107988451e-07
8.86138574673e-06
-2.94412075834e-07
8.55793903662e-06
-3.16383077732e-07
8.22234991558e-06
-3.35601956324e-07
7.86059857448e-06
-3.49004060042e-07
7.46940144642e-06
-3.51996889598e-07
7.03413769023e-06
-3.40262153264e-07
6.53373587443e-06
-3.12314560051e-07
5.9529948538e-06
-2.70754048276e-07
5.29449183711e-06
-2.21231338833e-07
4.58109569333e-06
-1.70150546557e-07
3.84814374061e-06
-1.22748405734e-07
3.13194413932e-06
-8.2304013883e-08
2.46136485787e-06
-5.02658258567e-08
1.85470935916e-06
-2.6777255944e-08
1.3205080237e-06
-1.12243015127e-08
8.60010449796e-07
-2.64765821345e-09
4.69831583043e-07
1.44068276151e-07
-3.71191577877e-09
1.39019082273e-06
-1.37362548432e-08
3.75470019948e-06
-2.86227511902e-08
5.5772257224e-06
-4.71740792959e-08
6.95259260023e-06
-6.84056744266e-08
7.96029984491e-06
-9.15117281032e-08
8.66697284191e-06
-1.15836275531e-07
9.12840507104e-06
-1.40848802509e-07
9.3912669642e-06
-1.66123561558e-07
9.49454164366e-06
-1.91322131778e-07
9.47073312433e-06
-2.16178946365e-07
9.34688572058e-06
-2.40489734874e-07
9.14544755956e-06
-2.64093358423e-07
8.8849893711e-06
-2.86785096054e-07
8.58063077487e-06
-3.07997847552e-07
8.24356266772e-06
-3.26135787879e-07
7.87873651541e-06
-3.37955357878e-07
7.48122101696e-06
-3.38985253722e-07
7.03516758658e-06
-3.25463182053e-07
6.52021380333e-06
-2.9663273702e-07
5.92416440919e-06
-2.55532220791e-07
5.25339132123e-06
-2.07730101906e-07
4.53329357485e-06
-1.59168747669e-07
3.79958238676e-06
-1.14534699304e-07
3.08731009127e-06
-7.66746172916e-08
2.42350477617e-06
-4.67852271103e-08
1.82481996926e-06
-2.4911679594e-08
1.29863447644e-06
-1.04403572938e-08
8.45539127715e-07
-2.46263181164e-09
4.61853857748e-07
1.41605644368e-07
-3.62063914004e-09
1.39381146184e-06
-1.33984766139e-08
3.7644780369e-06
-2.79189395233e-08
5.59174618535e-06
-4.60141688317e-08
6.97068782966e-06
-6.67238350039e-08
7.98100951125e-06
-8.92619598011e-08
8.68951096692e-06
-1.12988719179e-07
9.15213183065e-06
-1.373866475e-07
9.41566489278e-06
-1.62040463897e-07
9.51919546031e-06
-1.86620078897e-07
9.49531273956e-06
-2.10866579903e-07
9.37113222189e-06
-2.34580572791e-07
9.16916155263e-06
-2.57598317752e-07
8.90800711639e-06
-2.79680044218e-07
8.6027125015e-06
-3.00144970842e-07
8.26402759456e-06
-3.1720196171e-07
7.8957935065e-06
-3.27477558613e-07
7.49149661404e-06
-3.26682526585e-07
7.03437255475e-06
-3.11609978022e-07
6.50514125503e-06
-2.82141545447e-07
5.89469597677e-06
-2.41637513804e-07
5.21288728969e-06
-1.95527034411e-07
4.48718309561e-06
-1.49313482754e-07
3.75336883526e-06
-1.07198500247e-07
3.04519510886e-06
-7.1661281717e-08
2.38796755775e-06
-4.36905776679e-08
1.79684926532e-06
-2.32542815191e-08
1.27819818039e-06
-9.74409929959e-09
8.32028945586e-07
-2.29830774606e-09
4.54408066275e-07
1.39307336721e-07
-3.53554781032e-09
1.39734700971e-06
-1.30835866515e-08
3.77402607583e-06
-2.72628160119e-08
5.60592541473e-06
-4.49328446615e-08
6.98835785828e-06
-6.51559340354e-08
8.00123260057e-06
-8.71645911525e-08
8.71151962399e-06
-1.10334038336e-07
9.17530127776e-06
-1.34158974039e-07
9.4394898284e-06
-1.58233875692e-07
9.54327036187e-06
-1.82236431205e-07
9.51931529494e-06
-2.05913942451e-07
9.39480973308e-06
-2.29071148121e-07
9.19231875813e-06
-2.51538893105e-07
8.93047486137e-06
-2.7303515283e-07
8.62420876107e-06
-2.92758965798e-07
8.28375140744e-06
-3.08738019137e-07
7.91177255976e-06
-3.17516796667e-07
7.50027539149e-06
-3.15035711471e-07
7.03189146949e-06
-2.98628474722e-07
6.48873401831e-06
-2.68727614478e-07
5.86479511646e-06
-2.28919984656e-07
5.17307965976e-06
-1.84457328063e-07
4.44272043899e-06
-1.40430807594e-07
3.70934231477e-06
-1.00614445085e-07
3.00537874629e-06
-6.71737342566e-08
2.35452684689e-06
-4.09245781031e-08
1.77060010913e-06
-2.17739834495e-08
1.2590475857e-06
-9.12241934291e-09
8.1937738145e-07
-2.15159270708e-09
4.47437239613e-07
1.37155743965e-07
-3.45597882914e-09
1.40080298861e-06
-1.27891317055e-08
3.78335922887e-06
-2.66492694943e-08
5.61978555277e-06
-4.3921685046e-08
7.00563027414e-06
-6.36897633069e-08
8.02100067916e-06
-8.52032960052e-08
8.73303315705e-06
-1.07851574743e-07
9.19794955687e-06
-1.31140672247e-07
9.46277892628e-06
-1.54674192162e-07
9.56680388214e-06
-1.78137106536e-07
9.54277820964e-06
-2.01282516585e-07
9.41795514351e-06
-2.23918435518e-07
9.21495467731e-06
-2.45867180262e-07
8.95242360651e-06
-2.66797577576e-07
8.6451391586e-06
-2.85784573866e-07
8.30273840399e-06
-3.00692350354e-07
7.9266803365e-06
-3.08028428591e-07
7.50761146994e-06
-3.03998187289e-07
7.0278612284e-06
-2.86451121297e-07
6.4711869526e-06
-2.56289558826e-07
5.83463355417e-06
-2.1724954922e-07
5.13403965028e-06
-1.74381372735e-07
4.39985226268e-06
-1.3239238037e-07
3.66735332258e-06
-9.4679033967e-08
2.96766540001e-06
-6.31378368299e-08
2.32298564988e-06
-3.84402651751e-08
1.7459025376e-06
-2.04453069513e-08
1.24105262758e-06
-8.56455423463e-09
8.07496628823e-07
-2.01994110716e-09
4.4089262656e-07
1.35135802836e-07
-3.38136358054e-09
1.40418435213e-06
-1.25130083859e-08
3.7924908736e-06
-2.60739182104e-08
5.63334646266e-06
-4.29734698832e-08
7.02252982598e-06
-6.23148555137e-08
8.04034206503e-06
-8.33640746133e-08
8.75408237646e-06
-1.05523611549e-07
9.22010909414e-06
-1.28310204876e-07
9.48556551996e-06
-1.51336018157e-07
9.58982969578e-06
-1.74292865765e-07
9.56573505758e-06
-1.96939243401e-07
9.44060152155e-06
-2.19085451339e-07
9.23710088553e-06
-2.40541929413e-07
8.973880085e-06
-2.60921982468e-07
8.66551921192e-06
-2.79175104426e-07
8.32099152625e-06
-2.93022174358e-07
7.94052740673e-06
-2.98975024024e-07
7.51356431986e-06
-2.93528437499e-07
7.02241464213e-06
-2.75016280369e-07
6.45267479579e-06
-2.44736830682e-07
5.80435410469e-06
-2.06513196562e-07
5.09581601633e-06
-1.65180441157e-07
4.35851950749e-06
-1.25090610987e-07
3.62726349261e-06
-8.93062761824e-08
2.93188106536e-06
-5.94923143505e-08
2.29317168821e-06
-3.61989341658e-08
1.72260915756e-06
-1.92472875256e-08
1.22410098108e-06
-8.0616586503e-09
7.9631100007e-07
-1.90126447092e-09
4.34732232491e-07
1.33234538496e-07
-3.31121301934e-09
1.40749556514e-06
-1.22534077212e-08
3.80143306824e-06
-2.55329937482e-08
5.64662604861e-06
-4.2081989424e-08
7.03907882158e-06
-6.1022207432e-08
8.05928228294e-06
-8.1634884378e-08
8.77469505332e-06
-1.0333490742e-07
9.24180911708e-06
-1.25649042603e-07
9.50787965504e-06
-1.48197503895e-07
9.61237815697e-06
-1.70678548943e-07
9.58821610249e-06
-1.92855659886e-07
9.46277863242e-06
-2.14540299717e-07
9.25878552519e-06
-2.35527517832e-07
8.9948673031e-06
-2.5536942045e-07
8.68536111438e-06
-2.72891100103e-07
8.33851320581e-06
-2.8569193614e-07
7.95332824269e-06
-2.90324868028e-07
7.51819725167e-06
-2.83589173729e-07
7.01567894776e-06
-2.64267752679e-07
6.43335337475e-06
-2.33988655997e-07
5.77407500795e-06
-1.96612615146e-07
5.05843997538e-06
-1.5675320687e-07
4.31866009918e-06
-1.18434859483e-07
3.5889451452e-06
-8.44243239728e-08
2.89787052978e-06
-5.61862275071e-08
2.2649335917e-06
-3.41685061036e-08
1.70059143613e-06
-1.81625812058e-08
1.20809505615e-06
-7.6064230405e-09
7.85754841878e-07
-1.79383820158e-09
4.28919647629e-07
1.31440700294e-07
-3.24510342585e-09
1.41074066868e-06
-1.20087613547e-08
3.81019672634e-06
-2.50232279075e-08
5.65964051524e-06
-4.1241857542e-08
7.05529745122e-06
-5.98040097545e-08
8.0778444351e-06
-8.00052798745e-08
8.79489632336e-06
-1.01272243012e-07
9.26307608009e-06
-1.23141115193e-07
9.52974852708e-06
-1.4523970047e-07
9.63447674208e-06
-1.67272335552e-07
9.61024873737e-06
-1.89007065648e-07
9.48451336237e-06
-2.10255254345e-07
9.28003371363e-06
-2.30792961075e-07
9.01540500973e-06
-2.50106247841e-07
8.7046744009e-06
-2.66899051338e-07
8.35530600913e-06
-2.78671825174e-07
7.96510101636e-06
-2.82050631163e-07
7.52157605748e-06
-2.74146507434e-07
7.00777482389e-06
-2.54154161779e-07
6.41336102904e-06
-2.23972849259e-07
5.74389369529e-06
-1.87461974973e-07
5.02192910093e-06
-1.49012735229e-07
4.28021085933e-06
-1.12348264467e-07
3.55228067435e-06