/*--------------------------------*- C++ -*----------------------------------*\
| =========                 |                                                 |
| \\      /  F ield         | OpenFOAM: The Open Source CFD Toolbox           |
|  \\    /   O peration     | Version:  2206                                  |
|   \\  /    A nd           | Website:  www.openfoam.com                      |
|    \\/     M anipulation  |                                                 |
\*---------------------------------------------------------------------------*/
FoamFile
{
    version     2.0;
    format      ascii;
    arch        "LSB;label=32;scalar=64";
    class       volVectorField;
    location    "100";
    object      U;
}
// * * * * * * * * * * * * * * * * * * * * * * * * * * * * * * * * * * * * * //

dimensions      [0 1 -1 0 0 0 0];

internalField   nonuniform List<vector> 
3000
(
(1.00514458057 -0.000744522705372 -2.8063151596e-13)
(1.005199745 -0.00170310632564 -9.64028589255e-14)
(1.00531043585 -0.00269826283389 -6.30300625659e-14)
(1.00546243556 -0.00365899422614 -4.9358628204e-14)
(1.00564683018 -0.00457985139511 -3.88907328596e-14)
(1.00585649184 -0.00546342722317 -3.41161961999e-14)
(1.00608551791 -0.00631206599533 -2.97756793513e-14)
(1.00632890798 -0.00712708042445 -2.7386994883e-14)
(1.0065823712 -0.0079089914701 -2.5739608763e-14)
(1.00684220525 -0.00865780863979 -2.4105815453e-14)
(1.00710521504 -0.00937326446138 -2.29235450849e-14)
(1.00736865454 -0.0100549961308 -2.13507087126e-14)
(1.00763018161 -0.010702677786 -2.2240797521e-14)
(1.00788782059 -0.0113161113067 -1.78812997373e-14)
(1.00813993924 -0.0118952842338 -2.09564979939e-14)
(1.00838525052 -0.0124404027863 -1.90261546317e-14)
(1.00862271865 -0.0129519031658 -2.01741583195e-14)
(1.00885085624 -0.0134304281664 -2.43209513414e-14)
(1.00906629155 -0.0138767537746 -2.28959062431e-14)
(1.00926649507 -0.0142918094357 -1.13384905733e-14)
(1.00947305483 -0.0146774029244 -1.56307507996e-14)
(1.00979010339 -0.015038133786 -2.5222450941e-14)
(1.01043763909 -0.0153812308442 -1.55482774178e-14)
(1.01149155889 -0.0157035996814 -7.74341550577e-15)
(1.01178906063 -0.0159580706887 -2.50492359167e-14)
(1.00640478836 -0.0160112342507 -2.22846489097e-14)
(0.982512281328 -0.0155819836084 -2.18019202493e-14)
(0.913706816672 -0.0140618328097 -1.41638423566e-14)
(0.750658833222 -0.0103476457078 -8.03137357934e-15)
(0.396854543208 -0.00366081918169 -1.03307167427e-14)
(1.02739406077 -0.000572460173985 -7.25735945216e-13)
(1.02756270324 -0.00131409350993 -2.69054446179e-13)
(1.027903575 -0.00205341168133 -1.72225544889e-13)
(1.02836903452 -0.0027443828348 -1.26807854428e-13)
(1.02892964843 -0.00337624342135 -1.03093740821e-13)
(1.02956199524 -0.00395211505764 -9.30400741472e-14)
(1.03024694395 -0.00447567655479 -7.74964962341e-14)
(1.0309686355 -0.00495116960053 -7.16375152791e-14)
(1.03171385078 -0.00538312021225 -6.58854500183e-14)
(1.03247156688 -0.00577607826567 -5.77085575312e-14)
(1.03323262074 -0.0061344671243 -5.97261444567e-14)
(1.03398944227 -0.00646248523324 -4.76742650047e-14)
(1.03473583498 -0.00676403766776 -5.81206311626e-14)
(1.03546679823 -0.00704269039449 -3.54493218105e-14)
(1.03617839762 -0.00730164324261 -4.9626319414e-14)
(1.03686756915 -0.00754371771637 -4.52516305821e-14)
(1.03753131984 -0.00777134927781 -4.74491544809e-14)
(1.03816530669 -0.00798657315301 -5.53249006959e-14)
(1.03876818297 -0.00819106359644 -5.61648179008e-14)
(1.03937125705 -0.00838650173656 -2.87296943432e-14)
(1.04009628063 -0.00857557356389 -3.57798233481e-14)
(1.04109861046 -0.00876193594141 -5.43775586971e-14)
(1.0419255475 -0.00894100791009 -3.82543884813e-14)
(1.03959084351 -0.00906893657208 -2.5707218203e-14)
(1.02524894522 -0.00901810451928 -5.23187881429e-14)
(0.981179745693 -0.00856999173878 -4.79416963517e-14)
(0.881876216561 -0.00747530909819 -4.15837898631e-14)
(0.703343563603 -0.00554013740494 -2.68597401477e-14)
(0.44225735085 -0.00283907212675 -1.32005031386e-14)
(0.139647664077 -0.000247218215857 -7.49002217935e-15)
(1.04476400278 -0.000294306563994 -9.38574620982e-13)
(1.04492110388 -0.00068413096874 -3.6981845521e-13)
(1.04523857605 -0.00106506518398 -2.33142258123e-13)
(1.04567053252 -0.00143628830964 -1.63454531511e-13)
(1.0461890254 -0.00178623613482 -1.39687921718e-13)
(1.04677177096 -0.00211845484287 -1.17907203813e-13)
(1.04740072944 -0.00243415966186 -1.05089753364e-13)
(1.04806109911 -0.00273466732737 -9.75231127327e-14)
(1.04874071369 -0.00302110836866 -8.98773003388e-14)
(1.04942959277 -0.00329435380424 -7.8560344622e-14)
(1.05011958544 -0.0035550514328 -8.00632092139e-14)
(1.05080408091 -0.00380366534474 -6.62715817368e-14)
(1.05147777064 -0.00404051685387 -7.66326807415e-14)
(1.05213646615 -0.00426582543501 -5.53586792817e-14)
(1.052776947 -0.00447974695407 -6.64962447297e-14)
(1.05339650123 -0.00468240264063 -6.23739534149e-14)
(1.0539916059 -0.00487388663816 -6.58846053011e-14)
(1.05455897296 -0.00505429655715 -7.49470430109e-14)
(1.05511477101 -0.00522400707648 -7.02963061578e-14)
(1.05574408041 -0.00538429301579 -4.44731190741e-14)
(1.05657215977 -0.00553679178456 -5.20240112591e-14)
(1.05722131341 -0.00567651101519 -6.71961672495e-14)
(1.05505233132 -0.00577094249597 -5.21485461595e-14)
(1.04213219963 -0.00572874502183 -4.53558181881e-14)
(1.00295313082 -0.00539161318221 -6.35369545715e-14)
(0.916976611901 -0.00459886705882 -5.75099058611e-14)
(0.768905690415 -0.00332334123869 -4.54112160353e-14)
(0.563372890456 -0.00180155812073 -3.00144834055e-14)
(0.330956354969 -0.000545069417443 -1.50170805096e-14)
(0.10774200429 -3.94265956862e-06 -4.92905594542e-15)
(1.05270604423 -0.000287045123458 -1.06468111021e-12)
(1.05284838621 -0.000671771089983 -4.55243389872e-13)
(1.05313558731 -0.00104710943605 -2.85316945319e-13)
(1.05352718443 -0.00141094547825 -2.00462825927e-13)
(1.0539988377 -0.00174633277363 -1.69875629155e-13)
(1.0545309686 -0.00205805723355 -1.45094282623e-13)
(1.05510768849 -0.0023465280738 -1.27639423102e-13)
(1.0557158109 -0.00261295345893 -1.16806228513e-13)
(1.05634434631 -0.00285848721867 -1.08072453455e-13)
(1.05698412689 -0.00308423858769 -9.60411272365e-14)
(1.05762752082 -0.0032913104907 -9.54791789771e-14)
(1.05826820699 -0.00348080312289 -8.12372376688e-14)
(1.05890099733 -0.00365381431032 -8.94998986981e-14)
(1.05952170811 -0.00381143658883 -6.97798213037e-14)
(1.06012695692 -0.00395475086321 -7.97691289074e-14)
(1.06071338055 -0.00408481123413 -7.70799697103e-14)
(1.06127697437 -0.00420262198741 -8.12533847675e-14)
(1.06182154555 -0.00430921560494 -8.77380001916e-14)
(1.0623924664 -0.00440605923359 -7.91267675668e-14)
(1.06308597098 -0.00449517956536 -5.78507605648e-14)
(1.06372622726 -0.00457534743841 -6.55014657137e-14)
(1.06257812076 -0.00462799231036 -7.5331925743e-14)
(1.05381285512 -0.00459360776687 -6.28066157567e-14)
(1.02522459958 -0.0043615193166 -5.92053874558e-14)
(0.959791404827 -0.00381145914701 -6.82890833402e-14)
(0.843738488748 -0.00291404137719 -5.97756484724e-14)
(0.677905351065 -0.00182301094106 -4.52916601436e-14)
(0.481936368376 -0.000847836763248 -3.04945883801e-14)
(0.282001679924 -0.000250609889965 -1.64140500597e-14)
(0.0922358212315 -1.51502865272e-05 -5.43529686631e-15)
(1.05842793249 -0.00024366975036 -1.16117684713e-12)
(1.05857363296 -0.000574950786251 -5.2931683785e-13)
(1.05886701569 -0.000893351349928 -3.29372353191e-13)
(1.05926700703 -0.00120030733801 -2.32178386714e-13)
(1.0597483475 -0.00147775753036 -1.95311255723e-13)
(1.06029068285 -0.00173282578644 -1.6742816546e-13)
(1.06087756057 -0.00196565401827 -1.46441329415e-13)
(1.0614953389 -0.00217814671703 -1.33517527633e-13)
(1.06213269231 -0.00237199413749 -1.22797347818e-13)
(1.0627802176 -0.00254880896113 -1.10431940455e-13)
(1.06343013463 -0.00271011452202 -1.07737317912e-13)
(1.06407604865 -0.00285732092974 -9.29358436091e-14)
(1.06471276466 -0.00299172143097 -9.96443622844e-14)
(1.06533613209 -0.00311449423923 -8.14317486532e-14)
(1.06594267445 -0.00322670564572 -8.96072713642e-14)
(1.06652871221 -0.00332930863711 -8.90890308689e-14)
(1.06709231305 -0.00342316379448 -9.34782565701e-14)
(1.06765084345 -0.00350922600487 -9.66197357717e-14)
(1.06826696488 -0.00358886254666 -8.61601904966e-14)
(1.06891761747 -0.00366254602195 -6.86538952372e-14)
(1.06871748764 -0.00372201325473 -7.47067853627e-14)
(1.06399936865 -0.00373281149775 -8.1536252289e-14)
(1.04595354673 -0.00361963221595 -7.10958673502e-14)
(1.00063377964 -0.00328533931138 -6.77087533105e-14)
(0.914301204135 -0.00268030981376 -6.9955338722e-14)
(0.782707133187 -0.0018799304438 -5.94679854504e-14)
(0.61661535546 -0.00108180844164 -4.45258691067e-14)
(0.435827272345 -0.000482599415356 -3.03017925375e-14)
(0.256146575865 -0.000143785644251 -1.68735902154e-14)
(0.0842632979334 -6.14198562528e-06 -5.53063929182e-15)
(1.06474587081 -0.000197206060722 -1.21816051279e-12)
(1.06489001167 -0.00046761153457 -5.8954825487e-13)
(1.06518001003 -0.000724234601475 -3.60181627081e-13)
(1.0655753021 -0.000975919687468 -2.58196214541e-13)
(1.06605075377 -0.00120431856574 -2.15746455127e-13)
(1.06658619184 -0.00141751723988 -1.84872731112e-13)
(1.06716536696 -0.00161431553694 -1.61637527719e-13)
(1.06777481202 -0.0017963420063 -1.47138228556e-13)
(1.0684033787 -0.00196465636708 -1.34612069222e-13)
(1.06904183074 -0.00212029431038 -1.22155190022e-13)
(1.06968254169 -0.00226422502367 -1.17615184608e-13)
(1.07031925555 -0.0023973402479 -1.03545538941e-13)
(1.0709469015 -0.0025204621452 -1.06253994162e-13)
(1.07156139672 -0.00263434839981 -9.12901743078e-14)
(1.0721591289 -0.00273969374124 -9.84955407777e-14)
(1.07273662073 -0.00283713082431 -9.93075196935e-14)
(1.07329674723 -0.00292729259155 -1.0270943563e-13)
(1.07387011623 -0.00301103783286 -1.04253697305e-13)
(1.07449074507 -0.00308925657176 -9.26109207688e-14)
(1.07482349891 -0.00315932899676 -7.84642455537e-14)
(1.07290785853 -0.00320389836054 -8.25204319284e-14)
(1.06302275021 -0.00317543381297 -8.67931489972e-14)
(1.03444213784 -0.00299767760384 -7.74374166157e-14)
(0.974077450879 -0.00260715900626 -7.32843810181e-14)
(0.873599807861 -0.00201914458889 -7.02771064141e-14)
(0.736132457215 -0.00135306342195 -5.81539737617e-14)
(0.575319501867 -0.000766747223682 -4.43630011137e-14)
(0.406517900661 -0.000351735283335 -3.00434890808e-14)
(0.239620384525 -0.000110220489686 -1.68755876986e-14)
(0.0791579677376 -6.39204453558e-06 -5.50602352111e-15)
(1.07071292294 -0.000182250444049 -1.25527985761e-12)
(1.07085484424 -0.000431555351895 -6.42386986971e-13)
(1.07113989408 -0.000667199495998 -3.96861481944e-13)
(1.07152853888 -0.000900166344125 -2.81114930277e-13)
(1.07199622054 -0.00111110643506 -2.33691401392e-13)
(1.07252324949 -0.00130880202431 -2.00121181114e-13)
(1.07309374718 -0.00149118146902 -1.75044290563e-13)
(1.07369451186 -0.00166007352417 -1.59172845077e-13)
(1.07431459715 -0.00181629592612 -1.44941965054e-13)
(1.07494490693 -0.00196077471074 -1.32512522161e-13)
(1.07557790828 -0.00209437628708 -1.2634328839e-13)
(1.07620740428 -0.00221790708547 -1.12689132539e-13)
(1.07682835379 -0.00233212070934 -1.12995524305e-13)
(1.07743661653 -0.00243771830083 -1.00114329186e-13)
(1.07802841514 -0.00253534620709 -1.05793876894e-13)
(1.07860139809 -0.00262560650665 -1.07596363059e-13)
(1.0791652198 -0.00270916386872 -1.10513920532e-13)
(1.07975232098 -0.00278688400497 -1.10939572767e-13)
(1.08028714228 -0.00285868033124 -9.88949051947e-14)
(1.07990280966 -0.00291748846775 -8.66488406128e-14)
(1.07532795884 -0.00293664918219 -9.02061472057e-14)
(1.05907252203 -0.00286134398215 -9.16777438256e-14)
(1.01982625518 -0.00262655616464 -8.21317963532e-14)
(0.947049668431 -0.00220672575579 -7.60142818679e-14)
(0.837663443302 -0.00165786847756 -7.01661348993e-14)
(0.698859263703 -0.00109803148047 -5.73510390094e-14)
(0.543610121705 -0.000631530377014 -4.31778769121e-14)
(0.383543974436 -0.000298897184823 -2.95161992083e-14)
(0.225958048712 -9.73167089954e-05 -1.66724045136e-14)
(0.0746015595474 -6.4288243353e-06 -5.43562923278e-15)
(1.07594959603 -0.000172815118565 -1.2820645565e-12)
(1.07609154319 -0.000409230248823 -6.90805266098e-13)
(1.07637607826 -0.00063241716506 -4.11825461204e-13)
(1.07676404628 -0.000853539052462 -3.02287965407e-13)
(1.07723094922 -0.00105266865157 -2.50329721968e-13)
(1.07775715994 -0.00123936847488 -2.142216158e-13)
(1.07832683792 -0.00141100124411 -1.87469885738e-13)
(1.07892680187 -0.00156974450686 -1.70385992379e-13)
(1.07954612508 -0.00171627792179 -1.5327985875e-13)
(1.08017572112 -0.00185155915369 -1.42086874832e-13)
(1.0808080633 -0.00197644552614 -1.34620518e-13)
(1.08143695983 -0.00209173238619 -1.22628177568e-13)
(1.08205736077 -0.002198158605 -1.21647854228e-13)
(1.08266503682 -0.0022964058736 -1.0836995628e-13)
(1.08325627934 -0.00238709918392 -1.12273234581e-13)
(1.08383110652 -0.00247083807374 -1.15044824205e-13)
(1.08440513967 -0.00254832475319 -1.17278961425e-13)
(1.08498564736 -0.00262021688523 -1.16149069197e-13)
(1.08527786635 -0.00268465337307 -1.04747938178e-13)
(1.08368408227 -0.00272918732979 -9.29229805755e-14)
(1.07557588259 -0.00271949628205 -9.61008118289e-14)
(1.05226247916 -0.00260041822609 -9.60425639394e-14)
(1.00302775902 -0.00232550495232 -8.59905080959e-14)
(0.920532521729 -0.00190125974454 -7.91984578946e-14)
(0.805715401556 -0.00140080392934 -7.00041304885e-14)
(0.667405337247 -0.000922221593159 -5.74306796963e-14)
(0.517039737986 -0.000532042519518 -4.21365446389e-14)
(0.363942451878 -0.000252202105364 -2.90039014982e-14)
(0.214073394821 -8.16355613629e-05 -1.66220669586e-14)
(0.0705802105868 -5.05295339299e-06 -5.74493923033e-15)
(1.08077082215 -0.000161520068324 -1.30003657637e-12)
(1.08091303916 -0.000382938283093 -7.35204057334e-13)
(1.08119769479 -0.000591560401883 -4.38317841932e-13)
(1.08158585009 -0.000798922440485 -3.21935824739e-13)
(1.08205295882 -0.000985052220129 -2.65805108001e-13)
(1.08257939161 -0.00116007811511 -2.27344066343e-13)
(1.08314929969 -0.00132079400747 -1.99048545141e-13)
(1.08374949467 -0.00146961866536 -1.8058297094e-13)
(1.08436904954 -0.0016070082096 -1.63599274321e-13)
(1.08499887551 -0.00173390324306 -1.50874171052e-13)
(1.0856314463 -0.00185108624968 -1.42572351513e-13)
(1.08626057129 -0.00195929304914 -1.32470978736e-13)
(1.08688117881 -0.00205920741656 -1.28157532876e-13)
(1.08748896799 -0.0021514596947 -1.16024526161e-13)
(1.08808071337 -0.00223663248575 -1.20924432e-13)
(1.08865966816 -0.00231531342881 -1.21832158458e-13)
(1.089241299 -0.00238818311826 -1.23297938929e-13)
(1.08976396522 -0.0024553494574 -1.20996136171e-13)
(1.08959270392 -0.00251240643339 -1.10220845177e-13)
(1.0862664105 -0.00254136399093 -9.91197346852e-14)
(1.07394344623 -0.00250317397681 -1.0097061006e-13)
(1.04340610355 -0.00234834676738 -9.97363510259e-14)
(0.985335440894 -0.00205100011039 -8.90543509231e-14)
(0.895494603661 -0.00163977448739 -8.12400219463e-14)
(0.777491121609 -0.00118932739729 -7.06956306733e-14)
(0.640506713716 -0.000776110099982 -5.72392826758e-14)
(0.494566264462 -0.000444649989335 -4.22946745567e-14)
(0.347484548367 -0.000208916841291 -2.89309201499e-14)
(0.204215963971 -6.67801120181e-05 -1.65662926968e-14)
(0.0673095562812 -3.9354035959e-06 -5.71867381093e-15)
(1.08536311802 -0.000151847456551 -1.31066928828e-12)
(1.08550530702 -0.000360188242145 -7.75912599217e-13)
(1.08578956107 -0.000556089864648 -4.58654991336e-13)
(1.08617719786 -0.000751384724799 -3.40215401707e-13)
(1.08664369032 -0.000926257379714 -2.80252389036e-13)
(1.08716946501 -0.00109116980236 -2.39599774607e-13)
(1.08773870346 -0.00124242830493 -2.09847149945e-13)
(1.08833824012 -0.00138267449029 -1.90030178285e-13)
(1.08895716674 -0.00151215173375 -1.7098830118e-13)
(1.08958640543 -0.00163180498874 -1.59013629657e-13)
(1.09021843853 -0.00174234556096 -1.49968013677e-13)
(1.09084707793 -0.00184446312094 -1.3966547518e-13)
(1.09146722202 -0.00193879636648 -1.34195418213e-13)
(1.09207457502 -0.0020259341139 -1.23054907302e-13)
(1.09266690068 -0.00210642919875 -1.26447287896e-13)
(1.09325036176 -0.00218086465974 -1.28037644196e-13)
(1.09382719751 -0.00224981095694 -1.28720748092e-13)
(1.09420967183 -0.00231243821986 -1.24667789381e-13)
(1.09331022316 -0.00236124613071 -1.15344358224e-13)
(1.08775878135 -0.002373317905 -1.04973187834e-13)
(1.0707759698 -0.0023081919605 -1.06216356575e-13)
(1.03323604684 -0.00212586924059 -1.02942773758e-13)
(0.967619595265 -0.00181901970693 -9.12665765413e-14)
(0.872325614899 -0.00142880035128 -8.17414487062e-14)
(0.752577785226 -0.00102383158349 -7.12809136807e-14)
(0.617350824632 -0.000663074366351 -5.68640595755e-14)
(0.475497682636 -0.000377930533518 -4.21921084956e-14)
(0.333679766885 -0.000177047010396 -2.87802947463e-14)
(0.19602537342 -5.66013048773e-05 -1.63667815142e-14)
(0.0646125683025 -3.40196084281e-06 -5.30731272877e-15)
(1.08973490128 -0.000144277482762 -1.31602456744e-12)
(1.08987707469 -0.000342259246348 -8.13580756578e-13)
(1.09016096924 -0.000528181760969 -4.83179297422e-13)
(1.09054813121 -0.000713899699277 -3.57460931063e-13)
(1.09101405891 -0.000879837461078 -2.938719855e-13)
(1.09153923444 -0.00103664416923 -2.51156035613e-13)
(1.09210786512 -0.0011802580466 -2.20019415063e-13)
(1.09270680715 -0.00131353406804 -1.98912443249e-13)
(1.09332516907 -0.00143652858964 -1.77898948274e-13)
(1.09395388318 -0.00155021445826 -1.66648343617e-13)
(1.09458543971 -0.00165524293645 -1.57015380219e-13)
(1.09521364885 -0.00175227530254 -1.47957492909e-13)
(1.0958333795 -0.00184191745255 -1.40747268528e-13)
(1.09644048583 -0.00192472921538 -1.29641970785e-13)
(1.09703414081 -0.00200124779539 -1.32284810167e-13)
(1.09762105448 -0.00207204627478 -1.33618799656e-13)
(1.0981696539 -0.00213745161116 -1.33888715112e-13)
(1.09830128436 -0.00219531054147 -1.29733610345e-13)
(1.09638766532 -0.00223479200401 -1.20219796341e-13)
(1.08818757989 -0.00222924507439 -1.10084440502e-13)
(1.06631854485 -0.00213977827329 -1.10119907916e-13)
(1.02222489723 -0.00193746358016 -1.05648167155e-13)
(0.950280353607 -0.00162961021824 -9.3179993815e-14)
(0.85095991196 -0.0012626969422 -8.2951647083e-14)
(0.730392116666 -0.000896870121739 -7.17118663929e-14)
(0.597121142659 -0.000578032018866 -5.68549217574e-14)
(0.459009926904 -0.000328882498426 -4.21489779994e-14)
(0.321793699362 -0.000154237021046 -2.88270667479e-14)
(0.188966077935 -4.95048206463e-05 -1.65770569336e-14)
(0.062275429802 -3.03638616386e-06 -5.70237938508e-15)
(1.09388964273 -0.000137811130818 -1.31747662281e-12)
(1.094031883 -0.000326951302264 -8.48439949508e-13)
(1.09431560858 -0.000504435459509 -5.01511281765e-13)
(1.09470254849 -0.00068198272411 -3.73770770422e-13)
(1.09516821053 -0.000840333579158 -3.06860955238e-13)
(1.09569311458 -0.000990223461947 -2.62133962699e-13)
(1.09626147937 -0.00112731580946 -2.29654835627e-13)
(1.09686017396 -0.00125464508379 -2.07323398481e-13)
(1.09747831594 -0.0013720956221 -1.85538204709e-13)
(1.09810684265 -0.001480674845 -1.73894330965e-13)
(1.09873824782 -0.00158097536287 -1.63731593096e-13)
(1.09936633324 -0.0016736374837 -1.54007483315e-13)
(1.09998595525 -0.00175923801203 -1.4681177311e-13)
(1.10059331323 -0.00183831403807 -1.35966774217e-13)
(1.10118905441 -0.00191139335336 -1.37529741764e-13)
(1.10177528683 -0.00197901031153 -1.40126191271e-13)
(1.10225909251 -0.00204107509772 -1.38979021485e-13)
(1.10200541778 -0.00209377935178 -1.35779701032e-13)
(1.09879131205 -0.00212305224113 -1.25148209381e-13)
(1.08760903021 -0.0021000032056 -1.14815248951e-13)
(1.06080854173 -0.00198959136498 -1.13558491499e-13)
(1.01072254922 -0.00177387241014 -1.07880406132e-13)
(0.933519989938 -0.0014706114073 -9.46233788567e-14)
(0.831236862373 -0.00112706405481 -8.32980322442e-14)
(0.710453451491 -0.000794917764869 -7.12247321969e-14)
(0.579202996739 -0.000510352730985 -5.62325726751e-14)
(0.444504585138 -0.000289936145786 -4.26382150809e-14)
(0.31135263976 -0.000135959222518 -2.89011777617e-14)
(0.182756069482 -4.36574451087e-05 -1.64634808249e-14)
(0.0602137102919 -2.67558949607e-06 -5.33216241319e-15)
(1.09785762996 -0.000132008322826 -1.31580146464e-12)
(1.09799995699 -0.000313215282215 -8.806950924e-13)
(1.09828358431 -0.000483156322281 -5.21247739997e-13)
(1.09867039637 -0.000653355989893 -3.89197857415e-13)
(1.09913590612 -0.000804931019678 -3.19066899535e-13)
(1.09966066398 -0.000948622961243 -2.7259416991e-13)
(1.10022889494 -0.0010798923536 -2.38778117098e-13)
(1.10082747808 -0.00120191575012 -2.15309493649e-13)
(1.10144553662 -0.00131442242758 -1.92901400418e-13)
(1.1020740109 -0.00141845587838 -1.80723397942e-13)
(1.10270539531 -0.00151455071401 -1.70150046795e-13)
(1.10333347992 -0.00160333085397 -1.59668163867e-13)
(1.10395314943 -0.00168534566888 -1.5064929833e-13)
(1.10456114956 -0.00176111391043 -1.42010695799e-13)
(1.10515899463 -0.00183115375171 -1.44565083984e-13)
(1.10573577282 -0.00189590988567 -1.44973813027e-13)
(1.10610437197 -0.00195468265022 -1.4357208279e-13)
(1.10531401459 -0.00200177599414 -1.40880522576e-13)
(1.10053074257 -0.00202025341805 -1.29564701207e-13)
(1.08612913396 -0.0019805160259 -1.19823618474e-13)
(1.05449010171 -0.00185283045886 -1.17534734243e-13)
(0.999011307389 -0.00162913024941 -1.09746926431e-13)
(0.917462780833 -0.00133400236415 -9.56879301523e-14)
(0.813018107503 -0.00101295082468 -8.33354879139e-14)
(0.692426329345 -0.000710092149038 -7.08280099391e-14)
(0.563194460009 -0.00045423947149 -5.61309215914e-14)
(0.431622271189 -0.000257540543522 -4.19448429729e-14)
(0.302104643189 -0.000120626037648 -2.8649399423e-14)
(0.177263107956 -3.86950515288e-05 -1.63411276693e-14)
(0.0583923201959 -2.36314877645e-06 -5.28153375715e-15)
(1.10166648381 -0.000126826320802 -1.31169879017e-12)
(1.10180889209 -0.000300927341582 -9.10819631349e-13)
(1.10209243478 -0.000464133651357 -5.28744159408e-13)
(1.10247913475 -0.000627738121965 -4.03981481795e-13)
(1.10294451197 -0.000773267601703 -3.30841114459e-13)
(1.10346914534 -0.000911406910686 -2.82640203221e-13)
(1.10403726528 -0.00103747379624 -2.48228545928e-13)
(1.10463576064 -0.00115475419068 -2.22975414563e-13)
(1.10525375944 -0.00126284213369 -2.00073240728e-13)
(1.10588220472 -0.00136281660886 -1.87264374984e-13)
(1.10651358989 -0.00145515655667 -1.7628732425e-13)
(1.10714169533 -0.00154047370238 -1.65420548311e-13)
(1.10776149926 -0.00161929207776 -1.56322414284e-13)
(1.10837042433 -0.00169211630146 -1.47677001208e-13)
(1.10896925536 -0.00175944857318 -1.51025692091e-13)
(1.10952225783 -0.00182157451766 -1.49823197633e-13)
(1.10971229153 -0.00187699479233 -1.47934158977e-13)
(1.10822501922 -0.00191801823776 -1.42162403695e-13)
(1.10163429759 -0.00192541961987 -1.33626406896e-13)
(1.08386717435 -0.00187026233817 -1.23690166655e-13)
(1.04757769311 -0.00172881658122 -1.2047256444e-13)
(0.987295900106 -0.00150130698286 -1.11519290924e-13)
(0.902165527433 -0.00121631605797 -9.65700625024e-14)
(0.796168107166 -0.00091636025277 -8.33367868764e-14)
(0.676045805265 -0.000639049957972 -7.04659741583e-14)
(0.548794568037 -0.000407513586297 -5.59171782424e-14)
(0.420097987525 -0.000230649326003 -4.16003436141e-14)
(0.293855550964 -0.000107942243634 -2.84278802389e-14)
(0.172370963967 -3.46188890935e-05 -1.6226412247e-14)
(0.0567716519458 -2.11728450061e-06 -5.2420964341e-15)
(1.10533330977 -0.000122214012501 -1.30580690372e-12)
(1.10547579917 -0.000289971735351 -9.39063118485e-13)
(1.10575927692 -0.000447191673857 -5.58039777517e-13)
(1.10614588871 -0.000604902182068 -4.18277930902e-13)
(1.10661116266 -0.000745056426982 -3.41423110235e-13)
(1.10713570333 -0.000878236247596 -2.92179821587e-13)
(1.10770374544 -0.000999666828857 -2.54779451896e-13)
(1.10830218693 -0.00111271476824 -2.30311816108e-13)
(1.10892015958 -0.00121685856344 -2.07097500583e-13)
(1.10954860858 -0.00131321009737 -1.91429264438e-13)
(1.11018002472 -0.00140219602729 -1.82173713659e-13)
(1.11080818733 -0.00148441941653 -1.70872900411e-13)
(1.11142824909 -0.00156038134621 -1.61915252899e-13)
(1.11203826846 -0.00163057556418 -1.52252406495e-13)
(1.11263544431 -0.00169547447612 -1.55880921554e-13)
(1.11314428119 -0.00175512090388 -1.53775011532e-13)
(1.11308136835 -0.00180704868036 -1.52201132316e-13)
(1.11073575239 -0.00184159286894 -1.4705571285e-13)
(1.10213685664 -0.0018379281834 -1.37497988168e-13)
(1.08093669394 -0.0017688818774 -1.27089161212e-13)
(1.04024362768 -0.00161682963246 -1.22703306091e-13)
(0.97571182504 -0.00138859796508 -1.12970722165e-13)
(0.887633724046 -0.00111471901703 -9.75216260863e-14)
(0.78054882893 -0.000834237439624 -8.43322112586e-14)
(0.66108411791 -0.000579253241888 -7.11613228115e-14)
(0.535753179637 -0.00036844275103 -5.59553418524e-14)
(0.40970827517 -0.000208271789337 -4.14882341569e-14)
(0.286434288788 -9.7431310866e-05 -2.82952629413e-14)
(0.167972615106 -3.12549361711e-05 -1.61515412819e-14)
(0.0553143154256 -1.91600302517e-06 -5.21504448006e-15)
(1.10887121222 -0.000118067929004 -1.29850998889e-12)
(1.10901378611 -0.000280112844335 -9.65351777205e-13)
(1.10929722389 -0.000431962506327 -5.7785332963e-13)
(1.10968377936 -0.00058435945023 -4.31949104232e-13)
(1.11014898869 -0.00071969027454 -3.52586855556e-13)
(1.11067347876 -0.000848400476052 -3.01301311924e-13)
(1.11124148721 -0.000965663256793 -2.61898146536e-13)
(1.11183991985 -0.00107490049311 -2.37363618781e-13)
(1.11245791107 -0.00117549343808 -2.1380175296e-13)
(1.11308640729 -0.00126858284257 -1.99875226909e-13)
(1.11371789556 -0.0013545469813 -1.87795368316e-13)
(1.11434617081 -0.00143398283806 -1.76167957771e-13)
(1.11496664042 -0.00150737078878 -1.67147289576e-13)
(1.11557767017 -0.00157519491963 -1.58950456865e-13)
(1.11616856904 -0.00163787557534 -1.58458780074e-13)
(1.11660656942 -0.00169512014672 -1.57978748101e-13)
(1.11620779639 -0.0017433657269 -1.56073836698e-13)
(1.11284771593 -0.00177111003667 -1.50077012084e-13)
(1.10208019681 -0.00175664549164 -1.40927690566e-13)
(1.07744377639 -0.00167536181885 -1.3016199493e-13)
(1.03262566121 -0.00151543835037 -1.25289202875e-13)
(0.964348210497 -0.0012887322119 -1.14253642012e-13)
(0.873847136356 -0.00102631855001 -9.82421869917e-14)
(0.766032610739 -0.000763693828383 -8.43203598973e-14)
(0.64735091495 -0.000528310657676 -7.0808071035e-14)
(0.523867577144 -0.000335319692555 -5.57802280995e-14)
(0.400274433055 -0.000189347378257 -4.13664705627e-14)
(0.279706563256 -8.85460219113e-05 -2.82132463933e-14)
(0.163986913937 -2.84061573582e-05 -1.61146627802e-14)
(0.0539934628976 -1.74294866423e-06 -5.20165887241e-15)
(1.11229234 -0.000114302813453 -1.29015539097e-12)
(1.11243499959 -0.000271152142743 -9.89880247437e-13)
(1.11271841618 -0.000418132816507 -5.84670753663e-13)
(1.11310493924 -0.000565691770576 -4.45006324125e-13)
(1.11357011309 -0.000696649879572 -3.62176085566e-13)
(1.11409458411 -0.000821292152448 -3.10132233001e-13)
(1.11466259196 -0.000934772109754 -2.70552860565e-13)
(1.11526104933 -0.00104054506802 -2.4421889969e-13)
(1.11587909232 -0.00113791175183 -2.20263112587e-13)
(1.11650766774 -0.00122803704537 -2.0541111084e-13)
(1.11713925929 -0.00131125499338 -1.93210058957e-13)
(1.11776770255 -0.00138815820953 -1.81285372349e-13)
(1.11838871359 -0.00145920829936 -1.72136145405e-13)
(1.11900023112 -0.00152487815223 -1.63442315484e-13)
(1.11957784057 -0.00158550559 -1.63829871436e-13)
(1.11991220595 -0.00164036778222 -1.62472698051e-13)
(1.11908891639 -0.00168472178615 -1.59867000742e-13)
(1.11456863265 -0.00170545566093 -1.52951319297e-13)
(1.10151180807 -0.00168066189065 -1.44094949151e-13)
(1.07348615749 -0.00158880277409 -1.329543589e-13)
(1.02483420808 -0.0014233204113 -1.27306038076e-13)
(0.953263788415 -0.00119974792586 -1.15356956997e-13)
(0.860774378652 -0.000948775227261 -9.87600439556e-14)
(0.752507285259 -0.000702482402768 -8.4099550113e-14)
(0.63469033174 -0.000484403676273 -7.02422463078e-14)
(0.512976835325 -0.000306873594782 -5.54684314945e-14)
(0.391657828956 -0.000173116517599 -4.12084864258e-14)
(0.273570578733 -8.09234065852e-05 -2.81275122431e-14)
(0.160353641245 -2.59587668525e-05 -1.60775604946e-14)
(0.0527895215448 -1.59339895228e-06 -5.18825353101e-15)
(1.11560738227 -0.000110864172974 -1.28106695554e-12)
(1.11575012676 -0.000262961781427 -1.01292131614e-12)
(1.116033535 -0.000405501256217 -6.06076550552e-13)
(1.1164200417 -0.000548630881115 -4.57652379177e-13)
(1.1168851997 -0.000675601536502 -3.71689476991e-13)
(1.11740967274 -0.000796520654147 -3.18648589313e-13)
(1.117977702 -0.000906547814557 -2.80756417855e-13)
(1.11857620631 -0.00100915346134 -2.50866323551e-13)
(1.11919432281 -0.00110357279805 -2.26434377351e-13)
(1.11982299804 -0.00119098985026 -2.11442189615e-13)
(1.120454715 -0.00127169863934 -1.98400782648e-13)
(1.1210833815 -0.00134628846005 -1.86235405423e-13)
(1.12170501609 -0.00141520372611 -1.76952785845e-13)
(1.12231588071 -0.00147890151026 -1.68259624931e-13)
(1.12287050384 -0.00153759969992 -1.68792680974e-13)
(1.12306280851 -0.00159005517125 -1.66041692733e-13)
(1.12172342526 -0.00163031216232 -1.63642925854e-13)
(1.11591114508 -0.00164393979571 -1.57533399645e-13)
(1.10048139721 -0.00160943442597 -1.47202749789e-13)
(1.06915107344 -0.00150859336202 -1.35597952723e-13)
(1.01695626421 -0.00133946575236 -1.28492997513e-13)
(0.942495140566 -0.00112014697477 -1.1622341521e-13)
(0.84837809553 -0.000880353763301 -9.93910663347e-14)
(0.739874048256 -0.000648980015019 -8.491516471e-14)
(0.62297277373 -0.000446251974277 -7.0926138735e-14)
(0.502950439836 -0.000282237322253 -5.5578721506e-14)
(0.383747366987 -0.000159081784453 -4.11948699188e-14)
(0.267944899127 -7.43365419349e-05 -2.809480987e-14)
(0.157024207589 -2.384465768e-05 -1.60595345434e-14)
(0.0516863980103 -1.46443965729e-06 -5.17993609103e-15)
(1.11882533315 -0.000107710157862 -1.27142303887e-12)
(1.11896816108 -0.00025544396662 -1.03440499637e-12)
(1.11925157129 -0.000393914642703 -6.22805356178e-13)
(1.11963807451 -0.000532972815282 -4.69868047555e-13)
(1.12010323248 -0.000656291438318 -3.81474214122e-13)
(1.1206277244 -0.000773788885295 -3.26871913532e-13)