0 	2e-06 	2e-07 	0 	1 	0 	0
0.0021021021 	2e-06 	2e-07 	0 	1 	0 	0
0.0042042042 	2e-06 	2e-07 	0 	1 	0 	0
0.0063063063 	2e-06 	2e-07 	0 	1 	0 	0
0.0084084084 	2e-06 	2e-07 	0 	1 	0 	0
0.010510511 	2e-06 	2e-07 	0 	1 	0 	0
0.012612613 	2e-06 	2e-07 	0 	1 	0 	0
0.014714715 	2e-06 	2e-07 	0 	1 	0 	0
0.016816817 	2e-06 	2e-07 	0 	1 	0 	0
0.018918919 	2e-06 	2e-07 	0 	1 	0 	0
0.021021021 	2e-06 	2e-07 	0 	1 	0 	0
0.023123123 	2e-06 	2e-07 	0 	1 	0 	0
0.025225225 	2e-06 	2e-07 	0 	1 	0 	0
0.027327327 	2e-06 	2e-07 	0 	1 	0 	0
0.029429429 	2e-06 	2e-07 	0 	1 	0 	0
0.031531532 	2e-06 	2e-07 	0 	1 	0 	0
0.033633634 	2e-06 	2e-07 	0 	1 	0 	0
0.035735736 	2e-06 	2e-07 	0 	1 	0 	0
0.037837838 	2e-06 	2e-07 	0 	1 	0 	0
0.03993994 	2e-06 	2e-07 	0 	1 	0 	0
0.042042042 	2e-06 	2e-07 	0 	1 	0 	0
0.044144144 	2e-06 	2e-07 	0 	1 	0 	0
0.046246246 	2e-06 	2e-07 	0 	1 	0 	0
0.048348348 	2e-06 	2e-07 	0 	1 	0 	0
0.05045045 	2e-06 	2e-07 	0 	1 	0 	0
0.052552553 	2e-06 	2e-07 	0 	1 	0 	0
0.054654655 	2e-06 	2e-07 	0 	1 	0 	0
0.056756757 	2e-06 	2e-07 	0 	1 	0 	0
0.058858859 	2e-06 	2e-07 	0 	1 	0 	0
0.060960961 	2e-06 	2e-07 	0 	1 	0 	0
0.063063063 	2e-06 	2e-07 	0 	1 	0 	0
0.065165165 	2e-06 	2e-07 	0 	1 	0 	0
0.067267267 	2e-06 	2e-07 	0 	1 	0 	0
0.069369369 	2e-06 	2e-07 	0 	1 	0 	0
0.071471471 	2e-06 	2e-07 	0 	1 	0 	0
0.073573574 	2e-06 	2e-07 	0 	1 	0 	0
0.075675676 	2e-06 	2e-07 	0 	1 	0 	0
0.077777778 	2e-06 	2e-07 	0 	1 	0 	0
0.07987988 	2e-06 	2e-07 	0 	1 	0 	0
0.081981982 	2e-06 	2e-07 	0 	1 	0 	0
0.084084084 	2e-06 	2e-07 	0 	1 	0 	0
0.086186186 	2e-06 	2e-07 	0 	1 	0 	0
0.088288288 	2e-06 	2e-07 	0 	1 	0 	0
0.09039039 	2e-06 	2e-07 	0 	1 	0 	0
0.092492492 	2e-06 	2e-07 	0 	1 	0 	0
0.094594595 	2e-06 	2e-07 	0 	1 	0 	0
0.096696697 	1.8237346e-06 	1.8237355e-07 	0 	0.91186732 	0 	0
0.098798799 	1.2995399e-06 	1.2995434e-07 	0 	0.64976994 	0 	0
0.1009009 	7.7544214e-07 	7.7544826e-08 	0 	0.38772107 	0 	0
0.103003 	2.5147379e-07 	2.5148254e-08 	0 	0.1257369 	0 	0
0.10510511 	0 	1e-12 	0 	0 	0 	0
0.10720721 	0 	1e-12 	0 	0 	0 	0
0.10930931 	0 	1e-12 	0 	0 	0 	0
0.11141141 	0 	1e-12 	0 	0 	0 	0
0.11351351 	0 	1e-12 	0 	0 	0 	0
0.11561562 	0 	1e-12 	0 	0 	0 	0
0.11771772 	0 	1e-12 	0 	0 	0 	0
0.11981982 	0 	1e-12 	0 	0 	0 	0
0.12192192 	0 	1e-12 	0 	0 	0 	0
0.12402402 	0 	1e-12 	0 	0 	0 	0
0.12612613 	0 	1e-12 	0 	0 	0 	0
0.12822823 	0 	1e-12 	0 	0 	0 	0
0.13033033 	0 	1e-12 	0 	0 	0 	0
0.13243243 	0 	1e-12 	0 	0 	0 	0
0.13453453 	0 	1e-12 	0 	0 	0 	0
0.13663664 	0 	1e-12 	0 	0 	0 	0
0.13873874 	0 	1e-12 	0 	0 	0 	0
0.14084084 	0 	1e-12 	0 	0 	0 	0
0.14294294 	0 	1e-12 	0 	0 	0 	0
0.14504505 	0 	1e-12 	0 	0 	0 	0
0.14714715 	0 	1e-12 	0 	0 	0 	0
0.14924925 	0 	1e-12 	0 	0 	0 	0
0.15135135 	0 	1e-12 	0 	0 	0 	0
0.15345345 	0 	1e-12 	0 	0 	0 	0
0.15555556 	0 	1e-12 	0 	0 	0 	0
0.15765766 	0 	1e-12 	0 	0 	0 	0
0.15975976 	0 	1e-12 	0 	0 	0 	0
0.16186186 	0 	1e-12 	0 	0 	0 	0
0.16396396 	0 	1e-12 	0 	0 	0 	0
0.16606607 	0 	1e-12 	0 	0 	0 	0
0.16816817 	0 	1e-12 	0 	0 	0 	0
0.17027027 	0 	1e-12 	0 	0 	0 	0
0.17237237 	0 	1e-12 	0 	0 	0 	0
0.17447447 	0 	1e-12 	0 	0 	0 	0
0.17657658 	0 	1e-12 	0 	0 	0 	0
0.17867868 	0 	1e-12 	0 	0 	0 	0
0.18078078 	0 	1e-12 	0 	0 	0 	0
0.18288288 	0 	1e-12 	0 	0 	0 	0
0.18498498 	0 	1e-12 	0 	0 	0 	0
0.18708709 	0 	1e-12 	0 	0 	0 	0
0.18918919 	0 	1e-12 	0 	0 	0 	0
0.19129129 	0 	1e-12 	0 	0 	0 	0
0.19339339 	0 	1e-12 	0 	0 	0 	0
0.1954955 	0 	1e-12 	0 	0 	0 	0
0.1975976 	0 	1e-12 	0 	0 	0 	0
0.1996997 	0 	1e-12 	0 	0 	0 	0
0.2018018 	0 	1e-12 	0 	0 	0 	0
0.2039039 	0 	1e-12 	0 	0 	0 	0
0.20600601 	0 	1e-12 	0 	0 	0 	0
0.20810811 	0 	1e-12 	0 	0 	0 	0
0.21021021 	0 	1e-12 	0 	0 	0 	0
0.21231231 	0 	1e-12 	0 	0 	0 	0
0.21441441 	0 	1e-12 	0 	0 	0 	0
0.21651652 	0 	1e-12 	0 	0 	0 	0
0.21861862 	0 	1e-12 	0 	0 	0 	0
0.22072072 	0 	1e-12 	0 	0 	0 	0
0.22282282 	0 	1e-12 	0 	0 	0 	0
0.22492492 	0 	1e-12 	0 	0 	0 	0
0.22702703 	0 	1e-12 	0 	0 	0 	0
0.22912913 	0 	1e-12 	0 	0 	0 	0
0.23123123 	0 	1e-12 	0 	0 	0 	0
0.23333333 	0 	1e-12 	0 	0 	0 	0
0.23543544 	0 	1e-12 	0 	0 	0 	0
0.23753754 	0 	1e-12 	0 	0 	0 	0
0.23963964 	0 	1e-12 	0 	0 	0 	0
0.24174174 	0 	1e-12 	0 	0 	0 	0
0.24384384 	0 	1e-12 	0 	0 	0 	0
0.24594595 	0 	1e-12 	0 	0 	0 	0
0.24804805 	0 	1e-12 	0 	0 	0 	0
0.25015015 	0 	1e-12 	0 	0 	0 	0
0.25225225 	0 	1e-12 	0 	0 	0 	0
0.25435435 	0 	1e-12 	0 	0 	0 	0
0.25645646 	0 	1e-12 	0 	0 	0 	0
0.25855856 	0 	1e-12 	0 	0 	0 	0
0.26066066 	0 	1e-12 	0 	0 	0 	0
0.26276276 	0 	1e-12 	0 	0 	0 	0
0.26486486 	0 	1e-12 	0 	0 	0 	0
0.26696697 	0 	1e-12 	0 	0 	0 	0
0.26906907 	0 	1e-12 	0 	0 	0 	0
0.27117117 	0 	1e-12 	0 	0 	0 	0
0.27327327 	0 	1e-12 	0 	0 	0 	0
0.27537538 	0 	1e-12 	0 	0 	0 	0
0.27747748 	0 	1e-12 	0 	0 	0 	0
0.27957958 	0 	1e-12 	0 	0 	0 	0
0.28168168 	0 	1e-12 	0 	0 	0 	0
0.28378378 	0 	1e-12 	0 	0 	0 	0
0.28588589 	0 	1e-12 	0 	0 	0 	0
0.28798799 	0 	1e-12 	0 	0 	0 	0
0.29009009 	0 	1e-12 	0 	0 	0 	0
0.29219219 	0 	1e-12 	0 	0 	0 	0
0.29429429 	0 	1e-12 	0 	0 	0 	0
0.2963964 	0 	1e-12 	0 	0 	0 	0
0.2984985 	0 	1e-12 	0 	0 	0 	0
0.3006006 	0 	1e-12 	0 	0 	0 	0
0.3027027 	0 	1e-12 	0 	0 	0 	0
0.3048048 	0 	1e-12 	0 	0 	0 	0
0.30690691 	0 	1e-12 	0 	0 	0 	0
0.30900901 	0 	1e-12 	0 	0 	0 	0
0.31111111 	0 	1e-12 	0 	0 	0 	0
0.31321321 	0 	1e-12 	0 	0 	0 	0
0.31531532 	0 	1e-12 	0 	0 	0 	0
0.31741742 	0 	1e-12 	0 	0 	0 	0
0.31951952 	0 	1e-12 	0 	0 	0 	0
0.32162162 	0 	1e-12 	0 	0 	0 	0
0.32372372 	0 	1e-12 	0 	0 	0 	0
0.32582583 	0 	1e-12 	0 	0 	0 	0
0.32792793 	0 	1e-12 	0 	0 	0 	0
0.33003003 	0 	1e-12 	0 	0 	0 	0
0.33213213 	0 	1e-12 	0 	0 	0 	0
0.33423423 	0 	1e-12 	0 	0 	0 	0
0.33633634 	0 	1e-12 	0 	0 	0 	0
0.33843844 	0 	1e-12 	0 	0 	0 	0
0.34054054 	0 	1e-12 	0 	0 	0 	0
0.34264264 	0 	1e-12 	0 	0 	0 	0
0.34474474 	0 	1e-12 	0 	0 	0 	0
0.34684685 	0 	1e-12 	0 	0 	0 	0
0.34894895 	0 	1e-12 	0 	0 	0 	0
0.35105105 	0 	1e-12 	0 	0 	0 	0
0.35315315 	0 	1e-12 	0 	0 	0 	0
0.35525526 	0 	1e-12 	0 	0 	0 	0
0.35735736 	0 	1e-12 	0 	0 	0 	0
0.35945946 	0 	1e-12 	0 	0 	0 	0
0.36156156 	0 	1e-12 	0 	0 	0 	0
0.36366366 	0 	1e-12 	0 	0 	0 	0
0.36576577 	0 	1e-12 	0 	0 	0 	0
0.36786787 	0 	1e-12 	0 	0 	0 	0
0.36996997 	0 	1e-12 	0 	0 	0 	0
0.37207207 	0 	1e-12 	0 	0 	0 	0
0.37417417 	0 	1e-12 	0 	0 	0 	0
0.37627628 	0 	1e-12 	0 	0 	0 	0
0.37837838 	0 	1e-12 	0 	0 	0 	0
0.38048048 	0 	1e-12 	0 	0 	0 	0
0.38258258 	0 	1e-12 	0 	0 	0 	0
0.38468468 	0 	1e-12 	0 	0 	0 	0
0.38678679 	0 	1e-12 	0 	0 	0 	0
0.38888889 	0 	1e-12 	0 	0 	0 	0
0.39099099 	0 	1e-12 	0 	0 	0 	0
0.39309309 	0 	1e-12 	0 	0 	0 	0
0.3951952 	0 	1e-12 	0 	0 	0 	0
0.3972973 	0 	1e-12 	0 	0 	0 	0
0.3993994 	0 	1e-12 	0 	0 	0 	0
0.4015015 	0 	1e-12 	0 	0 	0 	0
0.4036036 	0 	1e-12 	0 	0 	0 	0
0.40570571 	0 	1e-12 	0 	0 	0 	0
0.40780781 	0 	1e-12 	0 	0 	0 	0
0.40990991 	0 	1e-12 	0 	0 	0 	0
0.41201201 	0 	1e-12 	0 	0 	0 	0
0.41411411 	0 	1e-12 	0 	0 	0 	0
0.41621622 	0 	1e-12 	0 	0 	0 	0
0.41831832 	0 	1e-12 	0 	0 	0 	0
0.42042042 	0 	1e-12 	0 	0 	0 	0
0.42252252 	0 	1e-12 	0 	0 	0 	0
0.42462462 	0 	1e-12 	0 	0 	0 	0
0.42672673 	0 	1e-12 	0 	0 	0 	0
0.42882883 	0 	1e-12 	0 	0 	0 	0
0.43093093 	0 	1e-12 	0 	0 	0 	0
0.43303303 	0 	1e-12 	0 	0 	0 	0
0.43513514 	0 	1e-12 	0 	0 	0 	0
0.43723724 	0 	1e-12 	0 	0 	0 	0
0.43933934 	0 	1e-12 	0 	0 	0 	0
0.44144144 	0 	1e-12 	0 	0 	0 	0
0.44354354 	0 	1e-12 	0 	0 	0 	0
0.44564565 	0 	1e-12 	0 	0 	0 	0
0.44774775 	0 	1e-12 	0 	0 	0 	0
0.44984985 	0 	1e-12 	0 	0 	0 	0
0.45195195 	0 	1e-12 	0 	0 	0 	0
0.45405405 	0 	1e-12 	0 	0 	0 	0
0.45615616 	0 	1e-12 	0 	0 	0 	0
0.45825826 	0 	1e-12 	0 	0 	0 	0
0.46036036 	0 	1e-12 	0 	0 	0 	0
0.46246246 	0 	1e-12 	0 	0 	0 	0
0.46456456 	0 	1e-12 	0 	0 	0 	0
0.46666667 	0 	1e-12 	0 	0 	0 	0
0.46876877 	0 	1e-12 	0 	0 	0 	0
0.47087087 	0 	1e-12 	0 	0 	0 	0
0.47297297 	0 	1e-12 	0 	0 	0 	0
0.47507508 	0 	1e-12 	0 	0 	0 	0
0.47717718 	0 	1e-12 	0 	0 	0 	0
0.47927928 	0 	1e-12 	0 	0 	0 	0
0.48138138 	0 	1e-12 	0 	0 	0 	0
0.48348348 	0 	1e-12 	0 	0 	0 	0
0.48558559 	0 	1e-12 	0 	0 	0 	0
0.48768769 	0 	1e-12 	0 	0 	0 	0
0.48978979 	0 	1e-12 	0 	0 	0 	0
0.49189189 	0 	1e-12 	0 	0 	0 	0
0.49399399 	0 	1e-12 	0 	0 	0 	0
0.4960961 	0 	1e-12 	0 	0 	0 	0
0.4981982 	0 	1e-12 	0 	0 	0 	0
0.5003003 	0 	1e-12 	0 	0 	0 	0
0.5024024 	0 	1e-12 	0 	0 	0 	0
0.5045045 	0 	1e-12 	0 	0 	0 	0
0.50660661 	0 	1e-12 	0 	0 	0 	0
0.50870871 	0 	1e-12 	0 	0 	0 	0
0.51081081 	0 	1e-12 	0 	0 	0 	0
0.51291291 	0 	1e-12 	0 	0 	0 	0
0.51501502 	0 	1e-12 	0 	0 	0 	0
0.51711712 	0 	1e-12 	0 	0 	0 	0
0.51921922 	0 	1e-12 	0 	0 	0 	0
0.52132132 	0 	1e-12 	0 	0 	0 	0
0.52342342 	0 	1e-12 	0 	0 	0 	0
0.52552553 	0 	1e-12 	0 	0 	0 	0
0.52762763 	0 	1e-12 	0 	0 	0 	0
0.52972973 	0 	1e-12 	0 	0 	0 	0
0.53183183 	0 	1e-12 	0 	0 	0 	0
0.53393393 	0 	1e-12 	0 	0 	0 	0
0.53603604 	0 	1e-12 	0 	0 	0 	0
0.53813814 	0 	1e-12 	0 	0 	0 	0
0.54024024 	0 	1e-12 	0 	0 	0 	0
0.54234234 	0 	1e-12 	0 	0 	0 	0
0.54444444 	0 	1e-12 	0 	0 	0 	0
0.54654655 	0 	1e-12 	0 	0 	0 	0
0.54864865 	0 	1e-12 	0 	0 	0 	0
0.55075075 	0 	1e-12 	0 	0 	0 	0
0.55285285 	0 	1e-12 	0 	0 	0 	0
0.55495495 	0 	1e-12 	0 	0 	0 	0
0.55705706 	0 	1e-12 	0 	0 	0 	0
0.55915916 	0 	1e-12 	0 	0 	0 	0
0.56126126 	0 	1e-12 	0 	0 	0 	0
0.56336336 	0 	1e-12 	0 	0 	0 	0
0.56546547 	0 	1e-12 	0 	0 	0 	0
0.56756757 	0 	1e-12 	0 	0 	0 	0
0.56966967 	0 	1e-12 	0 	0 	0 	0
0.57177177 	0 	1e-12 	0 	0 	0 	0
0.57387387 	0 	1e-12 	0 	0 	0 	0
0.57597598 	0 	1e-12 	0 	0 	0 	0
0.57807808 	0 	1e-12 	0 	0 	0 	0
0.58018018 	0 	1e-12 	0 	0 	0 	0
0.58228228 	0 	1e-12 	0 	0 	0 	0
0.58438438 	0 	1e-12 	0 	0 	0 	0
0.58648649 	0 	1e-12 	0 	0 	0 	0
0.58858859 	0 	1e-12 	0 	0 	0 	0
0.59069069 	0 	1e-12 	0 	0 	0 	0
0.59279279 	0 	1e-12 	0 	0 	0 	0
0.59489489 	0 	1e-12 	0 	0 	0 	0
0.596997 	0 	1e-12 	0 	0 	0 	0
0.5990991 	0 	1e-12 	0 	0 	0 	0
0.6012012 	0 	1e-12 	0 	0 	0 	0
0.6033033 	0 	1e-12 	0 	0 	0 	0
0.60540541 	0 	1e-12 	0 	0 	0 	0
0.60750751 	0 	1e-12 	0 	0 	0 	0
0.60960961 	0 	1e-12 	0 	0 	0 	0
0.61171171 	0 	1e-12 	0 	0 	0 	0
0.61381381 	0 	1e-12 	0 	0 	0 	0
0.61591592 	0 	1e-12 	0 	0 	0 	0
0.61801802 	0 	1e-12 	0 	0 	0 	0
0.62012012 	0 	1e-12 	0 	0 	0 	0
0.62222222 	0 	1e-12 	0 	0 	0 	0
0.62432432 	0 	1e-12 	0 	0 	0 	0
0.62642643 	0 	1e-12 	0 	0 	0 	0
0.62852853 	0 	1e-12 	0 	0 	0 	0
0.63063063 	0 	1e-12 	0 	0 	0 	0
0.63273273 	0 	1e-12 	0 	0 	0 	0
0.63483483 	0 	1e-12 	0 	0 	0 	0
0.63693694 	0 	1e-12 	0 	0 	0 	0
0.63903904 	0 	1e-12 	0 	0 	0 	0
0.64114114 	0 	1e-12 	0 	0 	0 	0
0.64324324 	0 	1e-12 	0 	0 	0 	0
0.64534535 	0 	1e-12 	0 	0 	0 	0
0.64744745 	0 	1e-12 	0 	0 	0 	0
0.64954955 	0 	1e-12 	0 	0 	0 	0
0.65165165 	0 	1e-12 	0 	0 	0 	0
0.65375375 	0 	1e-12 	0 	0 	0 	0
0.65585586 	0 	1e-12 	0 	0 	0 	0
0.65795796 	0 	1e-12 	0 	0 	0 	0
0.66006006 	0 	1e-12 	0 	0 	0 	0
0.66216216 	0 	1e-12 	0 	0 	0 	0
0.66426426 	0 	1e-12 	0 	0 	0 	0
0.66636637 	0 	1e-12 	0 	0 	0 	0
0.66846847 	0 	1e-12 	0 	0 	0 	0
0.67057057 	0 	1e-12 	0 	0 	0 	0
0.67267267 	0 	1e-12 	0 	0 	0 	0
0.67477477 	0 	1e-12 	0 	0 	0 	0
0.67687688 	0 	1e-12 	0 	0 	0 	0
0.67897898 	0 	1e-12 	0 	0 	0 	0
0.68108108 	0 	1e-12 	0 	0 	0 	0
0.68318318 	0 	1e-12 	0 	0 	0 	0
0.68528529 	0 	1e-12 	0 	0 	0 	0
0.68738739 	0 	1e-12 	0 	0 	0 	0
0.68948949 	0 	1e-12 	0 	0 	0 	0
0.69159159 	0 	1e-12 	0 	0 	0 	0
0.69369369 	0 	1e-12 	0 	0 	0 	0
0.6957958 	0 	1e-12 	0 	0 	0 	0
0.6978979 	0 	1e-12 	0 	0 	0 	0
0.7 	0 	1e-12 	0 	0 	0 	0
0.7021021 	0 	1e-12 	0 	0 	0 	0
0.7042042 	0 	1e-12 	0 	0 	0 	0
0.70630631 	0 	1e-12 	0 	0 	0 	0
0.70840841 	0 	1e-12 	0 	0 	0 	0
0.71051051 	0 	1e-12 	0 	0 	0 	0
0.71261261 	0 	1e-12 	0 	0 	0 	0
0.71471471 	0 	1e-12 	0 	0 	0 	0
0.71681682 	0 	1e-12 	0 	0 	0 	0
0.71891892 	0 	1e-12 	0 	0 	0 	0
0.72102102 	0 	1e-12 	0 	0 	0 	0
0.72312312 	0 	1e-12 	0 	0 	0 	0
0.72522523 	0 	1e-12 	0 	0 	0 	0
0.72732733 	0 	1e-12 	0 	0 	0 	0
0.72942943 	0 	1e-12 	0 	0 	0 	0
0.73153153 	0 	1e-12 	0 	0 	0 	0
0.73363363 	0 	1e-12 	0 	0 	0 	0
0.73573574 	0 	1e-12 	0 	0 	0 	0
0.73783784 	0 	1e-12 	0 	0 	0 	0
0.73993994 	0 	1e-12 	0 	0 	0 	0
0.74204204 	0 	1e-12 	0 	0 	0 	0
0.74414414 	0 	1e-12 	0 	0 	0 	0
0.74624625 	0 	1e-12 	0 	0 	0 	0
0.74834835 	0 	1e-12 	0 	0 	0 	0
0.75045045 	0 	1e-12 	0 	0 	0 	0
0.75255255 	0 	1e-12 	0 	0 	0 	0
0.75465465 	0 	1e-12 	0 	0 	0 	0
0.75675676 	0 	1e-12 	0 	0 	0 	0
0.75885886 	0 	1e-12 	0 	0 	0 	0
0.76096096 	0 	1e-12 	0 	0 	0 	0
0.76306306 	0 	1e-12 	0 	0 	0 	0
0.76516517 	0 	1e-12 	0 	0 	0 	0
0.76726727 	0 	1e-12 	0 	0 	0 	0
0.76936937 	0 	1e-12 	0 	0 	0 	0
0.77147147 	0 	1e-12 	0 	0 	0 	0
0.77357357 	0 	1e-12 	0 	0 	0 	0
0.77567568 	0 	1e-12 	0 	0 	0 	0
0.77777778 	0 	1e-12 	0 	0 	0 	0
0.77987988 	0 	1e-12 	0 	0 	0 	0
0.78198198 	0 	1e-12 	0 	0 	0 	0
0.78408408 	0 	1e-12 	0 	0 	0 	0
0.78618619 	0 	1e-12 	0 	0 	0 	0
0.78828829 	0 	1e-12 	0 	0 	0 	0
0.79039039 	0 	1e-12 	0 	0 	0 	0
0.79249249 	0 	1e-12 	0 	0 	0 	0
0.79459459 	0 	1e-12 	0 	0 	0 	0
0.7966967 	0 	1e-12 	0 	0 	0 	0
0.7987988 	0 	1e-12 	0 	0 	0 	0
0.8009009 	0 	1e-12 	0 	0 	0 	0
0.803003 	0 	1e-12 	0 	0 	0 	0
0.80510511 	0 	1e-12 	0 	0 	0 	0
0.80720721 	0 	1e-12 	0 	0 	0 	0
0.80930931 	0 	1e-12 	0 	0 	0 	0
0.81141141 	0 	1e-12 	0 	0 	0 	0
0.81351351 	0 	1e-12 	0 	0 	0 	0
0.81561562 	0 	1e-12 	0 	0 	0 	0
0.81771772 	0 	1e-12 	0 	0 	0 	0
0.81981982 	0 	1e-12 	0 	0 	0 	0
0.82192192 	0 	1e-12 	0 	0 	0 	0
0.82402402 	0 	1e-12 	0 	0 	0 	0
0.82612613 	0 	1e-12 	0 	0 	0 	0
0.82822823 	0 	1e-12 	0 	0 	0 	0
0.83033033 	0 	1e-12 	0 	0 	0 	0
0.83243243 	0 	1e-12 	0 	0 	0 	0
0.83453453 	0 	1e-12 	0 	0 	0 	0
0.83663664 	0 	1e-12 	0 	0 	0 	0
0.83873874 	0 	1e-12 	0 	0 	0 	0
0.84084084 	0 	1e-12 	0 	0 	0 	0
0.84294294 	0 	1e-12 	0 	0 	0 	0
0.84504505 	0 	1e-12 	0 	0 	0 	0
0.84714715 	0 	1e-12 	0 	0 	0 	0
0.84924925 	0 	1e-12 	0 	0 	0 	0
0.85135135 	0 	1e-12 	0 	0 	0 	0
0.85345345 	0 	1e-12 	0 	0 	0 	0
0.85555556 	0 	1e-12 	0 	0 	0 	0
0.85765766 	0 	1e-12 	0 	0 	0 	0
0.85975976 	0 	1e-12 	0 	0 	0 	0
0.86186186 	0 	1e-12 	0 	0 	0 	0
0.86396396 	0 	1e-12 	0 	0 	0 	0
0.86606607 	0 	1e-12 	0 	0 	0 	0
0.86816817 	0 	1e-12 	0 	0 	0 	0
0.87027027 	0 	1e-12 	0 	0 	0 	0
0.87237237 	0 	1e-12 	0 	0 	0 	0
0.87447447 	0 	1e-12 	0 	0 	0 	0
0.87657658 	0 	1e-12 	0 	0 	0 	0
0.87867868 	0 	1e-12 	0 	0 	0 	0
0.88078078 	0 	1e-12 	0 	0 	0 	0
0.88288288 	0 	1e-12 	0 	0 	0 	0
0.88498498 	0 	1e-12 	0 	0 	0 	0
0.88708709 	0 	1e-12 	0 	0 	0 	0
0.88918919 	0 	1e-12 	0 	0 	0 	0
0.89129129 	0 	1e-12 	0 	0 	0 	0
0.89339339 	0 	1e-12 	0 	0 	0 	0
0.8954955 	0 	1e-12 	0 	0 	0 	0
0.8975976 	0 	1e-12 	0 	0 	0 	0
0.8996997 	0 	1e-12 	0 	0 	0 	0
0.9018018 	0 	1e-12 	0 	0 	0 	0
0.9039039 	0 	1e-12 	0 	0 	0 	0
0.90600601 	0 	1e-12 	0 	0 	0 	0
0.90810811 	0 	1e-12 	0 	0 	0 	0
0.91021021 	0 	1e-12 	0 	0 	0 	0
0.91231231 	0 	1e-12 	0 	0 	0 	0
0.91441441 	0 	1e-12 	0 	0 	0 	0
0.91651652 	0 	1e-12 	0 	0 	0 	0
0.91861862 	0 	1e-12 	0 	0 	0 	0
0.92072072 	0 	1e-12 	0 	0 	0 	0
0.92282282 	0 	1e-12 	0 	0 	0 	0
0.92492492 	0 	1e-12 	0 	0 	0 	0
0.92702703 	0 	1e-12 	0 	0 	0 	0
0.92912913 	0 	1e-12 	0 	0 	0 	0
0.93123123 	0 	1e-12 	0 	0 	0 	0
0.93333333 	0 	1e-12 	0 	0 	0 	0
0.93543544 	0 	1e-12 	0 	0 	0 	0
0.93753754 	0 	1e-12 	0 	0 	0 	0
0.93963964 	0 	1e-12 	0 	0 	0 	0
0.94174174 	0 	1e-12 	0 	0 	0 	0
0.94384384 	0 	1e-12 	0 	0 	0 	0
0.94594595 	0 	1e-12 	0 	0 	0 	0
0.94804805 	0 	1e-12 	0 	0 	0 	0
0.95015015 	0 	1e-12 	0 	0 	0 	0
0.95225225 	0 	1e-12 	0 	0 	0 	0
0.95435435 	0 	1e-12 	0 	0 	0 	0
0.95645646 	0 	1e-12 	0 	0 	0 	0
0.95855856 	0 	1e-12 	0 	0 	0 	0
0.96066066 	0 	1e-12 	0 	0 	0 	0
0.96276276 	0 	1e-12 	0 	0 	0 	0
0.96486486 	0 	1e-12 	0 	0 	0 	0
0.96696697 	0 	1e-12 	0 	0 	0 	0
0.96906907 	0 	1e-12 	0 	0 	0 	0
0.97117117 	0 	1e-12 	0 	0 	0 	0
0.97327327 	0 	1e-12 	0 	0 	0 	0
0.97537538 	0 	1e-12 	0 	0 	0 	0
0.97747748 	0 	1e-12 	0 	0 	0 	0
0.97957958 	0 	1e-12 	0 	0 	0 	0
0.98168168 	0 	1e-12 	0 	0 	0 	0
0.98378378 	0 	1e-12 	0 	0 	0 	0
0.98588589 	0 	1e-12 	0 	0 	0 	0
0.98798799 	0 	1e-12 	0 	0 	0 	0
0.99009009 	0 	1e-12 	0 	0 	0 	0
0.99219219 	0 	1e-12 	0 	0 	0 	0
0.99429429 	0 	1e-12 	0 	0 	0 	0
0.9963964 	0 	1e-12 	0 	0 	0 	0
0.9984985 	0 	1e-12 	0 	0 	0 	0
1.0006006 	0 	1e-12 	0 	0 	0 	0
1.0027027 	0 	1e-12 	0 	0 	0 	0
1.0048048 	0 	1e-12 	0 	0 	0 	0
1.0069069 	0 	1e-12 	0 	0 	0 	0
1.009009 	0 	1e-12 	0 	0 	0 	0
1.0111111 	0 	1e-12 	0 	0 	0 	0
1.0132132 	0 	1e-12 	0 	0 	0 	0
1.0153153 	0 	1e-12 	0 	0 	0 	0
1.0174174 	0 	1e-12 	0 	0 	0 	0
1.0195195 	0 	1e-12 	0 	0 	0 	0
1.0216216 	0 	1e-12 	0 	0 	0 	0
1.0237237 	0 	1e-12 	0 	0 	0 	0
1.0258258 	0 	1e-12 	0 	0 	0 	0
1.0279279 	0 	1e-12 	0 	0 	0 	0
1.03003 	0 	1e-12 	0 	0 	0 	0
1.0321321 	0 	1e-12 	0 	0 	0 	0
1.0342342 	0 	1e-12 	0 	0 	0 	0
1.0363363 	0 	1e-12 	0 	0 	0 	0
1.0384384 	0 	1e-12 	0 	0 	0 	0
1.0405405 	0 	1e-12 	0 	0 	0 	0
1.0426426 	0 	1e-12 	0 	0 	0 	0
1.0447447 	0 	1e-12 	0 	0 	0 	0
1.0468468 	0 	1e-12 	0 	0 	0 	0
1.0489489 	0 	1e-12 	0 	0 	0 	0
1.0510511 	0 	1e-12 	0 	0 	0 	0
1.0531532 	0 	1e-12 	0 	0 	0 	0
1.0552553 	0 	1e-12 	0 	0 	0 	0
1.0573574 	0 	1e-12 	0 	0 	0 	0
1.0594595 	0 	1e-12 	0 	0 	0 	0
1.0615616 	0 	1e-12 	0 	0 	0 	0
1.0636637 	0 	1e-12 	0 	0 	0 	0
1.0657658 	0 	1e-12 	0 	0 	0 	0
1.0678679 	0 	1e-12 	0 	0 	0 	0
1.06997 	0 	1e-12 	0 	0 	0 	0
1.0720721 	0 	1e-12 	0 	0 	0 	0
1.0741742 	0 	1e-12 	0 	0 	0 	0
1.0762763 	0 	1e-12 	0 	0 	0 	0
1.0783784 	0 	1e-12 	0 	0 	0 	0
1.0804805 	0 	1e-12 	0 	0 	0 	0
1.0825826 	0 	1e-12 	0 	0 	0 	0
1.0846847 	0 	1e-12 	0 	0 	0 	0
1.0867868 	0 	1e-12 	0 	0 	0 	0
1.0888889 	0 	1e-12 	0 	0 	0 	0
1.090991 	0 	1e-12 	0 	0 	0 	0
1.0930931 	0 	1e-12 	0 	0 	0 	0
1.0951952 	0 	1e-12 	0 	0 	0 	0
1.0972973 	0 	1e-12 	0 	0 	0 	0
1.0993994 	0 	1e-12 	0 	0 	0 	0
1.1015015 	0 	1e-12 	0 	0 	0 	0
1.1036036 	0 	1e-12 	0 	0 	0 	0
1.1057057 	0 	1e-12 	0 	0 	0 	0
1.1078078 	0 	1e-12 	0 	0 	0 	0
1.1099099 	0 	1e-12 	0 	0 	0 	0
1.112012 	0 	1e-12 	0 	0 	0 	0
1.1141141 	0 	1e-12 	0 	0 	0 	0
1.1162162 	0 	1e-12 	0 	0 	0 	0
1.1183183 	0 	1e-12 	0 	0 	0 	0
1.1204204 	0 	1e-12 	0 	0 	0 	0
1.1225225 	0 	1e-12 	0 	0 	0 	0
1.1246246 	0 	1e-12 	0 	0 	0 	0
1.1267267 	0 	1e-12 	0 	0 	0 	0
1.1288288 	0 	1e-12 	0 	0 	0 	0
1.1309309 	0 	1e-12 	0 	0 	0 	0
1.133033 	0 	1e-12 	0 	0 	0 	0
1.1351351 	0 	1e-12 	0 	0 	0 	0
1.1372372 	0 	1e-12 	0 	0 	0 	0
1.1393393 	0 	1e-12 	0 	0 	0 	0
1.1414414 	0 	1e-12 	0 	0 	0 	0
1.1435435 	0 	1e-12 	0 	0 	0 	0
1.1456456 	0 	1e-12 	0 	0 	0 	0
1.1477477 	0 	1e-12 	0 	0 	0 	0
1.1498498 	0 	1e-12 	0 	0 	0 	0
1.151952 	0 	1e-12 	0 	0 	0 	0
1.1540541 	0 	1e-12 	0 	0 	0 	0
1.1561562 	0 	1e-12 	0 	0 	0 	0
1.1582583 	0 	1e-12 	0 	0 	0 	0
1.1603604 	0 	1e-12 	0 	0 	0 	0
1.1624625 	0 	1e-12 	0 	0 	0 	0
1.1645646 	0 	1e-12 	0 	0 	0 	0
1.1666667 	0 	1e-12 	0 	0 	0 	0
1.1687688 	0 	1e-12 	0 	0 	0 	0
1.1708709 	0 	1e-12 	0 	0 	0 	0
1.172973 	0 	1e-12 	0 	0 	0 	0
1.1750751 	0 	1e-12 	0 	0 	0 	0
1.1771772 	0 	1e-12 	0 	0 	0 	0
1.1792793 	0 	1e-12 	0 	0 	0 	0
1.1813814 	0 	1e-12 	0 	0 	0 	0
1.1834835 	0 	1e-12 	0 	0 	0 	0
1.1855856 	0 	1e-12 	0 	0 	0 	0
1.1876877 	0 	1e-12 	0 	0 	0 	0
1.1897898 	0 	1e-12 	0 	0 	0 	0
1.1918919 	0 	1e-12 	0 	0 	0 	0
1.193994 	0 	1e-12 	0 	0 	0 	0
1.1960961 	0 	1e-12 	0 	0 	0 	0
1.1981982 	0 	1e-12 	0 	0 	0 	0
1.2003003 	0 	1e-12 	0 	0 	0 	0
1.2024024 	0 	1e-12 	0 	0 	0 	0
1.2045045 	0 	1e-12 	0 	0 	0 	0
1.2066066 	0 	1e-12 	0 	0 	0 	0
1.2087087 	0 	1e-12 	0 	0 	0 	0
1.2108108 	0 	1e-12 	0 	0 	0 	0
1.2129129 	0 	1e-12 	0 	0 	0 	0
1.215015 	0 	1e-12 	0 	0 	0 	0
1.2171171 	0 	1e-12 	0 	0 	0 	0
1.2192192 	0 	1e-12 	0 	0 	0 	0
1.2213213 	0 	1e-12 	0 	0 	0 	0
1.2234234 	0 	1e-12 	0 	0 	0 	0
1.2255255 	0 	1e-12 	0 	0 	0 	0
1.2276276 	0 	1e-12 	0 	0 	0 	0
1.2297297 	0 	1e-12 	0 	0 	0 	0
1.2318318 	0 	1e-12 	0 	0 	0 	0
1.2339339 	0 	1e-12 	0 	0 	0 	0
1.236036 	0 	1e-12 	0 	0 	0 	0
1.2381381 	0 	1e-12 	0 	0 	0 	0
1.2402402 	0 	1e-12 	0 	0 	0 	0
1.2423423 	0 	1e-12 	0 	0 	0 	0
1.2444444 	0 	1e-12 	0 	0 	0 	0
1.2465465 	0 	1e-12 	0 	0 	0 	0
1.2486486 	0 	1e-12 	0 	0 	0 	0
1.2507508 	0 	1e-12 	0 	0 	0 	0
1.2528529 	0 	1e-12 	0 	0 	0 	0
1.254955 	0 	1e-12 	0 	0 	0 	0
1.2570571 	0 	1e-12 	0 	0 	0 	0
1.2591592 	0 	1e-12 	0 	0 	0 	0
1.2612613 	0 	1e-12 	0 	0 	0 	0
1.2633634 	0 	1e-12 	0 	0 	0 	0
1.2654655 	0 	1e-12 	0 	0 	0 	0
1.2675676 	0 	1e-12 	0 	0 	0 	0
1.2696697 	0 	1e-12 	0 	0 	0 	0
1.2717718 	0 	1e-12 	0 	0 	0 	0
1.2738739 	0 	1e-12 	0 	0 	0 	0
1.275976 	0 	1e-12 	0 	0 	0 	0
1.2780781 	0 	1e-12 	0 	0 	0 	0
1.2801802 	0 	1e-12 	0 	0 	0 	0
1.2822823 	0 	1e-12 	0 	0 	0 	0
1.2843844 	0 	1e-12 	0 	0 	0 	0
1.2864865 	0 	1e-12 	0 	0 	0 	0
1.2885886 	0 	1e-12 	0 	0 	0 	0
1.2906907 	0 	1e-12 	0 	0 	0 	0
1.2927928 	0 	1e-12 	0 	0 	0 	0
1.2948949 	0 	1e-12 	0 	0 	0 	0
1.296997 	0 	1e-12 	0 	0 	0 	0
1.2990991 	0 	1e-12 	0 	0 	0 	0
1.3012012 	0 	1e-12 	0 	0 	0 	0
1.3033033 	0 	1e-12 	0 	0 	0 	0
1.3054054 	0 	1e-12 	0 	0 	0 	0
1.3075075 	0 	1e-12 	0 	0 	0 	0
1.3096096 	0 	1e-12 	0 	0 	0 	0
1.3117117 	0 	1e-12 	0 	0 	0 	0
1.3138138 	0 	1e-12 	0 	0 	0 	0
1.3159159 	0 	1e-12 	0 	0 	0 	0
1.318018 	0 	1e-12 	0 	0 	0 	0
1.3201201 	0 	1e-12 	0 	0 	0 	0
1.3222222 	0 	1e-12 	0 	0 	0 	0
1.3243243 	0 	1e-12 	0 	0 	0 	0
1.3264264 	0 	1e-12 	0 	0 	0 	0
1.3285285 	0 	1e-12 	0 	0 	0 	0
1.3306306 	0 	1e-12 	0 	0 	0 	0
1.3327327 	0 	1e-12 	0 	0 	0 	0
1.3348348 	0 	1e-12 	0 	0 	0 	0
1.3369369 	0 	1e-12 	0 	0 	0 	0
1.339039 	0 	1e-12 	0 	0 	0 	0
1.3411411 	0 	1e-12 	0 	0 	0 	0
1.3432432 	0 	1e-12 	0 	0 	0 	0
1.3453453 	0 	1e-12 	0 	0 	0 	0
1.3474474 	0 	1e-12 	0 	0 	0 	0
1.3495495 	0 	1e-12 	0 	0 	0 	0
1.3516517 	0 	1e-12 	0 	0 	0 	0
1.3537538 	0 	1e-12 	0 	0 	0 	0
1.3558559 	0 	1e-12 	0 	0 	0 	0
1.357958 	0 	1e-12 	0 	0 	0 	0
1.3600601 	0 	1e-12 	0 	0 	0 	0
1.3621622 	0 	1e-12 	0 	0 	0 	0
1.3642643 	0 	1e-12 	0 	0 	0 	0
1.3663664 	0 	1e-12 	0 	0 	0 	0
1.3684685 	0 	1e-12 	0 	0 	0 	0
1.3705706 	0 	1e-12 	0 	0 	0 	0
1.3726727 	0 	1e-12 	0 	0 	0 	0
1.3747748 	0 	1e-12 	0 	0 	0 	0
1.3768769 	0 	1e-12 	0 	0 	0 	0
1.378979 	0 	1e-12 	0 	0 	0 	0
1.3810811 	0 	1e-12 	0 	0 	0 	0
1.3831832 	0 	1e-12 	0 	0 	0 	0
1.3852853 	0 	1e-12 	0 	0 	0 	0
1.3873874 	0 	1e-12 	0 	0 	0 	0
1.3894895 	0 	1e-12 	0 	0 	0 	0
1.3915916 	0 	1e-12 	0 	0 	0 	0
1.3936937 	0 	1e-12 	0 	0 	0 	0
1.3957958 	0 	1e-12 	0 	0 	0 	0
1.3978979 	0 	1e-12 	0 	0 	0 	0
1.4 	0 	1e-12 	0 	0 	0 	0
1.4021021 	0 	1e-12 	0 	0 	0 	0
1.4042042 	0 	1e-12 	0 	0 	0 	0
1.4063063 	0 	1e-12 	0 	0 	0 	0
1.4084084 	0 	1e-12 	0 	0 	0 	0
1.4105105 	0 	1e-12 	0 	0 	0 	0
1.4126126 	0 	1e-12 	0 	0 	0 	0
1.4147147 	0 	1e-12 	0 	0 	0 	0
1.4168168 	0 	1e-12 	0 	0 	0 	0
1.4189189 	0 	1e-12 	0 	0 	0 	0
1.421021 	0 	1e-12 	0 	0 	0 	0
1.4231231 	0 	1e-12 	0 	0 	0 	0
1.4252252 	0 	1e-12 	0 	0 	0 	0
1.4273273 	0 	1e-12 	0 	0 	0 	0
1.4294294 	0 	1e-12 	0 	0 	0 	0
1.4315315 	0 	1e-12 	0 	0 	0 	0
1.4336336 	0 	1e-12 	0 	0 	0 	0
1.4357357 	0 	1e-12 	0 	0 	0 	0
1.4378378 	0 	1e-12 	0 	0 	0 	0
1.4399399 	0 	1e-12 	0 	0 	0 	0
1.442042 	0 	1e-12 	0 	0 	0 	0
1.4441441 	0 	1e-12 	0 	0 	0 	0
1.4462462 	0 	1e-12 	0 	0 	0 	0
1.4483483 	0 	1e-12 	0 	0 	0 	0
1.4504505 	0 	1e-12 	0 	0 	0 	0
1.4525526 	0 	1e-12 	0 	0 	0 	0
1.4546547 	0 	1e-12 	0 	0 	0 	0
1.4567568 	0 	1e-12 	0 	0 	0 	0
1.4588589 	0 	1e-12 	0 	0 	0 	0
1.460961 	0 	1e-12 	0 	0 	0 	0
1.4630631 	0 	1e-12 	0 	0 	0 	0
1.4651652 	0 	1e-12 	0 	0 	0 	0
1.4672673 	0 	1e-12 	0 	0 	0 	0
1.4693694 	0 	1e-12 	0 	0 	0 	0
1.4714715 	0 	1e-12 	0 	0 	0 	0
1.4735736 	0 	1e-12 	0 	0 	0 	0
1.4756757 	0 	1e-12 	0 	0 	0 	0
1.4777778 	0 	1e-12 	0 	0 	0 	0
1.4798799 	0 	1e-12 	0 	0 	0 	0
1.481982 	0 	1e-12 	0 	0 	0 	0
1.4840841 	0 	1e-12 	0 	0 	0 	0
1.4861862 	0 	1e-12 	0 	0 	0 	0
1.4882883 	0 	1e-12 	0 	0 	0 	0
1.4903904 	0 	1e-12 	0 	0 	0 	0
1.4924925 	0 	1e-12 	0 	0 	0 	0
1.4945946 	0 	1e-12 	0 	0 	0 	0
1.4966967 	0 	1e-12 	0 	0 	0 	0
1.4987988 	0 	1e-12 	0 	0 	0 	0
1.5009009 	0 	1e-12 	0 	0 	0 	0
1.503003 	0 	1e-12 	0 	0 	0 	0
1.5051051 	0 	1e-12 	0 	0 	0 	0
1.5072072 	0 	1e-12 	0 	0 	0 	0
1.5093093 	0 	1e-12 	0 	0 	0 	0
1.5114114 	0 	1e-12 	0 	0 	0 	0
1.5135135 	0 	1e-12 	0 	0 	0 	0
1.5156156 	0 	1e-12 	0 	0 	0 	0
1.5177177 	0 	1e-12 	0 	0 	0 	0
1.5198198 	0 	1e-12 	0 	0 	0 	0
1.5219219 	0 	1e-12 	0 	0 	0 	0
1.524024 	0 	1e-12 	0 	0 	0 	0
1.5261261 	0 	1e-12 	0 	0 	0 	0
1.5282282 	0 	1e-12 	0 	0 	0 	0
1.5303303 	0 	1e-12 	0 	0 	0 	0
1.5324324 	0 	1e-12 	0 	0 	0 	0
1.5345345 	0 	1e-12 	0 	0 	0 	0
1.5366366 	0 	1e-12 	0 	0 	0 	0
1.5387387 	0 	1e-12 	0 	0 	0 	0
1.5408408 	0 	1e-12 	0 	0 	0 	0
1.5429429 	0 	1e-12 	0 	0 	0 	0
1.545045 	0 	1e-12 	0 	0 	0 	0
1.5471471 	0 	1e-12 	0 	0 	0 	0
1.5492492 	0 	1e-12 	0 	0 	0 	0
1.5513514 	0 	1e-12 	0 	0 	0 	0
1.5534535 	0 	1e-12 	0 	0 	0 	0
1.5555556 	0 	1e-12 	0 	0 	0 	0
1.5576577 	0 	1e-12 	0 	0 	0 	0
1.5597598 	0 	1e-12 	0 	0 	0 	0
1.5618619 	0 	1e-12 	0 	0 	0 	0
1.563964 	0 	1e-12 	0 	0 	0 	0
1.5660661 	0 	1e-12 	0 	0 	0 	0
1.5681682 	0 	1e-12 	0 	0 	0 	0
1.5702703 	0 	1e-12 	0 	0 	0 	0
1.5723724 	0 	1e-12 	0 	0 	0 	0
1.5744745 	0 	1e-12 	0 	0 	0 	0
1.5765766 	0 	1e-12 	0 	0 	0 	0
1.5786787 	0 	1e-12 	0 	0 	0 	0
1.5807808 	0 	1e-12 	0 	0 	0 	0
1.5828829 	0 	1e-12 	0 	0 	0 	0
1.584985 	0 	1e-12 	0 	0 	0 	0
1.5870871 	0 	1e-12 	0 	0 	0 	0
1.5891892 	0 	1e-12 	0 	0 	0 	0
1.5912913 	0 	1e-12 	0 	0 	0 	0
1.5933934 	0 	1e-12 	0 	0 	0 	0
1.5954955 	0 	1e-12 	0 	0 	0 	0
1.5975976 	0 	1e-12 	0 	0 	0 	0
1.5996997 	0 	1e-12 	0 	0 	0 	0
1.6018018 	0 	1e-12 	0 	0 	0 	0
1.6039039 	0 	1e-12 	0 	0 	0 	0
1.606006 	0 	1e-12 	0 	0 	0 	0
1.6081081 	0 	1e-12 	0 	0 	0 	0
1.6102102 	0 	1e-12 	0 	0 	0 	0
1.6123123 	0 	1e-12 	0 	0 	0 	0
1.6144144 	0 	1e-12 	0 	0 	0 	0
1.6165165 	0 	1e-12 	0 	0 	0 	0
1.6186186 	0 	1e-12 	0 	0 	0 	0
1.6207207 	0 	1e-12 	0 	0 	0 	0
1.6228228 	0 	1e-12 	0 	0 	0 	0
1.6249249 	0 	1e-12 	0 	0 	0 	0
1.627027 	0 	1e-12 	0 	0 	0 	0
1.6291291 	0 	1e-12 	0 	0 	0 	0
1.6312312 	0 	1e-12 	0 	0 	0 	0
1.6333333 	0 	1e-12 	0 	0 	0 	0
1.6354354 	0 	1e-12 	0 	0 	0 	0
1.6375375 	0 	1e-12 	0 	0 	0 	0
1.6396396 	0 	1e-12 	0 	0 	0 	0
1.6417417 	0 	1e-12 	0 	0 	0 	0
1.6438438 	0 	1e-12 	0 	0 	0 	0
1.6459459 	0 	1e-12 	0 	0 	0 	0
1.648048 	0 	1e-12 	0 	0 	0 	0
1.6501502 	0 	1e-12 	0 	0 	0 	0
1.6522523 	0 	1e-12 	0 	0 	0 	0
1.6543544 	0 	1e-12 	0 	0 	0 	0
1.6564565 	0 	1e-12 	0 	0 	0 	0
1.6585586 	0 	1e-12 	0 	0 	0 	0
1.6606607 	0 	1e-12 	0 	0 	0 	0
1.6627628 	0 	1e-12 	0 	0 	0 	0
1.6648649 	0 	1e-12 	0 	0 	0 	0
1.666967 	0 	1e-12 	0 	0 	0 	0
1.6690691 	0 	1e-12 	0 	0 	0 	0
1.6711712 	0 	1e-12 	0 	0 	0 	0
1.6732733 	0 	1e-12 	0 	0 	0 	0
1.6753754 	0 	1e-12 	0 	0 	0 	0
1.6774775 	0 	1e-12 	0 	0 	0 	0
1.6795796 	0 	1e-12 	0 	0 	0 	0
1.6816817 	0 	1e-12 	0 	0 	0 	0
1.6837838 	0 	1e-12 	0 	0 	0 	0
1.6858859 	0 	1e-12 	0 	0 	0 	0
1.687988 	0 	1e-12 	0 	0 	0 	0
1.6900901 	0 	1e-12 	0 	0 	0 	0
1.6921922 	0 	1e-12 	0 	0 	0 	0
1.6942943 	0 	1e-12 	0 	0 	0 	0
1.6963964 	0 	1e-12 	0 	0 	0 	0
1.6984985 	0 	1e-12 	0 	0 	0 	0
1.7006006 	0 	1e-12 	0 	0 	0 	0
1.7027027 	0 	1e-12 	0 	0 	0 	0
1.7048048 	0 	1e-12 	0 	0 	0 	0
1.7069069 	0 	1e-12 	0 	0 	0 	0
1.709009 	0 	1e-12 	0 	0 	0 	0
1.7111111 	0 	1e-12 	0 	0 	0 	0
1.7132132 	0 	1e-12 	0 	0 	0 	0
1.7153153 	0 	1e-12 	0 	0 	0 	0
1.7174174 	0 	1e-12 	0 	0 	0 	0
1.7195195 	0 	1e-12 	0 	0 	0 	0
1.7216216 	0 	1e-12 	0 	0 	0 	0
1.7237237 	0 	1e-12 	0 	0 	0 	0
1.7258258 	0 	1e-12 	0 	0 	0 	0
1.7279279 	0 	1e-12 	0 	0 	0 	0
1.73003 	0 	1e-12 	0 	0 	0 	0
1.7321321 	0 	1e-12 	0 	0 	0 	0
1.7342342 	0 	1e-12 	0 	0 	0 	0
1.7363363 	0 	1e-12 	0 	0 	0 	0
1.7384384 	0 	1e-12 	0 	0 	0 	0
1.7405405 	0 	1e-12 	0 	0 	0 	0
1.7426426 	0 	1e-12 	0 	0 	0 	0
1.7447447 	0 	1e-12 	0 	0 	0 	0
1.7468468 	0 	1e-12 	0 	0 	0 	0
1.7489489 	0 	1e-12 	0 	0 	0 	0
1.7510511 	0 	1e-12 	0 	0 	0 	0
1.7531532 	0 	1e-12 	0 	0 	0 	0
1.7552553 	0 	1e-12 	0 	0 	0 	0
1.7573574 	0 	1e-12 	0 	0 	0 	0
1.7594595 	0 	1e-12 	0 	0 	0 	0
1.7615616 	0 	1e-12 	0 	0 	0 	0
1.7636637 	0 	1e-12 	0 	0 	0 	0
1.7657658 	0 	1e-12 	0 	0 	0 	0
1.7678679 	0 	1e-12 	0 	0 	0 	0
1.76997 	0 	1e-12 	0 	0 	0 	0
1.7720721 	0 	1e-12 	0 	0 	0 	0
1.7741742 	0 	1e-12 	0 	0 	0 	0
1.7762763 	0 	1e-12 	0 	0 	0 	0
1.7783784 	0 	1e-12 	0 	0 	0 	0
1.7804805 	0 	1e-12 	0 	0 	0 	0
1.7825826 	0 	1e-12 	0 	0 	0 	0
1.7846847 	0 	1e-12 	0 	0 	0 	0
1.7867868 	0 	1e-12 	0 	0 	0 	0
1.7888889 	0 	1e-12 	0 	0 	0 	0
1.790991 	0 	1e-12 	0 	0 	0 	0
1.7930931 	0 	1e-12 	0 	0 	0 	0
1.7951952 	0 	1e-12 	0 	0 	0 	0
1.7972973 	0 	1e-12 	0 	0 	0 	0
1.7993994 	0 	1e-12 	0 	0 	0 	0
1.8015015 	0 	1e-12 	0 	0 	0 	0
1.8036036 	0 	1e-12 	0 	0 	0 	0
1.8057057 	0 	1e-12 	0 	0 	0 	0
1.8078078 	0 	1e-12 	0 	0 	0 	0
1.8099099 	0 	1e-12 	0 	0 	0 	0
1.812012 	0 	1e-12 	0 	0 	0 	0
1.8141141 	0 	1e-12 	0 	0 	0 	0
1.8162162 	0 	1e-12 	0 	0 	0 	0
1.8183183 	0 	1e-12 	0 	0 	0 	0
1.8204204 	0 	1e-12 	0 	0 	0 	0
1.8225225 	0 	1e-12 	0 	0 	0 	0
1.8246246 	0 	1e-12 	0 	0 	0 	0
1.8267267 	0 	1e-12 	0 	0 	0 	0
1.8288288 	0 	1e-12 	0 	0 	0 	0
1.8309309 	0 	1e-12 	0 	0 	0 	0
1.833033 	0 	1e-12 	0 	0 	0 	0
1.8351351 	0 	1e-12 	0 	0 	0 	0
1.8372372 	0 	1e-12 	0 	0 	0 	0
1.8393393 	0 	1e-12 	0 	0 	0 	0
1.8414414 	0 	1e-12 	0 	0 	0 	0
1.8435435 	0 	1e-12 	0 	0 	0 	0
1.8456456 	0 	1e-12 	0 	0 	0 	0
1.8477477 	0 	1e-12 	0 	0 	0 	0
1.8498498 	0 	1e-12 	0 	0 	0 	0
1.851952 	0 	1e-12 	0 	0 	0 	0
1.8540541 	0 	1e-12 	0 	0 	0 	0
1.8561562 	0 	1e-12 	0 	0 	0 	0
1.8582583 	0 	1e-12 	0 	0 	0 	0
1.8603604 	0 	1e-12 	0 	0 	0 	0
1.8624625 	0 	1e-12 	0 	0 	0 	0
1.8645646 	0 	1e-12 	0 	0 	0 	0
1.8666667 	0 	1e-12 	0 	0 	0 	0
1.8687688 	0 	1e-12 	0 	0 	0 	0
1.8708709 	0 	1e-12 	0 	0 	0 	0
1.872973 	0 	1e-12 	0 	0 	0 	0
1.8750751 	0 	1e-12 	0 	0 	0 	0
1.8771772 	0 	1e-12 	0 	0 	0 	0
1.8792793 	0 	1e-12 	0 	0 	0 	0
1.8813814 	0 	1e-12 	0 	0 	0 	0
1.8834835 	0 	1e-12 	0 	0 	0 	0
1.8855856 	0 	1e-12 	0 	0 	0 	0
1.8876877 	0 	1e-12 	0 	0 	0 	0
1.8897898 	0 	1e-12 	0 	0 	0 	0
1.8918919 	0 	1e-12 	0 	0 	0 	0
1.893994 	0 	1e-12 	0 	0 	0 	0
1.8960961 	0 	1e-12 	0 	0 	0 	0
1.8981982 	0 	1e-12 	0 	0 	0 	0
1.9003003 	0 	1e-12 	0 	0 	0 	0
1.9024024 	0 	1e-12 	0 	0 	0 	0
1.9045045 	0 	1e-12 	0 	0 	0 	0
1.9066066 	0 	1e-12 	0 	0 	0 	0
1.9087087 	0 	1e-12 	0 	0 	0 	0
1.9108108 	0 	1e-12 	0 	0 	0 	0
1.9129129 	0 	1e-12 	0 	0 	0 	0
1.915015 	0 	1e-12 	0 	0 	0 	0
1.9171171 	0 	1e-12 	0 	0 	0 	0
1.9192192 	0 	1e-12 	0 	0 	0 	0
1.9213213 	0 	1e-12 	0 	0 	0 	0