0 	0 	1e-12 	0 	0 	0 	0
0.0001001001 	2e-06 	2e-07 	0 	1 	0 	0
0.0002002002 	2e-06 	2e-07 	0 	1 	0 	0
0.0003003003 	2e-06 	2e-07 	0 	1 	0 	0
0.0004004004 	2e-06 	2e-07 	0 	1 	0 	0
0.0005005005 	2e-06 	2e-07 	0 	1 	0 	0
0.0006006006 	2e-06 	2e-07 	0 	1 	0 	0
0.0007007007 	2e-06 	2e-07 	0 	1 	0 	0
0.0008008008 	2e-06 	2e-07 	0 	1 	0 	0
0.0009009009 	2e-06 	2e-07 	0 	1 	0 	0
0.001001001 	2e-06 	2e-07 	0 	1 	0 	0
0.0011011011 	2e-06 	2e-07 	0 	1 	0 	0
0.0012012012 	2e-06 	2e-07 	0 	1 	0 	0
0.0013013013 	2e-06 	2e-07 	0 	1 	0 	0
0.0014014014 	2e-06 	2e-07 	0 	1 	0 	0
0.0015015015 	2e-06 	2e-07 	0 	1 	0 	0
0.0016016016 	2e-06 	2e-07 	0 	1 	0 	0
0.0017017017 	2e-06 	2e-07 	0 	1 	0 	0
0.0018018018 	2e-06 	2e-07 	0 	1 	0 	0
0.0019019019 	2e-06 	2e-07 	0 	1 	0 	0
0.002002002 	2e-06 	2e-07 	0 	1 	0 	0
0.0021021021 	2e-06 	2e-07 	0 	1 	0 	0
0.0022022022 	2e-06 	2e-07 	0 	1 	0 	0
0.0023023023 	2e-06 	2e-07 	0 	1 	0 	0
0.0024024024 	2e-06 	2e-07 	0 	1 	0 	0
0.0025025025 	2e-06 	2e-07 	0 	1 	0 	0
0.0026026026 	2e-06 	2e-07 	0 	1 	0 	0
0.0027027027 	2e-06 	2e-07 	0 	1 	0 	0
0.0028028028 	2e-06 	2e-07 	0 	1 	0 	0
0.0029029029 	2e-06 	2e-07 	0 	1 	0 	0
0.003003003 	2e-06 	2e-07 	0 	1 	0 	0
0.0031031031 	2e-06 	2e-07 	0 	1 	0 	0
0.0032032032 	2e-06 	2e-07 	0 	1 	0 	0
0.0033033033 	2e-06 	2e-07 	0 	1 	0 	0
0.0034034034 	2e-06 	2e-07 	0 	1 	0 	0
0.0035035035 	2e-06 	2e-07 	0 	1 	0 	0
0.0036036036 	2e-06 	2e-07 	0 	1 	0 	0
0.0037037037 	2e-06 	2e-07 	0 	1 	0 	0
0.0038038038 	2e-06 	2e-07 	0 	1 	0 	0
0.0039039039 	2e-06 	2e-07 	0 	1 	0 	0
0.004004004 	2e-06 	2e-07 	0 	1 	0 	0
0.0041041041 	2e-06 	2e-07 	0 	1 	0 	0
0.0042042042 	2e-06 	2e-07 	0 	1 	0 	0
0.0043043043 	2e-06 	2e-07 	0 	1 	0 	0
0.0044044044 	2e-06 	2e-07 	0 	1 	0 	0
0.0045045045 	2e-06 	2e-07 	0 	1 	0 	0
0.0046046046 	2e-06 	2e-07 	0 	1 	0 	0
0.0047047047 	2e-06 	2e-07 	0 	1 	0 	0
0.0048048048 	2e-06 	2e-07 	0 	1 	0 	0
0.0049049049 	2e-06 	2e-07 	0 	1 	0 	0
0.005005005 	2e-06 	2e-07 	0 	1 	0 	0
0.0051051051 	2e-06 	2e-07 	0 	1 	0 	0
0.0052052052 	2e-06 	2e-07 	0 	1 	0 	0
0.0053053053 	2e-06 	2e-07 	0 	1 	0 	0
0.0054054054 	2e-06 	2e-07 	0 	1 	0 	0
0.0055055055 	2e-06 	2e-07 	0 	1 	0 	0
0.0056056056 	2e-06 	2e-07 	0 	1 	0 	0
0.0057057057 	2e-06 	2e-07 	0 	1 	0 	0
0.0058058058 	2e-06 	2e-07 	0 	1 	0 	0
0.0059059059 	2e-06 	2e-07 	0 	1 	0 	0
0.006006006 	2e-06 	2e-07 	0 	1 	0 	0
0.0061061061 	2e-06 	2e-07 	0 	1 	0 	0
0.0062062062 	2e-06 	2e-07 	0 	1 	0 	0
0.0063063063 	2e-06 	2e-07 	0 	1 	0 	0
0.0064064064 	2e-06 	2e-07 	0 	1 	0 	0
0.0065065065 	2e-06 	2e-07 	0 	1 	0 	0
0.0066066066 	2e-06 	2e-07 	0 	1 	0 	0
0.0067067067 	2e-06 	2e-07 	0 	1 	0 	0
0.0068068068 	2e-06 	2e-07 	0 	1 	0 	0
0.0069069069 	2e-06 	2e-07 	0 	1 	0 	0
0.007007007 	2e-06 	2e-07 	0 	1 	0 	0
0.0071071071 	2e-06 	2e-07 	0 	1 	0 	0
0.0072072072 	2e-06 	2e-07 	0 	1 	0 	0
0.0073073073 	2e-06 	2e-07 	0 	1 	0 	0
0.0074074074 	2e-06 	2e-07 	0 	1 	0 	0
0.0075075075 	2e-06 	2e-07 	0 	1 	0 	0
0.0076076076 	2e-06 	2e-07 	0 	1 	0 	0
0.0077077077 	2e-06 	2e-07 	0 	1 	0 	0
0.0078078078 	2e-06 	2e-07 	0 	1 	0 	0
0.0079079079 	2e-06 	2e-07 	0 	1 	0 	0
0.008008008 	2e-06 	2e-07 	0 	1 	0 	0
0.0081081081 	2e-06 	2e-07 	0 	1 	0 	0
0.0082082082 	2e-06 	2e-07 	0 	1 	0 	0
0.0083083083 	2e-06 	2e-07 	0 	1 	0 	0
0.0084084084 	2e-06 	2e-07 	0 	1 	0 	0
0.0085085085 	2e-06 	2e-07 	0 	1 	0 	0
0.0086086086 	2e-06 	2e-07 	0 	1 	0 	0
0.0087087087 	2e-06 	2e-07 	0 	1 	0 	0
0.0088088088 	2e-06 	2e-07 	0 	1 	0 	0
0.0089089089 	2e-06 	2e-07 	0 	1 	0 	0
0.009009009 	2e-06 	2e-07 	0 	1 	0 	0
0.0091091091 	2e-06 	2e-07 	0 	1 	0 	0
0.0092092092 	2e-06 	2e-07 	0 	1 	0 	0
0.0093093093 	2e-06 	2e-07 	0 	1 	0 	0
0.0094094094 	2e-06 	2e-07 	0 	1 	0 	0
0.0095095095 	2e-06 	2e-07 	0 	1 	0 	0
0.0096096096 	2e-06 	2e-07 	0 	1 	0 	0
0.0097097097 	2e-06 	2e-07 	0 	1 	0 	0
0.0098098098 	2e-06 	2e-07 	0 	1 	0 	0
0.0099099099 	2e-06 	2e-07 	0 	1 	0 	0
0.01001001 	2e-06 	2e-07 	0 	1 	0 	0
0.01011011 	2e-06 	2e-07 	0 	1 	0 	0
0.01021021 	2e-06 	2e-07 	0 	1 	0 	0
0.01031031 	2e-06 	2e-07 	0 	1 	0 	0
0.01041041 	2e-06 	2e-07 	0 	1 	0 	0
0.010510511 	2e-06 	2e-07 	0 	1 	0 	0
0.010610611 	2e-06 	2e-07 	0 	1 	0 	0
0.010710711 	2e-06 	2e-07 	0 	1 	0 	0
0.010810811 	2e-06 	2e-07 	0 	1 	0 	0
0.010910911 	2e-06 	2e-07 	0 	1 	0 	0
0.011011011 	2e-06 	2e-07 	0 	1 	0 	0
0.011111111 	2e-06 	2e-07 	0 	1 	0 	0
0.011211211 	2e-06 	2e-07 	0 	1 	0 	0
0.011311311 	2e-06 	2e-07 	0 	1 	0 	0
0.011411411 	2e-06 	2e-07 	0 	1 	0 	0
0.011511512 	2e-06 	2e-07 	0 	1 	0 	0
0.011611612 	2e-06 	2e-07 	0 	1 	0 	0
0.011711712 	2e-06 	2e-07 	0 	1 	0 	0
0.011811812 	2e-06 	2e-07 	0 	1 	0 	0
0.011911912 	2e-06 	2e-07 	0 	1 	0 	0
0.012012012 	2e-06 	2e-07 	0 	1 	0 	0
0.012112112 	2e-06 	2e-07 	0 	1 	0 	0
0.012212212 	2e-06 	2e-07 	0 	1 	0 	0
0.012312312 	2e-06 	2e-07 	0 	1 	0 	0
0.012412412 	2e-06 	2e-07 	0 	1 	0 	0
0.012512513 	2e-06 	2e-07 	0 	1 	0 	0
0.012612613 	2e-06 	2e-07 	0 	1 	0 	0
0.012712713 	2e-06 	2e-07 	0 	1 	0 	0
0.012812813 	2e-06 	2e-07 	0 	1 	0 	0
0.012912913 	2e-06 	2e-07 	0 	1 	0 	0
0.013013013 	2e-06 	2e-07 	0 	1 	0 	0
0.013113113 	2e-06 	2e-07 	0 	1 	0 	0
0.013213213 	2e-06 	2e-07 	0 	1 	0 	0
0.013313313 	2e-06 	2e-07 	0 	1 	0 	0
0.013413413 	2e-06 	2e-07 	0 	1 	0 	0
0.013513514 	2e-06 	2e-07 	0 	1 	0 	0
0.013613614 	2e-06 	2e-07 	0 	1 	0 	0
0.013713714 	2e-06 	2e-07 	0 	1 	0 	0
0.013813814 	2e-06 	2e-07 	0 	1 	0 	0
0.013913914 	2e-06 	2e-07 	0 	1 	0 	0
0.014014014 	2e-06 	2e-07 	0 	1 	0 	0
0.014114114 	2e-06 	2e-07 	0 	1 	0 	0
0.014214214 	2e-06 	2e-07 	0 	1 	0 	0
0.014314314 	2e-06 	2e-07 	0 	1 	0 	0
0.014414414 	2e-06 	2e-07 	0 	1 	0 	0
0.014514515 	2e-06 	2e-07 	0 	1 	0 	0
0.014614615 	2e-06 	2e-07 	0 	1 	0 	0
0.014714715 	2e-06 	2e-07 	0 	1 	0 	0
0.014814815 	2e-06 	2e-07 	0 	1 	0 	0
0.014914915 	2e-06 	2e-07 	0 	1 	0 	0
0.015015015 	2e-06 	2e-07 	0 	1 	0 	0
0.015115115 	2e-06 	2e-07 	0 	1 	0 	0
0.015215215 	2e-06 	2e-07 	0 	1 	0 	0
0.015315315 	2e-06 	2e-07 	0 	1 	0 	0
0.015415415 	2e-06 	2e-07 	0 	1 	0 	0
0.015515516 	2e-06 	2e-07 	0 	1 	0 	0
0.015615616 	2e-06 	2e-07 	0 	1 	0 	0
0.015715716 	2e-06 	2e-07 	0 	1 	0 	0
0.015815816 	2e-06 	2e-07 	0 	1 	0 	0
0.015915916 	2e-06 	2e-07 	0 	1 	0 	0
0.016016016 	2e-06 	2e-07 	0 	1 	0 	0
0.016116116 	2e-06 	2e-07 	0 	1 	0 	0
0.016216216 	2e-06 	2e-07 	0 	1 	0 	0
0.016316316 	2e-06 	2e-07 	0 	1 	0 	0
0.016416416 	2e-06 	2e-07 	0 	1 	0 	0
0.016516517 	2e-06 	2e-07 	0 	1 	0 	0
0.016616617 	2e-06 	2e-07 	0 	1 	0 	0
0.016716717 	2e-06 	2e-07 	0 	1 	0 	0
0.016816817 	2e-06 	2e-07 	0 	1 	0 	0
0.016916917 	2e-06 	2e-07 	0 	1 	0 	0
0.017017017 	2e-06 	2e-07 	0 	1 	0 	0
0.017117117 	2e-06 	2e-07 	0 	1 	0 	0
0.017217217 	2e-06 	2e-07 	0 	1 	0 	0
0.017317317 	2e-06 	2e-07 	0 	1 	0 	0
0.017417417 	2e-06 	2e-07 	0 	1 	0 	0
0.017517518 	2e-06 	2e-07 	0 	1 	0 	0
0.017617618 	2e-06 	2e-07 	0 	1 	0 	0
0.017717718 	2e-06 	2e-07 	0 	1 	0 	0
0.017817818 	2e-06 	2e-07 	0 	1 	0 	0
0.017917918 	2e-06 	2e-07 	0 	1 	0 	0
0.018018018 	2e-06 	2e-07 	0 	1 	0 	0
0.018118118 	2e-06 	2e-07 	0 	1 	0 	0
0.018218218 	2e-06 	2e-07 	0 	1 	0 	0
0.018318318 	2e-06 	2e-07 	0 	1 	0 	0
0.018418418 	2e-06 	2e-07 	0 	1 	0 	0
0.018518519 	2e-06 	2e-07 	0 	1 	0 	0
0.018618619 	2e-06 	2e-07 	0 	1 	0 	0
0.018718719 	2e-06 	2e-07 	0 	1 	0 	0
0.018818819 	2e-06 	2e-07 	0 	1 	0 	0
0.018918919 	2e-06 	2e-07 	0 	1 	0 	0
0.019019019 	2e-06 	2e-07 	0 	1 	0 	0
0.019119119 	2e-06 	2e-07 	0 	1 	0 	0
0.019219219 	2e-06 	2e-07 	0 	1 	0 	0
0.019319319 	2e-06 	2e-07 	0 	1 	0 	0
0.019419419 	2e-06 	2e-07 	0 	1 	0 	0
0.01951952 	2e-06 	2e-07 	0 	1 	0 	0
0.01961962 	2e-06 	2e-07 	0 	1 	0 	0
0.01971972 	2e-06 	2e-07 	0 	1 	0 	0
0.01981982 	2e-06 	2e-07 	0 	1 	0 	0
0.01991992 	2e-06 	2e-07 	0 	1 	0 	0
0.02002002 	2e-06 	2e-07 	0 	1 	0 	0
0.02012012 	2e-06 	2e-07 	0 	1 	0 	0
0.02022022 	2e-06 	2e-07 	0 	1 	0 	0
0.02032032 	2e-06 	2e-07 	0 	1 	0 	0
0.02042042 	2e-06 	2e-07 	0 	1 	0 	0
0.020520521 	2e-06 	2e-07 	0 	1 	0 	0
0.020620621 	2e-06 	2e-07 	0 	1 	0 	0
0.020720721 	2e-06 	2e-07 	0 	1 	0 	0
0.020820821 	2e-06 	2e-07 	0 	1 	0 	0
0.020920921 	2e-06 	2e-07 	0 	1 	0 	0
0.021021021 	2e-06 	2e-07 	0 	1 	0 	0
0.021121121 	2e-06 	2e-07 	0 	1 	0 	0
0.021221221 	2e-06 	2e-07 	0 	1 	0 	0
0.021321321 	2e-06 	2e-07 	0 	1 	0 	0
0.021421421 	2e-06 	2e-07 	0 	1 	0 	0
0.021521522 	2e-06 	2e-07 	0 	1 	0 	0
0.021621622 	2e-06 	2e-07 	0 	1 	0 	0
0.021721722 	2e-06 	2e-07 	0 	1 	0 	0
0.021821822 	2e-06 	2e-07 	0 	1 	0 	0
0.021921922 	2e-06 	2e-07 	0 	1 	0 	0
0.022022022 	2e-06 	2e-07 	0 	1 	0 	0
0.022122122 	2e-06 	2e-07 	0 	1 	0 	0
0.022222222 	2e-06 	2e-07 	0 	1 	0 	0
0.022322322 	2e-06 	2e-07 	0 	1 	0 	0
0.022422422 	2e-06 	2e-07 	0 	1 	0 	0
0.022522523 	2e-06 	2e-07 	0 	1 	0 	0
0.022622623 	2e-06 	2e-07 	0 	1 	0 	0
0.022722723 	2e-06 	2e-07 	0 	1 	0 	0
0.022822823 	2e-06 	2e-07 	0 	1 	0 	0
0.022922923 	2e-06 	2e-07 	0 	1 	0 	0
0.023023023 	2e-06 	2e-07 	0 	1 	0 	0
0.023123123 	2e-06 	2e-07 	0 	1 	0 	0
0.023223223 	2e-06 	2e-07 	0 	1 	0 	0
0.023323323 	2e-06 	2e-07 	0 	1 	0 	0
0.023423423 	2e-06 	2e-07 	0 	1 	0 	0
0.023523524 	2e-06 	2e-07 	0 	1 	0 	0
0.023623624 	2e-06 	2e-07 	0 	1 	0 	0
0.023723724 	2e-06 	2e-07 	0 	1 	0 	0
0.023823824 	2e-06 	2e-07 	0 	1 	0 	0
0.023923924 	2e-06 	2e-07 	0 	1 	0 	0
0.024024024 	2e-06 	2e-07 	0 	1 	0 	0
0.024124124 	2e-06 	2e-07 	0 	1 	0 	0
0.024224224 	2e-06 	2e-07 	0 	1 	0 	0
0.024324324 	2e-06 	2e-07 	0 	1 	0 	0
0.024424424 	2e-06 	2e-07 	0 	1 	0 	0
0.024524525 	2e-06 	2e-07 	0 	1 	0 	0
0.024624625 	2e-06 	2e-07 	0 	1 	0 	0
0.024724725 	2e-06 	2e-07 	0 	1 	0 	0
0.024824825 	2e-06 	2e-07 	0 	1 	0 	0
0.024924925 	2e-06 	2e-07 	0 	1 	0 	0
0.025025025 	2e-06 	2e-07 	0 	1 	0 	0
0.025125125 	2e-06 	2e-07 	0 	1 	0 	0
0.025225225 	2e-06 	2e-07 	0 	1 	0 	0
0.025325325 	2e-06 	2e-07 	0 	1 	0 	0
0.025425425 	2e-06 	2e-07 	0 	1 	0 	0
0.025525526 	2e-06 	2e-07 	0 	1 	0 	0
0.025625626 	2e-06 	2e-07 	0 	1 	0 	0
0.025725726 	2e-06 	2e-07 	0 	1 	0 	0
0.025825826 	2e-06 	2e-07 	0 	1 	0 	0
0.025925926 	2e-06 	2e-07 	0 	1 	0 	0
0.026026026 	2e-06 	2e-07 	0 	1 	0 	0
0.026126126 	2e-06 	2e-07 	0 	1 	0 	0
0.026226226 	2e-06 	2e-07 	0 	1 	0 	0
0.026326326 	2e-06 	2e-07 	0 	1 	0 	0
0.026426426 	2e-06 	2e-07 	0 	1 	0 	0
0.026526527 	2e-06 	2e-07 	0 	1 	0 	0
0.026626627 	2e-06 	2e-07 	0 	1 	0 	0
0.026726727 	2e-06 	2e-07 	0 	1 	0 	0
0.026826827 	2e-06 	2e-07 	0 	1 	0 	0
0.026926927 	2e-06 	2e-07 	0 	1 	0 	0
0.027027027 	2e-06 	2e-07 	0 	1 	0 	0
0.027127127 	2e-06 	2e-07 	0 	1 	0 	0
0.027227227 	2e-06 	2e-07 	0 	1 	0 	0
0.027327327 	2e-06 	2e-07 	0 	1 	0 	0
0.027427427 	2e-06 	2e-07 	0 	1 	0 	0
0.027527528 	2e-06 	2e-07 	0 	1 	0 	0
0.027627628 	2e-06 	2e-07 	0 	1 	0 	0
0.027727728 	2e-06 	2e-07 	0 	1 	0 	0
0.027827828 	2e-06 	2e-07 	0 	1 	0 	0
0.027927928 	2e-06 	2e-07 	0 	1 	0 	0
0.028028028 	2e-06 	2e-07 	0 	1 	0 	0
0.028128128 	2e-06 	2e-07 	0 	1 	0 	0
0.028228228 	2e-06 	2e-07 	0 	1 	0 	0
0.028328328 	2e-06 	2e-07 	0 	1 	0 	0
0.028428428 	2e-06 	2e-07 	0 	1 	0 	0
0.028528529 	2e-06 	2e-07 	0 	1 	0 	0
0.028628629 	2e-06 	2e-07 	0 	1 	0 	0
0.028728729 	2e-06 	2e-07 	0 	1 	0 	0
0.028828829 	2e-06 	2e-07 	0 	1 	0 	0
0.028928929 	2e-06 	2e-07 	0 	1 	0 	0
0.029029029 	2e-06 	2e-07 	0 	1 	0 	0
0.029129129 	2e-06 	2e-07 	0 	1 	0 	0
0.029229229 	2e-06 	2e-07 	0 	1 	0 	0
0.029329329 	2e-06 	2e-07 	0 	1 	0 	0
0.029429429 	2e-06 	2e-07 	0 	1 	0 	0
0.02952953 	2e-06 	2e-07 	0 	1 	0 	0
0.02962963 	2e-06 	2e-07 	0 	1 	0 	0
0.02972973 	2e-06 	2e-07 	0 	1 	0 	0
0.02982983 	2e-06 	2e-07 	0 	1 	0 	0
0.02992993 	2e-06 	2e-07 	0 	1 	0 	0
0.03003003 	2e-06 	2e-07 	0 	1 	0 	0
0.03013013 	2e-06 	2e-07 	0 	1 	0 	0
0.03023023 	2e-06 	2e-07 	0 	1 	0 	0
0.03033033 	2e-06 	2e-07 	0 	1 	0 	0
0.03043043 	2e-06 	2e-07 	0 	1 	0 	0
0.030530531 	2e-06 	2e-07 	0 	1 	0 	0
0.030630631 	2e-06 	2e-07 	0 	1 	0 	0
0.030730731 	2e-06 	2e-07 	0 	1 	0 	0
0.030830831 	2e-06 	2e-07 	0 	1 	0 	0
0.030930931 	2e-06 	2e-07 	0 	1 	0 	0
0.031031031 	2e-06 	2e-07 	0 	1 	0 	0
0.031131131 	2e-06 	2e-07 	0 	1 	0 	0
0.031231231 	2e-06 	2e-07 	0 	1 	0 	0
0.031331331 	2e-06 	2e-07 	0 	1 	0 	0
0.031431431 	2e-06 	2e-07 	0 	1 	0 	0
0.031531532 	2e-06 	2e-07 	0 	1 	0 	0
0.031631632 	2e-06 	2e-07 	0 	1 	0 	0
0.031731732 	2e-06 	2e-07 	0 	1 	0 	0
0.031831832 	2e-06 	2e-07 	0 	1 	0 	0
0.031931932 	2e-06 	2e-07 	0 	1 	0 	0
0.032032032 	2e-06 	2e-07 	0 	1 	0 	0
0.032132132 	2e-06 	2e-07 	0 	1 	0 	0
0.032232232 	2e-06 	2e-07 	0 	1 	0 	0
0.032332332 	2e-06 	2e-07 	0 	1 	0 	0
0.032432432 	2e-06 	2e-07 	0 	1 	0 	0
0.032532533 	2e-06 	2e-07 	0 	1 	0 	0
0.032632633 	2e-06 	2e-07 	0 	1 	0 	0
0.032732733 	2e-06 	2e-07 	0 	1 	0 	0
0.032832833 	2e-06 	2e-07 	0 	1 	0 	0
0.032932933 	2e-06 	2e-07 	0 	1 	0 	0
0.033033033 	2e-06 	2e-07 	0 	1 	0 	0
0.033133133 	2e-06 	2e-07 	0 	1 	0 	0
0.033233233 	2e-06 	2e-07 	0 	1 	0 	0
0.033333333 	2e-06 	2e-07 	0 	1 	0 	0
0.033433433 	2e-06 	2e-07 	0 	1 	0 	0
0.033533534 	2e-06 	2e-07 	0 	1 	0 	0
0.033633634 	2e-06 	2e-07 	0 	1 	0 	0
0.033733734 	2e-06 	2e-07 	0 	1 	0 	0
0.033833834 	2e-06 	2e-07 	0 	1 	0 	0
0.033933934 	2e-06 	2e-07 	0 	1 	0 	0
0.034034034 	2e-06 	2e-07 	0 	1 	0 	0
0.034134134 	2e-06 	2e-07 	0 	1 	0 	0
0.034234234 	2e-06 	2e-07 	0 	1 	0 	0
0.034334334 	2e-06 	2e-07 	0 	1 	0 	0
0.034434434 	2e-06 	2e-07 	0 	1 	0 	0
0.034534535 	2e-06 	2e-07 	0 	1 	0 	0
0.034634635 	2e-06 	2e-07 	0 	1 	0 	0
0.034734735 	2e-06 	2e-07 	0 	1 	0 	0
0.034834835 	2e-06 	2e-07 	0 	1 	0 	0
0.034934935 	2e-06 	2e-07 	0 	1 	0 	0
0.035035035 	2e-06 	2e-07 	0 	1 	0 	0
0.035135135 	2e-06 	2e-07 	0 	1 	0 	0
0.035235235 	2e-06 	2e-07 	0 	1 	0 	0
0.035335335 	2e-06 	2e-07 	0 	1 	0 	0
0.035435435 	2e-06 	2e-07 	0 	1 	0 	0
0.035535536 	2e-06 	2e-07 	0 	1 	0 	0
0.035635636 	2e-06 	2e-07 	0 	1 	0 	0
0.035735736 	2e-06 	2e-07 	0 	1 	0 	0
0.035835836 	2e-06 	2e-07 	0 	1 	0 	0
0.035935936 	2e-06 	2e-07 	0 	1 	0 	0
0.036036036 	2e-06 	2e-07 	0 	1 	0 	0
0.036136136 	2e-06 	2e-07 	0 	1 	0 	0
0.036236236 	2e-06 	2e-07 	0 	1 	0 	0
0.036336336 	2e-06 	2e-07 	0 	1 	0 	0
0.036436436 	2e-06 	2e-07 	0 	1 	0 	0
0.036536537 	2e-06 	2e-07 	0 	1 	0 	0
0.036636637 	2e-06 	2e-07 	0 	1 	0 	0
0.036736737 	2e-06 	2e-07 	0 	1 	0 	0
0.036836837 	2e-06 	2e-07 	0 	1 	0 	0
0.036936937 	2e-06 	2e-07 	0 	1 	0 	0
0.037037037 	2e-06 	2e-07 	0 	1 	0 	0
0.037137137 	2e-06 	2e-07 	0 	1 	0 	0
0.037237237 	2e-06 	2e-07 	0 	1 	0 	0
0.037337337 	2e-06 	2e-07 	0 	1 	0 	0
0.037437437 	2e-06 	2e-07 	0 	1 	0 	0
0.037537538 	2e-06 	2e-07 	0 	1 	0 	0
0.037637638 	2e-06 	2e-07 	0 	1 	0 	0
0.037737738 	2e-06 	2e-07 	0 	1 	0 	0
0.037837838 	2e-06 	2e-07 	0 	1 	0 	0
0.037937938 	2e-06 	2e-07 	0 	1 	0 	0
0.038038038 	2e-06 	2e-07 	0 	1 	0 	0
0.038138138 	2e-06 	2e-07 	0 	1 	0 	0
0.038238238 	2e-06 	2e-07 	0 	1 	0 	0
0.038338338 	2e-06 	2e-07 	0 	1 	0 	0
0.038438438 	2e-06 	2e-07 	0 	1 	0 	0
0.038538539 	2e-06 	2e-07 	0 	1 	0 	0
0.038638639 	2e-06 	2e-07 	0 	1 	0 	0
0.038738739 	2e-06 	2e-07 	0 	1 	0 	0
0.038838839 	2e-06 	2e-07 	0 	1 	0 	0
0.038938939 	2e-06 	2e-07 	0 	1 	0 	0
0.039039039 	2e-06 	2e-07 	0 	1 	0 	0
0.039139139 	2e-06 	2e-07 	0 	1 	0 	0
0.039239239 	2e-06 	2e-07 	0 	1 	0 	0
0.039339339 	2e-06 	2e-07 	0 	1 	0 	0
0.039439439 	2e-06 	2e-07 	0 	1 	0 	0
0.03953954 	2e-06 	2e-07 	0 	1 	0 	0
0.03963964 	2e-06 	2e-07 	0 	1 	0 	0
0.03973974 	2e-06 	2e-07 	0 	1 	0 	0
0.03983984 	2e-06 	2e-07 	0 	1 	0 	0
0.03993994 	2e-06 	2e-07 	0 	1 	0 	0
0.04004004 	2e-06 	2e-07 	0 	1 	0 	0
0.04014014 	2e-06 	2e-07 	0 	1 	0 	0
0.04024024 	2e-06 	2e-07 	0 	1 	0 	0
0.04034034 	2e-06 	2e-07 	0 	1 	0 	0
0.04044044 	2e-06 	2e-07 	0 	1 	0 	0
0.040540541 	2e-06 	2e-07 	0 	1 	0 	0
0.040640641 	2e-06 	2e-07 	0 	1 	0 	0
0.040740741 	2e-06 	2e-07 	0 	1 	0 	0
0.040840841 	2e-06 	2e-07 	0 	1 	0 	0
0.040940941 	2e-06 	2e-07 	0 	1 	0 	0
0.041041041 	2e-06 	2e-07 	0 	1 	0 	0
0.041141141 	2e-06 	2e-07 	0 	1 	0 	0
0.041241241 	2e-06 	2e-07 	0 	1 	0 	0
0.041341341 	2e-06 	2e-07 	0 	1 	0 	0
0.041441441 	2e-06 	2e-07 	0 	1 	0 	0
0.041541542 	2e-06 	2e-07 	0 	1 	0 	0
0.041641642 	2e-06 	2e-07 	0 	1 	0 	0
0.041741742 	2e-06 	2e-07 	0 	1 	0 	0
0.041841842 	2e-06 	2e-07 	0 	1 	0 	0
0.041941942 	2e-06 	2e-07 	0 	1 	0 	0
0.042042042 	2e-06 	2e-07 	0 	1 	0 	0
0.042142142 	2e-06 	2e-07 	0 	1 	0 	0
0.042242242 	2e-06 	2e-07 	0 	1 	0 	0
0.042342342 	2e-06 	2e-07 	0 	1 	0 	0
0.042442442 	2e-06 	2e-07 	0 	1 	0 	0
0.042542543 	2e-06 	2e-07 	0 	1 	0 	0
0.042642643 	2e-06 	2e-07 	0 	1 	0 	0
0.042742743 	2e-06 	2e-07 	0 	1 	0 	0
0.042842843 	2e-06 	2e-07 	0 	1 	0 	0
0.042942943 	2e-06 	2e-07 	0 	1 	0 	0
0.043043043 	2e-06 	2e-07 	0 	1 	0 	0
0.043143143 	2e-06 	2e-07 	0 	1 	0 	0
0.043243243 	2e-06 	2e-07 	0 	1 	0 	0
0.043343343 	2e-06 	2e-07 	0 	1 	0 	0
0.043443443 	2e-06 	2e-07 	0 	1 	0 	0
0.043543544 	2e-06 	2e-07 	0 	1 	0 	0
0.043643644 	2e-06 	2e-07 	0 	1 	0 	0
0.043743744 	2e-06 	2e-07 	0 	1 	0 	0
0.043843844 	2e-06 	2e-07 	0 	1 	0 	0
0.043943944 	2e-06 	2e-07 	0 	1 	0 	0
0.044044044 	2e-06 	2e-07 	0 	1 	0 	0
0.044144144 	2e-06 	2e-07 	0 	1 	0 	0
0.044244244 	2e-06 	2e-07 	0 	1 	0 	0
0.044344344 	2e-06 	2e-07 	0 	1 	0 	0
0.044444444 	2e-06 	2e-07 	0 	1 	0 	0
0.044544545 	2e-06 	2e-07 	0 	1 	0 	0
0.044644645 	2e-06 	2e-07 	0 	1 	0 	0
0.044744745 	2e-06 	2e-07 	0 	1 	0 	0
0.044844845 	2e-06 	2e-07 	0 	1 	0 	0
0.044944945 	2e-06 	2e-07 	0 	1 	0 	0
0.045045045 	2e-06 	2e-07 	0 	1 	0 	0
0.045145145 	2e-06 	2e-07 	0 	1 	0 	0
0.045245245 	2e-06 	2e-07 	0 	1 	0 	0
0.045345345 	2e-06 	2e-07 	0 	1 	0 	0
0.045445445 	2e-06 	2e-07 	0 	1 	0 	0
0.045545546 	2e-06 	2e-07 	0 	1 	0 	0
0.045645646 	2e-06 	2e-07 	0 	1 	0 	0
0.045745746 	2e-06 	2e-07 	0 	1 	0 	0
0.045845846 	2e-06 	2e-07 	0 	1 	0 	0
0.045945946 	2e-06 	2e-07 	0 	1 	0 	0
0.046046046 	2e-06 	2e-07 	0 	1 	0 	0
0.046146146 	2e-06 	2e-07 	0 	1 	0 	0
0.046246246 	2e-06 	2e-07 	0 	1 	0 	0
0.046346346 	2e-06 	2e-07 	0 	1 	0 	0
0.046446446 	2e-06 	2e-07 	0 	1 	0 	0
0.046546547 	2e-06 	2e-07 	0 	1 	0 	0
0.046646647 	2e-06 	2e-07 	0 	1 	0 	0
0.046746747 	2e-06 	2e-07 	0 	1 	0 	0
0.046846847 	2e-06 	2e-07 	0 	1 	0 	0
0.046946947 	2e-06 	2e-07 	0 	1 	0 	0
0.047047047 	2e-06 	2e-07 	0 	1 	0 	0
0.047147147 	2e-06 	2e-07 	0 	1 	0 	0
0.047247247 	2e-06 	2e-07 	0 	1 	0 	0
0.047347347 	2e-06 	2e-07 	0 	1 	0 	0
0.047447447 	2e-06 	2e-07 	0 	1 	0 	0
0.047547548 	2e-06 	2e-07 	0 	1 	0 	0
0.047647648 	2e-06 	2e-07 	0 	1 	0 	0
0.047747748 	2e-06 	2e-07 	0 	1 	0 	0
0.047847848 	2e-06 	2e-07 	0 	1 	0 	0
0.047947948 	2e-06 	2e-07 	0 	1 	0 	0
0.048048048 	2e-06 	2e-07 	0 	1 	0 	0
0.048148148 	2e-06 	2e-07 	0 	1 	0 	0
0.048248248 	2e-06 	2e-07 	0 	1 	0 	0
0.048348348 	2e-06 	2e-07 	0 	1 	0 	0
0.048448448 	2e-06 	2e-07 	0 	1 	0 	0
0.048548549 	2e-06 	2e-07 	0 	1 	0 	0
0.048648649 	2e-06 	2e-07 	0 	1 	0 	0
0.048748749 	2e-06 	2e-07 	0 	1 	0 	0
0.048848849 	2e-06 	2e-07 	0 	1 	0 	0
0.048948949 	2e-06 	2e-07 	0 	1 	0 	0
0.049049049 	2e-06 	2e-07 	0 	1 	0 	0
0.049149149 	2e-06 	2e-07 	0 	1 	0 	0
0.049249249 	2e-06 	2e-07 	0 	1 	0 	0
0.049349349 	2e-06 	2e-07 	0 	1 	0 	0
0.049449449 	2e-06 	2e-07 	0 	1 	0 	0
0.04954955 	2e-06 	2e-07 	0 	1 	0 	0
0.04964965 	2e-06 	2e-07 	0 	1 	0 	0
0.04974975 	2e-06 	2e-07 	0 	1 	0 	0
0.04984985 	2e-06 	2e-07 	0 	1 	0 	0
0.04994995 	2e-06 	2e-07 	0 	1 	0 	0
0.05005005 	2e-06 	2e-07 	0 	1 	0 	0
0.05015015 	2e-06 	2e-07 	0 	1 	0 	0
0.05025025 	2e-06 	2e-07 	0 	1 	0 	0
0.05035035 	2e-06 	2e-07 	0 	1 	0 	0
0.05045045 	2e-06 	2e-07 	0 	1 	0 	0
0.050550551 	2e-06 	2e-07 	0 	1 	0 	0
0.050650651 	2e-06 	2e-07 	0 	1 	0 	0
0.050750751 	2e-06 	2e-07 	0 	1 	0 	0
0.050850851 	2e-06 	2e-07 	0 	1 	0 	0
0.050950951 	2e-06 	2e-07 	0 	1 	0 	0
0.051051051 	2e-06 	2e-07 	0 	1 	0 	0
0.051151151 	2e-06 	2e-07 	0 	1 	0 	0
0.051251251 	2e-06 	2e-07 	0 	1 	0 	0
0.051351351 	2e-06 	2e-07 	0 	1 	0 	0
0.051451451 	2e-06 	2e-07 	0 	1 	0 	0
0.051551552 	2e-06 	2e-07 	0 	1 	0 	0
0.051651652 	2e-06 	2e-07 	0 	1 	0 	0
0.051751752 	2e-06 	2e-07 	0 	1 	0 	0
0.051851852 	2e-06 	2e-07 	0 	1 	0 	0
0.051951952 	2e-06 	2e-07 	0 	1 	0 	0
0.052052052 	2e-06 	2e-07 	0 	1 	0 	0
0.052152152 	2e-06 	2e-07 	0 	1 	0 	0
0.052252252 	2e-06 	2e-07 	0 	1 	0 	0
0.052352352 	2e-06 	2e-07 	0 	1 	0 	0
0.052452452 	2e-06 	2e-07 	0 	1 	0 	0
0.052552553 	2e-06 	2e-07 	0 	1 	0 	0
0.052652653 	2e-06 	2e-07 	0 	1 	0 	0
0.052752753 	2e-06 	2e-07 	0 	1 	0 	0
0.052852853 	2e-06 	2e-07 	0 	1 	0 	0
0.052952953 	2e-06 	2e-07 	0 	1 	0 	0
0.053053053 	2e-06 	2e-07 	0 	1 	0 	0
0.053153153 	2e-06 	2e-07 	0 	1 	0 	0
0.053253253 	2e-06 	2e-07 	0 	1 	0 	0
0.053353353 	2e-06 	2e-07 	0 	1 	0 	0
0.053453453 	2e-06 	2e-07 	0 	1 	0 	0
0.053553554 	2e-06 	2e-07 	0 	1 	0 	0
0.053653654 	2e-06 	2e-07 	0 	1 	0 	0
0.053753754 	2e-06 	2e-07 	0 	1 	0 	0
0.053853854 	2e-06 	2e-07 	0 	1 	0 	0
0.053953954 	2e-06 	2e-07 	0 	1 	0 	0
0.054054054 	2e-06 	2e-07 	0 	1 	0 	0
0.054154154 	2e-06 	2e-07 	0 	1 	0 	0
0.054254254 	2e-06 	2e-07 	0 	1 	0 	0
0.054354354 	2e-06 	2e-07 	0 	1 	0 	0
0.054454454 	2e-06 	2e-07 	0 	1 	0 	0
0.054554555 	2e-06 	2e-07 	0 	1 	0 	0
0.054654655 	2e-06 	2e-07 	0 	1 	0 	0
0.054754755 	2e-06 	2e-07 	0 	1 	0 	0
0.054854855 	2e-06 	2e-07 	0 	1 	0 	0
0.054954955 	2e-06 	2e-07 	0 	1 	0 	0
0.055055055 	2e-06 	2e-07 	0 	1 	0 	0
0.055155155 	2e-06 	2e-07 	0 	1 	0 	0
0.055255255 	2e-06 	2e-07 	0 	1 	0 	0
0.055355355 	2e-06 	2e-07 	0 	1 	0 	0
0.055455455 	2e-06 	2e-07 	0 	1 	0 	0
0.055555556 	2e-06 	2e-07 	0 	1 	0 	0
0.055655656 	2e-06 	2e-07 	0 	1 	0 	0
0.055755756 	2e-06 	2e-07 	0 	1 	0 	0
0.055855856 	2e-06 	2e-07 	0 	1 	0 	0
0.055955956 	2e-06 	2e-07 	0 	1 	0 	0
0.056056056 	2e-06 	2e-07 	0 	1 	0 	0
0.056156156 	2e-06 	2e-07 	0 	1 	0 	0
0.056256256 	2e-06 	2e-07 	0 	1 	0 	0
0.056356356 	2e-06 	2e-07 	0 	1 	0 	0
0.056456456 	2e-06 	2e-07 	0 	1 	0 	0
0.056556557 	2e-06 	2e-07 	0 	1 	0 	0
0.056656657 	2e-06 	2e-07 	0 	1 	0 	0
0.056756757 	2e-06 	2e-07 	0 	1 	0 	0
0.056856857 	2e-06 	2e-07 	0 	1 	0 	0
0.056956957 	2e-06 	2e-07 	0 	1 	0 	0
0.057057057 	2e-06 	2e-07 	0 	1 	0 	0
0.057157157 	2e-06 	2e-07 	0 	1 	0 	0
0.057257257 	2e-06 	2e-07 	0 	1 	0 	0
0.057357357 	2e-06 	2e-07 	0 	1 	0 	0
0.057457457 	2e-06 	2e-07 	0 	1 	0 	0
0.057557558 	2e-06 	2e-07 	0 	1 	0 	0
0.057657658 	2e-06 	2e-07 	0 	1 	0 	0
0.057757758 	2e-06 	2e-07 	0 	1 	0 	0
0.057857858 	2e-06 	2e-07 	0 	1 	0 	0
0.057957958 	2e-06 	2e-07 	0 	1 	0 	0
0.058058058 	2e-06 	2e-07 	0 	1 	0 	0
0.058158158 	2e-06 	2e-07 	0 	1 	0 	0
0.058258258 	2e-06 	2e-07 	0 	1 	0 	0
0.058358358 	2e-06 	2e-07 	0 	1 	0 	0
0.058458458 	2e-06 	2e-07 	0 	1 	0 	0
0.058558559 	2e-06 	2e-07 	0 	1 	0 	0
0.058658659 	2e-06 	2e-07 	0 	1 	0 	0
0.058758759 	2e-06 	2e-07 	0 	1 	0 	0
0.058858859 	2e-06 	2e-07 	0 	1 	0 	0
0.058958959 	2e-06 	2e-07 	0 	1 	0 	0
0.059059059 	2e-06 	2e-07 	0 	1 	0 	0
0.059159159 	2e-06 	2e-07 	0 	1 	0 	0
0.059259259 	2e-06 	2e-07 	0 	1 	0 	0
0.059359359 	2e-06 	2e-07 	0 	1 	0 	0
0.059459459 	2e-06 	2e-07 	0 	1 	0 	0
0.05955956 	2e-06 	2e-07 	0 	1 	0 	0
0.05965966 	2e-06 	2e-07 	0 	1 	0 	0
0.05975976 	2e-06 	2e-07 	0 	1 	0 	0
0.05985986 	2e-06 	2e-07 	0 	1 	0 	0
0.05995996 	2e-06 	2e-07 	0 	1 	0 	0
0.06006006 	2e-06 	2e-07 	0 	1 	0 	0
0.06016016 	2e-06 	2e-07 	0 	1 	0 	0
0.06026026 	2e-06 	2e-07 	0 	1 	0 	0
0.06036036 	2e-06 	2e-07 	0 	1 	0 	0
0.06046046 	2e-06 	2e-07 	0 	1 	0 	0
0.060560561 	2e-06 	2e-07 	0 	1 	0 	0
0.060660661 	2e-06 	2e-07 	0 	1 	0 	0
0.060760761 	2e-06 	2e-07 	0 	1 	0 	0
0.060860861 	2e-06 	2e-07 	0 	1 	0 	0
0.060960961 	2e-06 	2e-07 	0 	1 	0 	0
0.061061061 	2e-06 	2e-07 	0 	1 	0 	0
0.061161161 	2e-06 	2e-07 	0 	1 	0 	0
0.061261261 	2e-06 	2e-07 	0 	1 	0 	0
0.061361361 	2e-06 	2e-07 	0 	1 	0 	0
0.061461461 	2e-06 	2e-07 	0 	1 	0 	0
0.061561562 	2e-06 	2e-07 	0 	1 	0 	0
0.061661662 	2e-06 	2e-07 	0 	1 	0 	0
0.061761762 	2e-06 	2e-07 	0 	1 	0 	0
0.061861862 	2e-06 	2e-07 	0 	1 	0 	0
0.061961962 	2e-06 	2e-07 	0 	1 	0 	0
0.062062062 	2e-06 	2e-07 	0 	1 	0 	0
0.062162162 	2e-06 	2e-07 	0 	1 	0 	0
0.062262262 	2e-06 	2e-07 	0 	1 	0 	0
0.062362362 	2e-06 	2e-07 	0 	1 	0 	0
0.062462462 	2e-06 	2e-07 	0 	1 	0 	0
0.062562563 	2e-06 	2e-07 	0 	1 	0 	0
0.062662663 	2e-06 	2e-07 	0 	1 	0 	0
0.062762763 	2e-06 	2e-07 	0 	1 	0 	0
0.062862863 	2e-06 	2e-07 	0 	1 	0 	0
0.062962963 	2e-06 	2e-07 	0 	1 	0 	0
0.063063063 	2e-06 	2e-07 	0 	1 	0 	0
0.063163163 	2e-06 	2e-07 	0 	1 	0 	0
0.063263263 	2e-06 	2e-07 	0 	1 	0 	0
0.063363363 	2e-06 	2e-07 	0 	1 	0 	0
0.063463463 	2e-06 	2e-07 	0 	1 	0 	0
0.063563564 	2e-06 	2e-07 	0 	1 	0 	0
0.063663664 	2e-06 	2e-07 	0 	1 	0 	0
0.063763764 	2e-06 	2e-07 	0 	1 	0 	0
0.063863864 	2e-06 	2e-07 	0 	1 	0 	0
0.063963964 	2e-06 	2e-07 	0 	1 	0 	0
0.064064064 	2e-06 	2e-07 	0 	1 	0 	0
0.064164164 	2e-06 	2e-07 	0 	1 	0 	0
0.064264264 	2e-06 	2e-07 	0 	1 	0 	0
0.064364364 	2e-06 	2e-07 	0 	1 	0 	0
0.064464464 	2e-06 	2e-07 	0 	1 	0 	0
0.064564565 	2e-06 	2e-07 	0 	1 	0 	0
0.064664665 	2e-06 	2e-07 	0 	1 	0 	0
0.064764765 	2e-06 	2e-07 	0 	1 	0 	0
0.064864865 	2e-06 	2e-07 	0 	1 	0 	0
0.064964965 	2e-06 	2e-07 	0 	1 	0 	0
0.065065065 	2e-06 	2e-07 	0 	1 	0 	0
0.065165165 	2e-06 	2e-07 	0 	1 	0 	0
0.065265265 	2e-06 	2e-07 	0 	1 	0 	0
0.065365365 	2e-06 	2e-07 	0 	1 	0 	0
0.065465465 	2e-06 	2e-07 	0 	1 	0 	0
0.065565566 	2e-06 	2e-07 	0 	1 	0 	0
0.065665666 	2e-06 	2e-07 	0 	1 	0 	0
0.065765766 	2e-06 	2e-07 	0 	1 	0 	0
0.065865866 	2e-06 	2e-07 	0 	1 	0 	0
0.065965966 	2e-06 	2e-07 	0 	1 	0 	0
0.066066066 	2e-06 	2e-07 	0 	1 	0 	0
0.066166166 	2e-06 	2e-07 	0 	1 	0 	0
0.066266266 	2e-06 	2e-07 	0 	1 	0 	0
0.066366366 	2e-06 	2e-07 	0 	1 	0 	0
0.066466466 	2e-06 	2e-07 	0 	1 	0 	0
0.066566567 	2e-06 	2e-07 	0 	1 	0 	0
0.066666667 	2e-06 	2e-07 	0 	1 	0 	0
0.066766767 	2e-06 	2e-07 	0 	1 	0 	0
0.066866867 	2e-06 	2e-07 	0 	1 	0 	0
0.066966967 	2e-06 	2e-07 	0 	1 	0 	0
0.067067067 	2e-06 	2e-07 	0 	1 	0 	0
0.067167167 	2e-06 	2e-07 	0 	1 	0 	0
0.067267267 	2e-06 	2e-07 	0 	1 	0 	0
0.067367367 	2e-06 	2e-07 	0 	1 	0 	0
0.067467467 	2e-06 	2e-07 	0 	1 	0 	0
0.067567568 	2e-06 	2e-07 	0 	1 	0 	0
0.067667668 	2e-06 	2e-07 	0 	1 	0 	0
0.067767768 	2e-06 	2e-07 	0 	1 	0 	0
0.067867868 	2e-06 	2e-07 	0 	1 	0 	0
0.067967968 	2e-06 	2e-07 	0 	1 	0 	0
0.068068068 	2e-06 	2e-07 	0 	1 	0 	0
0.068168168 	2e-06 	2e-07 	0 	1 	0 	0
0.068268268 	2e-06 	2e-07 	0 	1 	0 	0
0.068368368 	2e-06 	2e-07 	0 	1 	0 	0
0.068468468 	2e-06 	2e-07 	0 	1 	0 	0
0.068568569 	2e-06 	2e-07 	0 	1 	0 	0
0.068668669 	2e-06 	2e-07 	0 	1 	0 	0
0.068768769 	2e-06 	2e-07 	0 	1 	0 	0
0.068868869 	2e-06 	2e-07 	0 	1 	0 	0
0.068968969 	2e-06 	2e-07 	0 	1 	0 	0
0.069069069 	2e-06 	2e-07 	0 	1 	0 	0
0.069169169 	2e-06 	2e-07 	0 	1 	0 	0
0.069269269 	2e-06 	2e-07 	0 	1 	0 	0
0.069369369 	2e-06 	2e-07 	0 	1 	0 	0
0.069469469 	2e-06 	2e-07 	0 	1 	0 	0
0.06956957 	2e-06 	2e-07 	0 	1 	0 	0
0.06966967 	2e-06 	2e-07 	0 	1 	0 	0
0.06976977 	2e-06 	2e-07 	0 	1 	0 	0
0.06986987 	2e-06 	2e-07 	0 	1 	0 	0
0.06996997 	2e-06 	2e-07 	0 	1 	0 	0
0.07007007 	2e-06 	2e-07 	0 	1 	0 	0
0.07017017 	2e-06 	2e-07 	0 	1 	0 	0
0.07027027 	2e-06 	2e-07 	0 	1 	0 	0
0.07037037 	2e-06 	2e-07 	0 	1 	0 	0
0.07047047 	2e-06 	2e-07 	0 	1 	0 	0
0.070570571 	2e-06 	2e-07 	0 	1 	0 	0
0.070670671 	2e-06 	2e-07 	0 	1 	0 	0
0.070770771 	2e-06 	2e-07 	0 	1 	0 	0
0.070870871 	2e-06 	2e-07 	0 	1 	0 	0
0.070970971 	2e-06 	2e-07 	0 	1 	0 	0
0.071071071 	2e-06 	2e-07 	0 	1 	0 	0
0.071171171 	2e-06 	2e-07 	0 	1 	0 	0
0.071271271 	2e-06 	2e-07 	0 	1 	0 	0
0.071371371 	2e-06 	2e-07 	0 	1 	0 	0
0.071471471 	2e-06 	2e-07 	0 	1 	0 	0
0.071571572 	2e-06 	2e-07 	0 	1 	0 	0
0.071671672 	2e-06 	2e-07 	0 	1 	0 	0
0.071771772 	2e-06 	2e-07 	0 	1 	0 	0
0.071871872 	2e-06 	2e-07 	0 	1 	0 	0
0.071971972 	2e-06 	2e-07 	0 	1 	0 	0
0.072072072 	2e-06 	2e-07 	0 	1 	0 	0
0.072172172 	2e-06 	2e-07 	0 	1 	0 	0
0.072272272 	2e-06 	2e-07 	0 	1 	0 	0
0.072372372 	2e-06 	2e-07 	0 	1 	0 	0
0.072472472 	2e-06 	2e-07 	0 	1 	0 	0
0.072572573 	2e-06 	2e-07 	0 	1 	0 	0
0.072672673 	2e-06 	2e-07 	0 	1 	0 	0
0.072772773 	2e-06 	2e-07 	0 	1 	0 	0
0.072872873 	2e-06 	2e-07 	0 	1 	0 	0
0.072972973 	2e-06 	2e-07 	0 	1 	0 	0
0.073073073 	2e-06 	2e-07 	0 	1 	0 	0
0.073173173 	2e-06 	2e-07 	0 	1 	0 	0
0.073273273 	2e-06 	2e-07 	0 	1 	0 	0
0.073373373 	2e-06 	2e-07 	0 	1 	0 	0
0.073473473 	2e-06 	2e-07 	0 	1 	0 	0
0.073573574 	2e-06 	2e-07 	0 	1 	0 	0
0.073673674 	2e-06 	2e-07 	0 	1 	0 	0
0.073773774 	2e-06 	2e-07 	0 	1 	0 	0
0.073873874 	2e-06 	2e-07 	0 	1 	0 	0
0.073973974 	2e-06 	2e-07 	0 	1 	0 	0
0.074074074 	2e-06 	2e-07 	0 	1 	0 	0
0.074174174 	2e-06 	2e-07 	0 	1 	0 	0
0.074274274 	2e-06 	2e-07 	0 	1 	0 	0
0.074374374 	2e-06 	2e-07 	0 	1 	0 	0
0.074474474 	2e-06 	2e-07 	0 	1 	0 	0
0.074574575 	2e-06 	2e-07 	0 	1 	0 	0
0.074674675 	2e-06 	2e-07 	0 	1 	0 	0
0.074774775 	2e-06 	2e-07 	0 	1 	0 	0
0.074874875 	2e-06 	2e-07 	0 	1 	0 	0
0.074974975 	2e-06 	2e-07 	0 	1 	0 	0
0.075075075 	2e-06 	2e-07 	0 	1 	0 	0
0.075175175 	2e-06 	2e-07 	0 	1 	0 	0
0.075275275 	2e-06 	2e-07 	0 	1 	0 	0
0.075375375 	2e-06 	2e-07 	0 	1 	0 	0
0.075475475 	2e-06 	2e-07 	0 	1 	0 	0
0.075575576 	2e-06 	2e-07 	0 	1 	0 	0
0.075675676 	2e-06 	2e-07 	0 	1 	0 	0
0.075775776 	2e-06 	2e-07 	0 	1 	0 	0
0.075875876 	2e-06 	2e-07 	0 	1 	0 	0
0.075975976 	2e-06 	2e-07 	0 	1 	0 	0
0.076076076 	2e-06 	2e-07 	0 	1 	0 	0
0.076176176 	2e-06 	2e-07 	0 	1 	0 	0
0.076276276 	2e-06 	2e-07 	0 	1 	0 	0
0.076376376 	2e-06 	2e-07 	0 	1 	0 	0
0.076476476 	2e-06 	2e-07 	0 	1 	0 	0
0.076576577 	2e-06 	2e-07 	0 	1 	0 	0
0.076676677 	2e-06 	2e-07 	0 	1 	0 	0
0.076776777 	2e-06 	2e-07 	0 	1 	0 	0
0.076876877 	2e-06 	2e-07 	0 	1 	0 	0
0.076976977 	2e-06 	2e-07 	0 	1 	0 	0
0.077077077 	2e-06 	2e-07 	0 	1 	0 	0
0.077177177 	2e-06 	2e-07 	0 	1 	0 	0
0.077277277 	2e-06 	2e-07 	0 	1 	0 	0
0.077377377 	2e-06 	2e-07 	0 	1 	0 	0
0.077477477 	2e-06 	2e-07 	0 	1 	0 	0
0.077577578 	2e-06 	2e-07 	0 	1 	0 	0
0.077677678 	2e-06 	2e-07 	0 	1 	0 	0
0.077777778 	2e-06 	2e-07 	0 	1 	0 	0
0.077877878 	2e-06 	2e-07 	0 	1 	0 	0
0.077977978 	2e-06 	2e-07 	0 	1 	0 	0
0.078078078 	2e-06 	2e-07 	0 	1 	0 	0
0.078178178 	2e-06 	2e-07 	0 	1 	0 	0
0.078278278 	2e-06 	2e-07 	0 	1 	0 	0
0.078378378 	2e-06 	2e-07 	0 	1 	0 	0
0.078478478 	2e-06 	2e-07 	0 	1 	0 	0
0.078578579 	2e-06 	2e-07 	0 	1 	0 	0
0.078678679 	2e-06 	2e-07 	0 	1 	0 	0
0.078778779 	2e-06 	2e-07 	0 	1 	0 	0
0.078878879 	2e-06 	2e-07 	0 	1 	0 	0