/*--------------------------------*- C++ -*----------------------------------*\
| =========                 |                                                 |
| \\      /  F ield         | OpenFOAM: The Open Source CFD Toolbox           |
|  \\    /   O peration     | Version:  2206                                  |
|   \\  /    A nd           | Website:  www.openfoam.com                      |
|    \\/     M anipulation  |                                                 |
\*---------------------------------------------------------------------------*/
FoamFile
{
    version     2.0;
    format      ascii;
    arch        "LSB;label=32;scalar=64";
    class       volScalarField;
    location    "100";
    object      epsilon;
}
// * * * * * * * * * * * * * * * * * * * * * * * * * * * * * * * * * * * * * //

dimensions      [0 2 -3 0 0 0 0];

internalField   nonuniform List<scalar> 
13056
(
0.0099689136
0.0099688939
0.0099688937
0.0099688948
0.0099688958
0.0099688969
0.0099688981
0.0099688995
0.0099689011
0.0099689028
0.0099689047
0.0099689069
0.0099689092
0.0099689117
0.0099689145
0.0099689174
0.0099689205
0.0099689237
0.0099689272
0.0099689309
0.0099689365
0.0099689424
0.0099689969
0.014509353
20.173176
19.012286
19.068353
19.078477
19.080726
19.081288
19.081588
19.081761
19.081867
19.081921
19.081935
19.081924
19.081897
19.081857
19.081807
19.081751
19.081688
19.08162
19.081549
19.081474
19.081397
19.081317
19.081235
19.081151
19.081066
19.080979
19.080891
19.080802
19.080712
19.080621
19.080529
19.080436
19.080343
19.080249
19.080154
19.08006
19.079964
19.079869
19.079773
19.079677
19.079581
19.079485
19.079388
19.079292
19.079196
19.079099
19.079003
19.078908
19.078812
19.078717
19.078622
19.078527
19.078433
19.078339
19.078246
19.078153
19.078061
19.07797
19.077879
19.077789
19.0777
19.077611
19.077524
19.077437
19.077351
19.077266
19.077182
19.077099
19.077017
19.076936
19.076857
19.076778
19.076701
19.076625
19.07655
19.076476
19.076404
19.076333
19.076263
19.076195
19.076129
19.076063
19.076
19.075938
19.075877
19.075818
19.07576
19.075705
19.07565
19.07563
19.07563
19.07563
19.07563
19.07563
19.07563
19.07563
19.07563
19.07563
19.07563
19.07563
19.07563
19.07563
19.07563
19.07563
19.07563
19.07563
19.07563
19.07563
19.07563
19.07563
19.07563
19.07563
0.0099685912
0.0099685703
0.00996857
0.0099685712
0.0099685723
0.0099685734
0.0099685747
0.0099685762
0.0099685778
0.0099685796
0.0099685816
0.0099685839
0.0099685863
0.009968589
0.0099685918
0.0099685949
0.0099685981
0.0099686014
0.0099686049
0.0099686086
0.0099686137
0.0099686191
0.0099686653
0.014498252
26.408194
25.351106
25.407829
25.416554
25.418442
25.418903
25.419147
25.419284
25.419365
25.4194
25.419402
25.419383
25.419349
25.419305
25.419253
25.419195
25.419131
25.419064
25.418993
25.418919
25.418843
25.418765
25.418685
25.418603
25.41852
25.418436
25.41835
25.418264
25.418177
25.418088
25.417999
25.41791
25.41782
25.417729
25.417638
25.417546
25.417455
25.417362
25.41727
25.417178
25.417085
25.416992
25.416899
25.416807
25.416714
25.416621
25.416529
25.416437
25.416345
25.416253
25.416162
25.416071
25.41598
25.41589
25.4158
25.415711
25.415623
25.415535
25.415447
25.415361
25.415275
25.41519
25.415105
25.415022
25.414939
25.414858
25.414777
25.414697
25.414618
25.414541
25.414464
25.414389
25.414314
25.414241
25.414169
25.414098
25.414029
25.413961
25.413894
25.413829
25.413764
25.413702
25.413641
25.413581
25.413523
25.413466
25.413411
25.413357
25.413305
25.413286
25.413286
25.413286
25.413286
25.413286
25.413286
25.413286
25.413286
25.413286
25.413286
25.413286
25.413286
25.413286
25.413286
25.413286
25.413286
25.413286
25.413286
25.413286
25.413286
25.413286
25.413286
25.413285
0.0099673559
0.0099673314
0.0099673309
0.0099673322
0.0099673335
0.0099673348
0.0099673363
0.009967338
0.0099673398
0.0099673419
0.0099673442
0.0099673468
0.0099673495
0.0099673526
0.0099673558
0.0099673593
0.0099673629
0.0099673667
0.0099673706
0.0099673745
0.0099673796
0.0099673847
0.0099674205
0.014467288
31.183904
30.23486
30.290169
30.297601
30.299171
30.299544
30.29974
30.299847
30.299906
30.299926
30.299919
30.299893
30.299856
30.29981
30.299757
30.299698
30.299636
30.29957
30.299501
30.299429
30.299356
30.299281
30.299204
30.299126
30.299046
30.298966
30.298884
30.298802
30.298718
30.298634
30.29855
30.298464
30.298379
30.298292
30.298206
30.298119
30.298031
30.297944
30.297856
30.297768
30.29768
30.297592
30.297504
30.297416
30.297328
30.29724
30.297153
30.297065
30.296978
30.296891
30.296804
30.296718
30.296632
30.296546
30.296461
30.296377
30.296293
30.296209
30.296127
30.296045
30.295963
30.295882
30.295803
30.295723
30.295645
30.295568
30.295491
30.295415
30.295341
30.295267
30.295195
30.295123
30.295053
30.294983
30.294915
30.294848
30.294782
30.294717
30.294654
30.294592
30.294531
30.294472
30.294414
30.294357
30.294302
30.294248
30.294196
30.294145
30.294096
30.294078
30.294078
30.294078
30.294078
30.294078
30.294078
30.294078
30.294078
30.294078
30.294078
30.294078
30.294078
30.294078
30.294078
30.294078
30.294078
30.294078
30.294078
30.294078
30.294078
30.294078
30.294078
30.294077
0.0099651347
0.0099651034
0.0099651027
0.0099651043
0.0099651058
0.0099651075
0.0099651093
0.0099651113
0.0099651136
0.0099651161
0.0099651189
0.009965122
0.0099651254
0.0099651291
0.0099651331
0.0099651373
0.0099651417
0.0099651463
0.0099651509
0.0099651556
0.009965161
0.0099651664
0.0099651898
0.014414686
34.336617
33.497177
33.549258
33.555511
33.556802
33.557101
33.557256
33.557336
33.557377
33.557386
33.557371
33.557342
33.557303
33.557256
33.557204
33.557147
33.557087
33.557023
33.556958
33.55689
33.55682
33.556749
33.556676
33.556603
33.556528
33.556452
33.556375
33.556298
33.55622
33.556141
33.556062
33.555982
33.555901
33.555821
33.555739
33.555658
33.555576
33.555494
33.555412
33.55533
33.555248
33.555165
33.555083
33.555001
33.554918
33.554836
33.554754
33.554672
33.554591
33.554509
33.554428
33.554348
33.554267
33.554187
33.554108
33.554029
33.553951
33.553873
33.553795
33.553719
33.553642
33.553567
33.553492
33.553418
33.553345
33.553273
33.553201
33.553131
33.553061
33.552992
33.552924
33.552857
33.552792
33.552727
33.552663
33.552601
33.552539
33.552479
33.55242
33.552362
33.552305
33.552249
33.552195
33.552142
33.552091
33.55204
33.551992
33.551944
33.551898
33.551881
33.551881
33.551881
33.551881
33.551881
33.551881
33.551881
33.551881
33.551881
33.551881
33.551881
33.551881
33.551881
33.551881
33.551881
33.551881
33.551881
33.551881
33.551881
33.551881
33.551881
33.551881
33.551881
0.0099618032
0.0099617612
0.0099617598
0.0099617619
0.009961764
0.0099617661
0.0099617684
0.009961771
0.0099617739
0.0099617772
0.0099617808
0.0099617847
0.0099617891
0.0099617938
0.0099617989
0.0099618043
0.0099618099
0.0099618157
0.0099618215
0.0099618273
0.0099618336
0.0099618398
0.0099618476
0.014338747
35.793802
35.062791
35.110229
35.11542
35.116466
35.116702
35.116821
35.11688
35.116906
35.116906
35.116887
35.116855
35.116816
35.11677
35.11672
35.116666
35.116609
35.116549
35.116488
35.116425
35.11636
35.116294
35.116226
35.116158
35.116089
35.116019
35.115948
35.115876
35.115804
35.115731
35.115658
35.115584
35.11551
35.115436
35.115361
35.115286
35.11521
35.115135
35.115059
35.114984
35.114908
35.114832
35.114756
35.11468
35.114604
35.114529
35.114453
35.114378
35.114303
35.114228
35.114153
35.114079
35.114005
35.113931
35.113858
35.113786
35.113713
35.113642
35.11357
35.1135
35.11343
35.11336
35.113292
35.113224
35.113156
35.11309
35.113024
35.112959
35.112895
35.112831
35.112769
35.112707
35.112647
35.112587
35.112528
35.112471
35.112414
35.112359
35.112304
35.112251
35.112199
35.112148
35.112098
35.112049
35.112002
35.111955
35.11191
35.111867
35.111824
35.111809
35.111809
35.111809
35.111809
35.111809
35.111809
35.111809
35.111809
35.111809
35.111809
35.111809
35.111809
35.111809
35.111809
35.111809
35.111809
35.111809
35.111809
35.111809
35.111809
35.111809
35.111809
35.111808
0.0099571809
0.0099571228
0.0099571204
0.0099571232
0.0099571259
0.0099571286
0.0099571317
0.0099571352
0.009957139
0.0099571433
0.0099571481
0.0099571533
0.009957159
0.0099571652
0.0099571719
0.009957179
0.0099571864
0.009957194
0.0099572016
0.0099572091
0.0099572169
0.0099572244
0.0099572116
0.014237912
35.581968
34.955605
34.997415
35.00166
35.002494
35.002677
35.002767
35.002808
35.002822
35.002815
35.002793
35.002761
35.002723
35.002679
35.002632
35.002582
35.002529
35.002474
35.002417
35.00236
35.0023
35.00224
35.002178
35.002116
35.002053
35.001989
35.001925
35.00186
35.001794
35.001728
35.001661
35.001594
35.001527
35.001459
35.001392
35.001323
35.001255
35.001187
35.001118
35.001049
35.00098
35.000912
35.000843
35.000774
35.000705
35.000637
35.000568
35.0005
35.000432
35.000364
35.000296
35.000229
35.000162
35.000095
35.000029
34.999963
34.999898
34.999833
34.999768
34.999704
34.999641
34.999578
34.999515
34.999454
34.999393
34.999332
34.999273
34.999214
34.999155
34.999098
34.999041
34.998986
34.998931
34.998877
34.998824
34.998771
34.99872
34.99867
34.99862
34.998572
34.998525
34.998479
34.998433
34.998389
34.998346
34.998304
34.998263
34.998224
34.998185
34.998171
34.998171
34.998171
34.998171
34.998171
34.998171
34.998171
34.998171
34.998171
34.998171
34.998171
34.998171
34.998171
34.998171
34.998171
34.998171
34.998171
34.998171
34.998171
34.998171
34.998171
34.998171
34.998171
0.0099510241
0.0099509421
0.0099509381
0.0099509419
0.0099509455
0.0099509493
0.0099509534
0.009950958
0.0099509632
0.0099509689
0.0099509753
0.0099509823
0.00995099
0.0099509983
0.0099510073
0.0099510168
0.0099510267
0.0099510368
0.009951047
0.0099510569
0.0099510669
0.0099510764
0.009951036
0.014110894
33.831628
33.303367
33.339004
33.342419
33.343069
33.343208
33.343273
33.343299
33.343304
33.343293
33.34327
33.343238
33.343202
33.343161
33.343118
33.343072
33.343024
33.342974
33.342923
33.342871
33.342818
33.342763
33.342708
33.342652
33.342596
33.342538
33.342481
33.342422
33.342364
33.342304
33.342245
33.342185
33.342125
33.342064
33.342004
33.341943
33.341882
33.341821
33.341759
33.341698
33.341636
33.341575
33.341513
33.341452
33.341391
33.341329
33.341268
33.341207
33.341146
33.341086
33.341025
33.340965
33.340905
33.340846
33.340787
33.340728
33.340669
33.340611
33.340553
33.340496
33.34044
33.340383
33.340328
33.340273
33.340218
33.340164
33.340111
33.340058
33.340006
33.339955
33.339905
33.339855
33.339806
33.339757
33.33971
33.339663
33.339618
33.339573
33.339529
33.339485
33.339443
33.339402
33.339361
33.339322
33.339284
33.339246
33.33921
33.339174
33.33914
33.339127
33.339127
33.339127
33.339127
33.339127
33.339127
33.339127
33.339127
33.339127
33.339127
33.339127
33.339127
33.339127
33.339127
33.339127
33.339127
33.339127
33.339127
33.339127
33.339127
33.339127
33.339127
33.339127
0.0099430166
0.0099428999
0.0099428931
0.0099428983
0.0099429033
0.0099429084
0.009942914
0.0099429202
0.0099429272
0.009942935
0.0099429436
0.0099429531
0.0099429635
0.0099429748
0.0099429868
0.0099429997
0.009943013
0.0099430267
0.0099430404
0.0099430538
0.0099430669
0.0099430794
0.0099430014
0.013956843
30.774732
30.335768
30.365124
30.367824
30.368318
30.368419
30.368463
30.368478
30.368477
30.368463
30.368439
30.368409
30.368375
30.368338
30.368299
30.368257
30.368214
30.36817
30.368124
30.368078
30.368031
30.367982
30.367934
30.367884
30.367834
30.367783
30.367732
30.367681
30.367629
30.367577
30.367524
30.367472
30.367418
30.367365
30.367312
30.367258
30.367204
30.36715
30.367096
30.367042
30.366988
30.366933
30.366879
30.366825
30.366771
30.366717
30.366663
30.366609
30.366556
30.366502
30.366449
30.366396
30.366343
30.366291
30.366238
30.366186
30.366135
30.366084
30.366033
30.365982
30.365932
30.365883
30.365834
30.365785
30.365737
30.36569
30.365643
30.365596
30.36555
30.365505
30.365461
30.365417
30.365374
30.365331
30.365289
30.365248
30.365208
30.365168
30.365129
30.365091
30.365054
30.365017
30.364982
30.364947
30.364913
30.36488
30.364848
30.364817
30.364786
30.364775
30.364775
30.364775
30.364775
30.364775
30.364775
30.364775
30.364775
30.364775
30.364775
30.364775
30.364775
30.364775
30.364775
30.364775
30.364775
30.364775
30.364775
30.364775
30.364775
30.364775
30.364775
30.364775
0.0099327581
0.0099325913
0.00993258
0.0099325871
0.009932594
0.0099326009
0.0099326085
0.009932617
0.0099326265
0.0099326371
0.0099326488
0.0099326617
0.0099326758
0.0099326911
0.0099327075
0.0099327248
0.009932743
0.0099327615
0.0099327801
0.0099327981
0.0099328155
0.0099328322
0.0099327032
0.01377554
26.733679
26.37302
26.396384
26.398481
26.398844
26.398914
26.398942
26.398948
26.398941
26.398925
26.398902
26.398874
26.398843
26.398809
26.398774
26.398737
26.398699
26.39866
26.39862
26.398579
26.398537
26.398495
26.398452
26.398409
26.398365
26.398321
26.398276
26.398231
26.398185
26.39814
26.398094
26.398048
26.398001
26.397955
26.397908
26.397861
26.397814
26.397767
26.397719
26.397672
26.397625
26.397577
26.39753
26.397483
26.397435
26.397388
26.397341
26.397294
26.397247
26.3972
26.397154
26.397108
26.397061
26.397016
26.39697
26.396925
26.396879
26.396835
26.39679
26.396746
26.396703
26.396659
26.396616
26.396574
26.396532
26.39649
26.396449
26.396409
26.396369
26.396329
26.39629
26.396252
26.396214
26.396177
26.39614
26.396104
26.396069
26.396034
26.396
26.395967
26.395934
26.395902
26.395871
26.395841
26.395811
26.395782
26.395754
26.395727
26.3957
26.395691
26.39569
26.39569
26.39569
26.39569
26.39569
26.39569
26.39569
26.39569
26.39569
26.39569
26.39569
26.39569
26.39569
26.39569
26.39569
26.39569
26.39569
26.39569
26.39569
26.39569
26.395691
26.39569
0.009919751
0.0099195119
0.0099194935
0.009919503
0.0099195125
0.009919522
0.0099195324
0.0099195439
0.0099195569
0.0099195712
0.0099195871
0.0099196046
0.0099196238
0.0099196445
0.0099196667
0.0099196903
0.0099197149
0.0099197401
0.0099197653
0.0099197897
0.009919813
0.0099198354
0.0099196371
0.013567581
22.097731
21.802759
21.820757
21.822365
21.82262
21.822664
21.822679
21.822678
21.822667
21.82265
21.822627
21.822601
21.822573
21.822543
21.822511
21.822479
21.822445
21.82241
21.822375
21.822339
21.822303
21.822266
21.822228
21.82219
21.822152
21.822113
21.822074
21.822035
21.821995
21.821955
21.821915
21.821875
21.821834
21.821794
21.821753
21.821712
21.821671
21.82163
21.821588
21.821547
21.821506
21.821465
21.821423
21.821382
21.821341
21.821299
21.821258
21.821217
21.821176
21.821136
21.821095
21.821055
21.821014
21.820974
21.820934
21.820895
21.820855
21.820816
21.820778
21.820739
21.820701
21.820663
21.820626
21.820589
21.820552
21.820516
21.82048
21.820444
21.820409
21.820375
21.820341
21.820307
21.820274
21.820242
21.82021
21.820178
21.820147
21.820117
21.820087
21.820058
21.82003
21.820002
21.819975
21.819948
21.819922
21.819897
21.819872
21.819848
21.819825
21.819817
21.819817
21.819817
21.819817
21.819817
21.819817
21.819817
21.819817
21.819817
21.819817
21.819817
21.819817
21.819817
21.819817
21.819817
21.819817
21.819817
21.819817
21.819817
21.819817
21.819817
21.819817
21.819816
0.009903384
0.0099030411
0.0099030115
0.0099030244
0.0099030374
0.0099030503
0.0099030644
0.0099030801
0.0099030976
0.0099031171
0.0099031387
0.0099031624
0.0099031883
0.0099032164
0.0099032466
0.0099032785
0.0099033118
0.0099033459
0.00990338
0.0099034131
0.0099034445
0.0099034748
0.0099031829
0.013334538
17.287659
17.044843
17.058361
17.059592
17.05976
17.059784
17.059788
17.059781
17.059768
17.059749
17.059728
17.059703
17.059677
17.05965
17.059621
17.059592
17.059562
17.059531
17.0595
17.059468
17.059436
17.059403
17.05937
17.059337
17.059303
17.059269
17.059234
17.0592
17.059165
17.05913
17.059094
17.059059
17.059023
17.058987
17.058951
17.058915
17.058879
17.058843
17.058806
17.05877
17.058734
17.058697
17.058661
17.058625
17.058588
17.058552
17.058516
17.05848
17.058444
17.058408
17.058372
17.058336
17.058301
17.058265
17.05823
17.058195
17.058161
17.058126
17.058092
17.058058
17.058024
17.057991
17.057958
17.057925
17.057893
17.057861
17.057829
17.057798
17.057767
17.057737
17.057707
17.057677
17.057648
17.057619
17.057591
17.057563
17.057536
17.057509
17.057483
17.057457
17.057432
17.057407
17.057383
17.05736
17.057337
17.057314
17.057293
17.057272
17.057251
17.057244
17.057243
17.057243
17.057243
17.057243
17.057243
17.057243
17.057243
17.057243
17.057243
17.057243
17.057243
17.057243
17.057243
17.057243
17.057243
17.057243
17.057243
17.057243
17.057243
17.057243
17.057243
17.057243
0.0098829151
0.0098824238
0.0098823766
0.0098823937
0.0098824116
0.0098824291
0.0098824481
0.0098824693
0.0098824931
0.0098825194
0.0098825486
0.0098825807
0.0098826157
0.0098826537
0.0098826944
0.0098827375
0.0098827825
0.0098828286
0.0098828746
0.0098829193
0.0098829615
0.0098830025
0.0098825852
0.013079028
12.710019
12.505987
12.516019
12.516979
12.517081
12.517089
12.517085
12.517073
12.517058
12.517039
12.517017
12.516994
12.51697
12.516944
12.516918
12.516892
12.516864
12.516836
12.516808
12.516779
12.51675
12.51672
12.516691
12.51666
12.51663
12.516599
12.516568
12.516537
12.516506
12.516474
12.516442
12.51641
12.516378
12.516346
12.516314
12.516281
12.516249
12.516216
12.516183
12.516151
12.516118
12.516085
12.516052
12.51602
12.515987
12.515954
12.515922
12.515889
12.515857
12.515824
12.515792
12.51576
12.515728
12.515696
12.515665
12.515633
12.515602
12.515571
12.51554
12.515509
12.515479
12.515449
12.515419
12.51539
12.51536
12.515332
12.515303
12.515275
12.515247
12.515219
12.515192
12.515165
12.515139
12.515113
12.515088
12.515063
12.515038
12.515014
12.51499
12.514967
12.514944
12.514922
12.5149
12.514879
12.514858
12.514838
12.514818
12.514799
12.514781
12.514774
12.514774
12.514774
12.514774
12.514774
12.514774
12.514774
12.514774
12.514774
12.514774
12.514774
12.514774
12.514774
12.514774
12.514774
12.514774
12.514774
12.514774
12.514774
12.514774
12.514774
12.514774
12.514773
0.0098574521
0.0098567496
0.009856675
0.0098566974
0.0098567217
0.0098567453
0.0098567709
0.0098567995
0.0098568315
0.009856867
0.0098569062
0.0098569494
0.0098569966
0.0098570477
0.0098571024
0.0098571604
0.009857221
0.0098572829
0.0098573449
0.0098574051
0.0098574617
0.0098575171
0.0098569332
0.012804652
8.7061946
8.5290941
8.5365593
8.5373455
8.5374008
8.5373963
8.5373858
8.5373709
8.5373535
8.5373339
8.5373126
8.5372902
8.5372669
8.5372429
8.5372183
8.5371932
8.5371676
8.5371416
8.5371152
8.5370884
8.5370613
8.5370339
8.5370062
8.5369782
8.53695
8.5369215
8.5368928
8.5368639
8.5368348
8.5368056
8.5367761
8.5367465
8.5367168
8.5366869
8.536657
8.5366269
8.5365968
8.5365666
8.5365363
8.536506
8.5364756
8.5364453
8.5364149
8.5363845
8.5363542
8.5363239
8.5362936
8.5362635
8.5362333
8.5362033
8.5361734
8.5361436
8.5361139
8.5360844
8.536055
8.5360258
8.5359967
8.5359679
8.5359392
8.5359108
8.5358826
8.5358546
8.5358269
8.5357995
8.5357723
8.5357454
8.5357189
8.5356926
8.5356666
8.535641
8.5356158
8.5355909
8.5355664
8.5355422
8.5355185
8.5354951
8.5354722
8.5354496
8.5354275
8.5354059
8.5353847
8.5353639
8.5353437
8.5353239
8.5353046
8.5352858
8.5352675
8.5352497
8.5352323
8.5352257
8.5352255
8.5352255
8.5352255
8.5352255
8.5352255
8.5352255
8.5352255
8.5352255
8.5352255
8.5352255
8.5352255
8.5352255
8.5352255
8.5352255
8.5352255
8.5352255
8.5352255
8.5352255
8.5352255
8.5352255
8.5352255
8.5352254
0.009825933
0.009824931
0.0098248141
0.009824843
0.0098248759
0.0098249076
0.0098249419
0.0098249802
0.009825023
0.0098250705
0.0098251231
0.009825181
0.0098252441
0.0098253125
0.0098253858
0.0098254634
0.0098255444
0.0098256273
0.0098257103
0.009825791
0.0098258668
0.0098259415
0.0098251383
0.012515756
5.5047901
5.3457261
5.35134
5.352032
5.3520573
5.3520441
5.3520291
5.3520119
5.3519931
5.351973
5.3519518
5.3519298
5.3519071
5.3518839
5.3518603
5.3518362
5.3518117
5.3517868
5.3517616
5.3517361
5.3517103
5.3516842
5.3516579
5.3516312
5.3516044
5.3515773
5.3515501
5.3515226
5.3514949
5.3514671
5.3514391
5.351411
5.3513827
5.3513544
5.3513259
5.3512973
5.3512686
5.3512399
5.3512111
5.3511822
5.3511534
5.3511245
5.3510956
5.3510667
5.3510378
5.3510089
5.3509801
5.3509514
5.3509227
5.3508941
5.3508656
5.3508372
5.3508089
5.3507807
5.3507527
5.3507248
5.3506971
5.3506696
5.3506423
5.3506152
5.3505882
5.3505616
5.3505351
5.3505089
5.350483
5.3504573
5.3504319
5.3504068
5.350382
5.3503576
5.3503334
5.3503096
5.3502862
5.3502631
5.3502403
5.350218
5.3501961
5.3501745
5.3501534
5.3501326
5.3501124
5.3500925
5.3500731
5.3500541
5.3500356
5.3500176
5.3500001
5.3499831
5.3499665
5.34996
5.3499597
5.3499597
5.3499597
5.3499597
5.3499597
5.3499597
5.3499597
5.3499597
5.3499597
5.3499597
5.3499597
5.3499597
5.3499597
5.3499597
5.3499597
5.3499597
5.3499597
5.3499597
5.3499598
5.3499597
5.3499597
5.3499597
0.0097871064
0.0097856818
0.0097855004
0.0097855367
0.0097855808
0.0097856231
0.0097856687
0.0097857197
0.0097857766
0.00978584
0.0097859101
0.0097859871
0.0097860711
0.0097861621
0.0097862597
0.009786363
0.0097864707
0.0097865811
0.0097866917
0.0097867993
0.0097869002
0.0097870006
0.0097859123
0.012217
3.1893116
3.0436342
3.0478299
3.0484812
3.0484913
3.0484727
3.0484551
3.0484367
3.0484173
3.0483971
3.0483762
3.0483547
3.0483327
3.0483102
3.0482874
3.0482642
3.0482406
3.0482168
3.0481926
3.0481681
3.0481433
3.0481183
3.0480931
3.0480676
3.0480419
3.0480159
3.0479898
3.0479635
3.047937
3.0479103
3.0478835
3.0478566
3.0478295
3.0478023
3.0477749
3.0477475
3.0477201
3.0476925
3.0476649
3.0476372
3.0476095
3.0475818
3.047554
3.0475263
3.0474986
3.0474709
3.0474432
3.0474156
3.0473881
3.0473606
3.0473332
3.0473059
3.0472787
3.0472516
3.0472247
3.0471979
3.0471712
3.0471448
3.0471185
3.0470924
3.0470665
3.0470408
3.0470153
3.0469901
3.0469651
3.0469404
3.0469159
3.0468917
3.0468678
3.0468443
3.046821
3.046798
3.0467754
3.0467532
3.0467312
3.0467097
3.0466885
3.0466677
3.0466473
3.0466273
3.0466077
3.0465886
3.0465698
3.0465515
3.0465337
3.0465163
3.0464993
3.0464829
3.0464668
3.0464605
3.0464601
3.0464601
3.0464601
3.0464601
3.0464601
3.0464601
3.0464601
3.0464601
3.0464601
3.0464601
3.0464601
3.0464601
3.0464601
3.0464601
3.0464601
3.0464601
3.0464601
3.0464601
3.0464601
3.0464601
3.0464601
3.04646
0.0097395135
0.009737496
0.0097372168
0.0097372609
0.0097373195
0.0097373755
0.0097374357
0.0097375031
0.0097375784
0.0097376622
0.0097377549
0.0097378568
0.009737968
0.0097380884
0.0097382174
0.0097383539
0.0097384965
0.0097386425
0.0097387888
0.0097389315
0.0097390652
0.0097391996
0.0097377454
0.011912787
1.6948794
1.5626001
1.5655875
1.5662178
1.5662245
1.5662036
1.5661853
1.5661669
1.5661481
1.5661286
1.5661087
1.5660883
1.5660675
1.5660464
1.5660248
1.566003
1.5659809
1.5659584
1.5659357
1.5659127
1.5658894
1.5658659
1.5658422
1.5658183
1.5657941
1.5657697
1.5657452
1.5657205
1.5656956
1.5656705
1.5656453
1.56562
1.5655945
1.5655689
1.5655432
1.5655175
1.5654916
1.5654657
1.5654397
1.5654137
1.5653876
1.5653615
1.5653354
1.5653093
1.5652832
1.5652571
1.565231
1.565205
1.565179
1.5651531
1.5651273
1.5651016
1.5650759
1.5650504
1.565025
1.5649997
1.5649746
1.5649496
1.5649248
1.5649001
1.5648757
1.5648514
1.5648274
1.5648035
1.5647799
1.5647566
1.5647334
1.5647106
1.564688
1.5646657
1.5646437
1.564622
1.5646006
1.5645796
1.5645588
1.5645384
1.5645184
1.5644987
1.5644794
1.5644605
1.5644419
1.5644238
1.564406
1.5643887
1.5643718
1.5643553
1.5643392
1.5643236
1.5643084
1.5643022
1.5643018
1.5643018
1.5643018
1.5643018
1.5643018
1.5643018
1.5643018
1.5643018
1.5643018
1.5643018
1.5643018
1.5643018
1.5643018
1.5643018
1.5643018
1.5643018
1.5643018
1.5643018
1.5643018
1.5643018
1.5643018
1.5643017
0.0096814742
0.0096786292
0.0096782033
0.0096782544
0.0096783313
0.0096784047
0.0096784836
0.0096785719
0.0096786709
0.009678781
0.0096789028
0.0096790367
0.0096791828
0.0096793409
0.0096795103
0.0096796896
0.0096798768
0.0096800688
0.0096802611
0.009680449
0.0096806251
0.009680804
0.0096788876
0.011606678
0.84372167
0.72823444
0.73015876
0.73075488
0.7307653
0.73074488
0.73072764
0.7307108
0.73069366
0.73067611
0.73065816
0.73063985
0.7306212
0.73060222
0.73058294
0.73056336
0.73054351
0.7305234
0.73050303
0.73048242
0.73046159
0.73044053
0.73041926
0.73039779
0.73037613
0.73035429
0.73033228
0.7303101
0.73028777
0.73026529
0.73024268
0.73021994
0.73019709
0.73017413
0.73015107
0.73012793
0.73010471
0.73008142
0.73005808
0.73003469
0.73001126
0.7299878
0.72996433
0.72994085
0.72991737
0.72989392
0.72987048
0.72984708
0.72982372
0.72980042
0.72977718
0.72975401
0.72973093
0.72970794
0.72968506
0.72966229
0.72963965
0.72961714
0.72959477
0.72957256
0.72955051
0.72952864
0.72950695
0.72948546
0.72946417
0.72944309
0.72942224
0.72940162
0.72938124
0.72936111
0.72934124
0.72932165
0.72930233
0.7292833
0.72926457
0.72924615
0.72922804
0.72921025
0.72919279
0.72917567
0.72915891
0.72914249
0.72912644
0.72911076
0.72909546
0.72908055
0.72906603
0.72905192
0.72903812
0.72903242
0.72903199
0.72903195
0.72903194
0.72903194
0.72903194
0.72903194
0.72903194
0.72903194
0.72903194
0.72903194
0.72903194
0.72903194
0.72903194
0.72903194
0.72903194
0.72903194
0.72903194
0.72903194
0.72903194
0.72903194
0.72903194
0.72903187
0.0096110784
0.009607086
0.0096064419
0.0096064969
0.0096065964
0.0096066916
0.009606794
0.0096069089
0.0096070377
0.0096071813
0.0096073402
0.0096075149
0.0096077054
0.0096079115
0.0096081324
0.0096083662
0.0096086104
0.0096088608
0.0096091119
0.0096093577
0.009609588
0.0096098249
0.0096073355
0.011300965
0.41453872
0.31946891
0.32054362
0.32107403
0.32109032
0.32107249
0.32105758
0.32104329
0.32102882
0.32101405
0.32099896
0.32098357
0.32096788
0.32095192
0.32093569
0.32091922
0.32090251
0.32088557
0.32086842
0.32085106
0.3208335
0.32081576
0.32079783
0.32077974
0.32076148
0.32074306
0.3207245
0.32070579
0.32068695
0.32066799
0.32064891
0.32062972
0.32061043
0.32059104
0.32057158
0.32055203
0.32053242
0.32051275
0.32049302
0.32047326
0.32045346
0.32043363
0.32041378
0.32039393
0.32037407
0.32035424
0.32033442
0.32031463
0.32029487
0.32027515
0.32025548
0.32023587
0.32021633
0.32019686
0.32017748
0.3201582
0.32013902
0.32011994
0.32010099
0.32008217
0.32006348
0.32004493
0.32002654
0.32000832
0.31999026
0.31997237
0.31995468
0.31993718
0.31991988
0.31990279
0.31988593
0.31986929
0.31985288
0.31983672
0.31982081
0.31980515
0.31978976
0.31977465
0.31975981
0.31974526
0.319731
0.31971705
0.3197034
0.31969006
0.31967705
0.31966437
0.31965201
0.31964001
0.31962825
0.31962329
0.31962284
0.31962279
0.31962278
0.31962278
0.31962278
0.31962278
0.31962278
0.31962277
0.31962277
0.31962277
0.31962277
0.31962277
0.31962277
0.31962277
0.31962277
0.31962277
0.31962277
0.31962277
0.31962277
0.31962277
0.31962278
0.31962272
0.0095261878
0.0095206147
0.0095196494
0.0095197009
0.0095198275
0.0095199496
0.0095200811
0.0095202291
0.0095203955
0.0095205812
0.0095207868
0.0095210128
0.0095212594
0.0095215261
0.0095218118
0.0095221144
0.0095224304
0.0095227546
0.0095230801
0.0095233992
0.0095236985
0.0095240099
0.0095208269
0.010996502
0.21630549
0.14227977
0.14278247
0.14322271
0.14324301
0.14322868
0.14321661
0.14320519
0.1431937
0.14318197
0.14316998
0.14315774
0.14314527
0.14313256
0.14311963
0.1431065
0.14309318
0.14307967
0.14306599
0.14305213
0.14303812
0.14302395
0.14300963
0.14299518
0.14298059
0.14296588
0.14295104
0.14293609
0.14292104
0.14290587
0.14289062
0.14287527
0.14285984
0.14284433
0.14282876
0.14281312
0.14279742
0.14278167
0.14276588
0.14275005
0.1427342
0.14271832
0.14270242
0.14268651
0.1426706
0.14265471
0.14263883
0.14262297
0.14260714
0.14259133
0.14257556
0.14255984
0.14254417
0.14252855
0.14251301
0.14249754
0.14248214
0.14246684
0.14245162
0.14243651
0.14242151
0.14240661
0.14239184
0.1423772
0.14236269
0.14234832
0.1423341
0.14232004
0.14230613
0.14229239
0.14227883
0.14226545
0.14225225
0.14223925
0.14222645
0.14221386
0.14220147
0.14218931
0.14217737
0.14216565
0.14215417
0.14214294
0.14213195
0.14212121
0.14211073
0.14210051
0.14209056
0.14208089
0.1420714
0.14206732
0.14206688
0.14206683
0.14206682
0.14206681
0.14206681
0.14206681
0.14206681
0.14206681
0.14206681
0.14206681
0.14206681
0.14206681
0.14206681
0.14206681
0.14206681
0.14206681
0.14206681
0.14206681
0.14206681
0.14206681
0.14206681
0.14206676
0.0094244502
0.0094167152
0.0094152812
0.0094153151
0.0094154727
0.009415627
0.0094157939
0.0094159826
0.0094161956
0.0094164336
0.0094166974
0.0094169875
0.0094173039
0.0094176462
0.009418013
0.0094184014
0.009418807
0.0094192235
0.009419642
0.0094200532
0.0094204391
0.0094208458
0.0094168484
0.010692793
0.12651399
0.070544449
0.070710226
0.071062328
0.071083601
0.071072507
0.071062976
0.071054054
0.071045108
0.071035985
0.071026656
0.071017122
0.071007391
0.070997472
0.070987376
0.070977113
0.070966693
0.070956123
0.07094541
0.070934563
0.070923587
0.070912488
0.070901273
0.070889946
0.070878514
0.07086698
0.07085535
0.070843627
0.070831818
0.070819926
0.070807957
0.070795917
0.070783809
0.07077164
0.070759414
0.070747137
0.070734814
0.07072245
0.070710049
0.070697618
0.070685161
0.070672684
0.070660192
0.070647691
0.070635192
0.070622707
0.070610228
0.070597762
0.070585312
0.070572886
0.070560488
0.070548123
0.070535797
0.070523517
0.070511287
0.070499113
0.070487001
0.070474955
0.070462981
0.070451084
0.070439269
0.070427544
0.070415911
0.070404378
0.070392948
0.070381629
0.070370424
0.07035934
0.07034838
0.070337552
0.07032686
0.070316309
0.070305906
0.070295654
0.070285558
0.070275623
0.070265855
0.070256257
0.070246835
0.070237593
0.070228535
0.070219667
0.070210992
0.070202515
0.070194241
0.070186174
0.070178317
0.070170681
0.070163186
0.070159889
0.070159493
0.070159436
0.070159424
0.07015942
0.070159418
0.070159417
0.070159416
0.070159416
0.070159415
0.070159415
0.070159415
0.070159415
0.070159415
0.070159415
0.070159415
0.070159415
0.070159415
0.070159415
0.070159415
0.070159415
0.070159416
0.070159381
0.009303331
0.0092926622
0.009290551
0.009290542
0.0092907328
0.0092909245
0.0092911335
0.0092913714
0.0092916412
0.0092919434
0.0092922789
0.0092926479
0.0092930506
0.0092934863
0.009293953
0.0092944473