/*--------------------------------*- C++ -*----------------------------------*\
| =========                 |                                                 |
| \\      /  F ield         | OpenFOAM: The Open Source CFD Toolbox           |
|  \\    /   O peration     | Version:  2206                                  |
|   \\  /    A nd           | Website:  www.openfoam.com                      |
|    \\/     M anipulation  |                                                 |
\*---------------------------------------------------------------------------*/
FoamFile
{
    version     2.0;
    format      ascii;
    arch        "LSB;label=32;scalar=64";
    class       volScalarField;
    location    "100";
    object      k;
}
// * * * * * * * * * * * * * * * * * * * * * * * * * * * * * * * * * * * * * //

dimensions      [0 2 -2 0 0 0 0];

internalField   nonuniform List<scalar> 
13056
(
0.00014965572
0.00014965412
0.00014965427
0.0001496543
0.00014965432
0.00014965433
0.00014965435
0.00014965437
0.00014965439
0.00014965441
0.00014965444
0.00014965447
0.0001496545
0.00014965453
0.00014965457
0.00014965461
0.00014965464
0.00014965469
0.00014965473
0.00014965476
0.0001496548
0.00014965483
0.00014965483
0.0001496421
0.0013354744
0.00128232
0.0012848742
0.0012853456
0.0012854509
0.0012854774
0.0012854914
0.0012854995
0.0012855046
0.0012855072
0.0012855079
0.0012855074
0.0012855062
0.0012855044
0.0012855022
0.0012854996
0.0012854967
0.0012854936
0.0012854903
0.0012854869
0.0012854834
0.0012854797
0.0012854759
0.0012854721
0.0012854682
0.0012854642
0.0012854601
0.001285456
0.0012854519
0.0012854477
0.0012854434
0.0012854392
0.0012854349
0.0012854306
0.0012854262
0.0012854218
0.0012854175
0.0012854131
0.0012854087
0.0012854042
0.0012853998
0.0012853954
0.0012853909
0.0012853865
0.0012853821
0.0012853776
0.0012853732
0.0012853688
0.0012853644
0.00128536
0.0012853556
0.0012853513
0.0012853469
0.0012853426
0.0012853383
0.0012853341
0.0012853298
0.0012853256
0.0012853214
0.0012853173
0.0012853132
0.0012853091
0.0012853051
0.0012853011
0.0012852971
0.0012852932
0.0012852893
0.0012852855
0.0012852817
0.001285278
0.0012852743
0.0012852707
0.0012852671
0.0012852636
0.0012852602
0.0012852568
0.0012852535
0.0012852502
0.001285247
0.0012852439
0.0012852408
0.0012852378
0.0012852348
0.001285232
0.0012852292
0.0012852265
0.0012852238
0.0012852212
0.0012852187
0.0012852178
0.0012852178
0.0012852178
0.0012852178
0.0012852178
0.0012852178
0.0012852178
0.0012852178
0.0012852178
0.0012852178
0.0012852178
0.0012852178
0.0012852178
0.0012852178
0.0012852178
0.0012852178
0.0012852178
0.0012852178
0.0012852178
0.0012852178
0.0012852178
0.0012852178
0.0012852178
0.00014965211
0.00014965042
0.00014965058
0.00014965061
0.00014965063
0.00014965064
0.00014965066
0.00014965068
0.0001496507
0.00014965073
0.00014965075
0.00014965078
0.00014965082
0.00014965085
0.00014965089
0.00014965093
0.00014965097
0.00014965101
0.00014965106
0.0001496511
0.00014965113
0.00014965117
0.00014965117
0.00014963847
0.0013705136
0.0013257386
0.0013282364
0.0013286155
0.0013286984
0.0013287188
0.0013287297
0.0013287359
0.0013287396
0.0013287414
0.0013287416
0.001328741
0.0013287397
0.001328738
0.0013287359
0.0013287336
0.001328731
0.0013287283
0.0013287254
0.0013287224
0.0013287193
0.0013287161
0.0013287128
0.0013287094
0.001328706
0.0013287026
0.001328699
0.0013286955
0.0013286919
0.0013286883
0.0013286846
0.0013286809
0.0013286772
0.0013286734
0.0013286697
0.0013286659
0.0013286621
0.0013286583
0.0013286545
0.0013286507
0.0013286469
0.001328643
0.0013286392
0.0013286354
0.0013286316
0.0013286277
0.0013286239
0.0013286201
0.0013286163
0.0013286125
0.0013286087
0.001328605
0.0013286012
0.0013285975
0.0013285938
0.0013285901
0.0013285865
0.0013285828
0.0013285792
0.0013285757
0.0013285721
0.0013285686
0.0013285651
0.0013285617
0.0013285583
0.0013285549
0.0013285515
0.0013285483
0.001328545
0.0013285418
0.0013285386
0.0013285355
0.0013285324
0.0013285294
0.0013285264
0.0013285235
0.0013285206
0.0013285178
0.0013285151
0.0013285124
0.0013285097
0.0013285071
0.0013285046
0.0013285021
0.0013284997
0.0013284974
0.0013284951
0.0013284929
0.0013284907
0.0013284899
0.0013284899
0.0013284899
0.0013284899
0.0013284899
0.0013284899
0.0013284899
0.0013284899
0.0013284899
0.0013284899
0.0013284899
0.0013284899
0.0013284899
0.0013284899
0.0013284899
0.0013284899
0.0013284899
0.0013284899
0.0013284899
0.0013284899
0.0013284899
0.0013284899
0.0013284899
0.00014963834
0.00014963634
0.00014963651
0.00014963655
0.00014963657
0.00014963659
0.00014963661
0.00014963663
0.00014963666
0.00014963669
0.00014963672
0.00014963675
0.00014963679
0.00014963683
0.00014963687
0.00014963692
0.00014963697
0.00014963702
0.00014963707
0.00014963711
0.00014963716
0.00014963719
0.0001496372
0.00014962373
0.0013534703
0.0013164445
0.0013187949
0.0013190935
0.0013191574
0.0013191728
0.001319181
0.0013191856
0.0013191882
0.0013191893
0.0013191893
0.0013191885
0.0013191873
0.0013191857
0.0013191838
0.0013191818
0.0013191795
0.0013191771
0.0013191746
0.001319172
0.0013191693
0.0013191666
0.0013191638
0.0013191609
0.001319158
0.001319155
0.001319152
0.001319149
0.0013191459
0.0013191428
0.0013191397
0.0013191365
0.0013191334
0.0013191302
0.001319127
0.0013191238
0.0013191205
0.0013191173
0.0013191141
0.0013191108
0.0013191076
0.0013191043
0.001319101
0.0013190978
0.0013190945
0.0013190913
0.001319088
0.0013190848
0.0013190816
0.0013190784
0.0013190751
0.001319072
0.0013190688
0.0013190656
0.0013190625
0.0013190593
0.0013190562
0.0013190531
0.0013190501
0.001319047
0.001319044
0.001319041
0.0013190381
0.0013190352
0.0013190323
0.0013190294
0.0013190266
0.0013190238
0.001319021
0.0013190183
0.0013190156
0.0013190129
0.0013190103
0.0013190077
0.0013190052
0.0013190027
0.0013190003
0.0013189979
0.0013189956
0.0013189933
0.001318991
0.0013189888
0.0013189867
0.0013189846
0.0013189825
0.0013189805
0.0013189786
0.0013189767
0.0013189749
0.0013189742
0.0013189742
0.0013189742
0.0013189742
0.0013189742
0.0013189742
0.0013189742
0.0013189742
0.0013189742
0.0013189742
0.0013189742
0.0013189742
0.0013189742
0.0013189742
0.0013189742
0.0013189742
0.0013189742
0.0013189742
0.0013189742
0.0013189742
0.0013189742
0.0013189742
0.0013189742
0.00014961357
0.000149611
0.00014961121
0.00014961126
0.00014961128
0.0001496113
0.00014961133
0.00014961136
0.00014961139
0.00014961143
0.00014961147
0.00014961151
0.00014961156
0.00014961161
0.00014961166
0.00014961172
0.00014961178
0.00014961184
0.0001496119
0.00014961196
0.00014961201
0.00014961206
0.00014961206
0.00014959706
0.0012883259
0.0012583526
0.0012602934
0.0012605242
0.0012605725
0.001260584
0.00126059
0.0012605933
0.0012605951
0.0012605957
0.0012605954
0.0012605946
0.0012605934
0.001260592
0.0012605904
0.0012605885
0.0012605866
0.0012605845
0.0012605824
0.0012605802
0.0012605779
0.0012605756
0.0012605732
0.0012605708
0.0012605683
0.0012605658
0.0012605633
0.0012605607
0.0012605581
0.0012605555
0.0012605529
0.0012605502
0.0012605476
0.0012605449
0.0012605422
0.0012605395
0.0012605368
0.0012605341
0.0012605313
0.0012605286
0.0012605259
0.0012605232
0.0012605204
0.0012605177
0.001260515
0.0012605122
0.0012605095
0.0012605068
0.0012605041
0.0012605014
0.0012604987
0.001260496
0.0012604933
0.0012604907
0.001260488
0.0012604854
0.0012604828
0.0012604802
0.0012604777
0.0012604751
0.0012604726
0.0012604701
0.0012604676
0.0012604651
0.0012604627
0.0012604603
0.0012604579
0.0012604556
0.0012604532
0.001260451
0.0012604487
0.0012604465
0.0012604443
0.0012604421
0.00126044
0.0012604379
0.0012604359
0.0012604339
0.0012604319
0.00126043
0.0012604281
0.0012604263
0.0012604245
0.0012604227
0.001260421
0.0012604193
0.0012604177
0.0012604161
0.0012604146
0.001260414
0.001260414
0.001260414
0.001260414
0.001260414
0.001260414
0.001260414
0.001260414
0.001260414
0.001260414
0.001260414
0.001260414
0.001260414
0.001260414
0.001260414
0.001260414
0.001260414
0.001260414
0.001260414
0.001260414
0.001260414
0.001260414
0.001260414
0.0001495764
0.00014957294
0.00014957319
0.00014957325
0.00014957329
0.00014957332
0.00014957335
0.00014957339
0.00014957343
0.00014957347
0.00014957353
0.00014957358
0.00014957364
0.00014957371
0.00014957378
0.00014957386
0.00014957393
0.00014957401
0.00014957409
0.00014957417
0.00014957424
0.0001495743
0.00014957431
0.00014955706
0.0011822846
0.0011584285
0.0011599946
0.0011601693
0.001160205
0.0011602133
0.0011602176
0.0011602198
0.001160221
0.0011602212
0.0011602208
0.00116022
0.001160219
0.0011602177
0.0011602163
0.0011602147
0.001160213
0.0011602113
0.0011602095
0.0011602076
0.0011602057
0.0011602038
0.0011602018
0.0011601997
0.0011601977
0.0011601956
0.0011601935
0.0011601914
0.0011601892
0.001160187
0.0011601849
0.0011601827
0.0011601804
0.0011601782
0.001160176
0.0011601737
0.0011601715
0.0011601692
0.001160167
0.0011601647
0.0011601624
0.0011601602
0.0011601579
0.0011601556
0.0011601534
0.0011601511
0.0011601489
0.0011601466
0.0011601444
0.0011601421
0.0011601399
0.0011601377
0.0011601354
0.0011601332
0.0011601311
0.0011601289
0.0011601267
0.0011601246
0.0011601224
0.0011601203
0.0011601182
0.0011601161
0.0011601141
0.001160112
0.00116011
0.001160108
0.0011601061
0.0011601041
0.0011601022
0.0011601003
0.0011600984
0.0011600966
0.0011600948
0.001160093
0.0011600912
0.0011600895
0.0011600878
0.0011600861
0.0011600845
0.0011600829
0.0011600813
0.0011600798
0.0011600783
0.0011600769
0.0011600754
0.0011600741
0.0011600727
0.0011600714
0.0011600701
0.0011600697
0.0011600697
0.0011600697
0.0011600697
0.0011600697
0.0011600697
0.0011600697
0.0011600697
0.0011600697
0.0011600697
0.0011600697
0.0011600697
0.0011600697
0.0011600697
0.0011600697
0.0011600697
0.0011600697
0.0011600697
0.0011600697
0.0011600697
0.0011600697
0.0011600697
0.0011600696
0.00014952481
0.00014951999
0.00014952029
0.00014952038
0.00014952043
0.00014952047
0.00014952051
0.00014952056
0.00014952062
0.00014952068
0.00014952075
0.00014952083
0.00014952091
0.000149521
0.0001495211
0.0001495212
0.0001495213
0.00014952141
0.00014952152
0.00014952162
0.00014952171
0.0001495218
0.0001495218
0.00014950172
0.0010448309
0.0010261314
0.0010273641
0.0010274935
0.0010275192
0.001027525
0.0010275279
0.0010275293
0.00102753
0.00102753
0.0010275295
0.0010275288
0.0010275278
0.0010275267
0.0010275254
0.0010275241
0.0010275227
0.0010275212
0.0010275197
0.0010275182
0.0010275166
0.001027515
0.0010275133
0.0010275116
0.0010275099
0.0010275082
0.0010275065
0.0010275047
0.0010275029
0.0010275011
0.0010274993
0.0010274975
0.0010274957
0.0010274939
0.001027492
0.0010274902
0.0010274883
0.0010274865
0.0010274846
0.0010274828
0.0010274809
0.001027479
0.0010274772
0.0010274753
0.0010274734
0.0010274716
0.0010274697
0.0010274679
0.001027466
0.0010274642
0.0010274623
0.0010274605
0.0010274587
0.0010274569
0.0010274551
0.0010274533
0.0010274515
0.0010274497
0.001027448
0.0010274462
0.0010274445
0.0010274428
0.0010274411
0.0010274394
0.0010274378
0.0010274361
0.0010274345
0.0010274329
0.0010274313
0.0010274298
0.0010274282
0.0010274267
0.0010274252
0.0010274237
0.0010274223
0.0010274209
0.0010274195
0.0010274181
0.0010274168
0.0010274155
0.0010274142
0.0010274129
0.0010274117
0.0010274105
0.0010274093
0.0010274082
0.0010274071
0.001027406
0.0010274049
0.0010274045
0.0010274045
0.0010274045
0.0010274045
0.0010274045
0.0010274045
0.0010274045
0.0010274045
0.0010274045
0.0010274045
0.0010274045
0.0010274045
0.0010274045
0.0010274045
0.0010274045
0.0010274045
0.0010274045
0.0010274045
0.0010274045
0.0010274045
0.0010274045
0.0010274045
0.0010274045
0.00014945604
0.00014944922
0.00014944958
0.00014944971
0.00014944977
0.00014944983
0.00014944989
0.00014944996
0.00014945004
0.00014945012
0.00014945022
0.00014945032
0.00014945044
0.00014945056
0.00014945069
0.00014945083
0.00014945097
0.00014945112
0.00014945126
0.0001494514
0.00014945153
0.00014945165
0.00014945165
0.00014942833
0.00088717972
0.00087269245
0.00087363739
0.00087373132
0.00087374915
0.00087375303
0.00087375492
0.00087375577
0.00087375605
0.00087375587
0.00087375536
0.00087375464
0.00087375377
0.0008737528
0.00087375174
0.00087375061
0.00087374944
0.00087374822
0.00087374696
0.00087374566
0.00087374434
0.000873743
0.00087374163
0.00087374025
0.00087373884
0.00087373742
0.00087373599
0.00087373454
0.00087373308
0.0008737316
0.00087373012
0.00087372863
0.00087372713
0.00087372563
0.00087372412
0.0008737226
0.00087372108
0.00087371955
0.00087371802
0.00087371649
0.00087371496
0.00087371343
0.0008737119
0.00087371036
0.00087370883
0.0008737073
0.00087370578
0.00087370425
0.00087370274
0.00087370122
0.00087369971
0.00087369821
0.00087369672
0.00087369523
0.00087369375
0.00087369228
0.00087369082
0.00087368937
0.00087368793
0.0008736865
0.00087368508
0.00087368368
0.00087368229
0.00087368091
0.00087367955
0.0008736782
0.00087367687
0.00087367555
0.00087367426
0.00087367297
0.00087367171
0.00087367046
0.00087366924
0.00087366803
0.00087366684
0.00087366567
0.00087366453
0.0008736634
0.0008736623
0.00087366122
0.00087366016
0.00087365913
0.00087365812
0.00087365713
0.00087365617
0.00087365523
0.00087365432
0.00087365343
0.00087365257
0.00087365226
0.00087365226
0.00087365226
0.00087365226
0.00087365226
0.00087365226
0.00087365226
0.00087365226
0.00087365226
0.00087365226
0.00087365226
0.00087365226
0.00087365226
0.00087365226
0.00087365226
0.00087365226
0.00087365226
0.00087365226
0.00087365226
0.00087365226
0.00087365226
0.00087365226
0.00087365225
0.00014936654
0.00014935678
0.00014935721
0.00014935739
0.00014935748
0.00014935756
0.00014935765
0.00014935774
0.00014935785
0.00014935797
0.0001493581
0.00014935824
0.0001493584
0.00014935857
0.00014935875
0.00014935894
0.00014935914
0.00014935934
0.00014935954
0.00014935974
0.00014935992
0.00014936008
0.00014936007
0.00014933336
0.00072136091
0.00071019503
0.00071090134
0.00071096828
0.00071098018
0.00071098263
0.00071098375
0.00071098415
0.00071098416
0.00071098386
0.00071098333
0.00071098265
0.00071098188
0.00071098103
0.00071098012
0.00071097916
0.00071097816
0.00071097713
0.00071097608
0.000710975
0.00071097389
0.00071097277
0.00071097164
0.00071097048
0.00071096932
0.00071096814
0.00071096695
0.00071096575
0.00071096454
0.00071096332
0.00071096209
0.00071096086
0.00071095962
0.00071095838
0.00071095713
0.00071095587
0.00071095461
0.00071095335
0.00071095209
0.00071095082
0.00071094956
0.00071094829
0.00071094702
0.00071094575
0.00071094449
0.00071094323
0.00071094196
0.00071094071
0.00071093945
0.0007109382
0.00071093695
0.00071093571
0.00071093447
0.00071093325
0.00071093202
0.00071093081
0.0007109296
0.0007109284
0.00071092721
0.00071092603
0.00071092486
0.00071092369
0.00071092254
0.00071092141
0.00071092028
0.00071091916
0.00071091806
0.00071091697
0.0007109159
0.00071091484
0.00071091379
0.00071091276
0.00071091175
0.00071091075
0.00071090976
0.0007109088
0.00071090785
0.00071090692
0.00071090601
0.00071090511
0.00071090424
0.00071090338
0.00071090254
0.00071090173
0.00071090093
0.00071090015
0.0007108994
0.00071089867
0.00071089795
0.00071089769
0.00071089769
0.00071089769
0.00071089769
0.00071089769
0.00071089769
0.00071089769
0.00071089769
0.00071089769
0.00071089769
0.00071089769
0.00071089769
0.00071089769
0.00071089769
0.00071089769
0.00071089769
0.00071089769
0.00071089769
0.00071089769
0.00071089769
0.00071089769
0.00071089769
0.00071089769
0.00014925178
0.00014923778
0.00014923825
0.0001492385
0.00014923864
0.00014923875
0.00014923887
0.000149239
0.00014923915
0.00014923931
0.0001492395
0.0001492397
0.00014923991
0.00014924015
0.0001492404
0.00014924066
0.00014924094
0.00014924122
0.0001492415
0.00014924177
0.00014924202
0.00014924226
0.00014924221
0.00014921236
0.00055912881
0.00055048257
0.00055099984
0.00055104708
0.00055105462
0.00055105602
0.00055105657
0.00055105665
0.00055105647
0.00055105608
0.00055105555
0.00055105491
0.00055105421
0.00055105345
0.00055105266
0.00055105183
0.00055105097
0.00055105009
0.00055104919
0.00055104827
0.00055104733
0.00055104639
0.00055104542
0.00055104445
0.00055104347
0.00055104247
0.00055104147
0.00055104046
0.00055103944
0.00055103841
0.00055103738
0.00055103634
0.0005510353
0.00055103425
0.0005510332
0.00055103215
0.00055103109
0.00055103003
0.00055102896
0.0005510279
0.00055102684
0.00055102577
0.0005510247
0.00055102364
0.00055102257
0.00055102151
0.00055102045
0.00055101939
0.00055101834
0.00055101728
0.00055101624
0.00055101519
0.00055101415
0.00055101312
0.00055101209
0.00055101107
0.00055101005
0.00055100904
0.00055100804
0.00055100704
0.00055100606
0.00055100508
0.00055100411
0.00055100315
0.00055100221
0.00055100127
0.00055100034
0.00055099942
0.00055099852
0.00055099762
0.00055099674
0.00055099588
0.00055099502
0.00055099418
0.00055099335
0.00055099254
0.00055099174
0.00055099095
0.00055099019
0.00055098943
0.00055098869
0.00055098797
0.00055098727
0.00055098658
0.00055098591
0.00055098525
0.00055098462
0.000550984
0.0005509834
0.00055098318
0.00055098317
0.00055098317
0.00055098317
0.00055098317
0.00055098317
0.00055098317
0.00055098317
0.00055098317
0.00055098317
0.00055098317
0.00055098317
0.00055098317
0.00055098317
0.00055098317
0.00055098317
0.00055098317
0.00055098317
0.00055098317
0.00055098317
0.00055098317
0.00055098317
0.00055098317
0.00014910615
0.00014908601
0.00014908649
0.00014908685
0.00014908704
0.0001490872
0.00014908736
0.00014908755
0.00014908775
0.00014908798
0.00014908824
0.00014908851
0.00014908882
0.00014908914
0.00014908949
0.00014908986
0.00014909024
0.00014909063
0.00014909102
0.0001490914
0.00014909175
0.00014909208
0.00014909199
0.00014905978
0.00041079387
0.00040398565
0.00040436025
0.00040439378
0.00040439823
0.00040439889
0.00040439903
0.00040439889
0.00040439858
0.00040439814
0.0004043976
0.00040439699
0.00040439635
0.00040439566
0.00040439495
0.00040439422
0.00040439346
0.00040439269
0.0004043919
0.0004043911
0.00040439029
0.00040438947
0.00040438863
0.00040438779
0.00040438694
0.00040438608
0.00040438521
0.00040438434
0.00040438346
0.00040438257
0.00040438168
0.00040438078
0.00040437988
0.00040437898
0.00040437807
0.00040437716
0.00040437625
0.00040437533
0.00040437441
0.0004043735
0.00040437258
0.00040437166
0.00040437074
0.00040436982
0.0004043689
0.00040436798
0.00040436707
0.00040436615
0.00040436524
0.00040436433
0.00040436343
0.00040436253
0.00040436163
0.00040436073
0.00040435985
0.00040435896
0.00040435808
0.00040435721
0.00040435635
0.00040435549
0.00040435463
0.00040435379
0.00040435295
0.00040435212
0.0004043513
0.00040435049
0.00040434969
0.0004043489
0.00040434812
0.00040434734
0.00040434658
0.00040434583
0.00040434509
0.00040434436
0.00040434365
0.00040434294
0.00040434225
0.00040434157
0.00040434091
0.00040434025
0.00040433961
0.00040433899
0.00040433838
0.00040433778
0.0004043372
0.00040433664
0.00040433608
0.00040433555
0.00040433503
0.00040433483
0.00040433483
0.00040433483
0.00040433483
0.00040433483
0.00040433483
0.00040433483
0.00040433483
0.00040433483
0.00040433483
0.00040433483
0.00040433483
0.00040433483
0.00040433483
0.00040433483
0.00040433483
0.00040433483
0.00040433483
0.00040433483
0.00040433483
0.00040433483
0.00040433483
0.00040433483
0.00014892275
0.00014889379
0.0001488942
0.0001488947
0.00014889497
0.00014889518
0.00014889541
0.00014889567
0.00014889596
0.00014889628
0.00014889663
0.00014889701
0.00014889743
0.00014889788
0.00014889837
0.00014889888
0.00014889941
0.00014889995
0.00014890049
0.00014890101
0.0001489015
0.00014890196
0.00014890179
0.0001488688
0.00028413703
0.00027862753
0.0002788992
0.00027892374
0.00027892611
0.00027892626
0.00027892614
0.00027892584
0.00027892545
0.00027892497
0.00027892444
0.00027892386
0.00027892325
0.00027892262
0.00027892197
0.00027892131
0.00027892063
0.00027891993
0.00027891923
0.00027891851
0.00027891778
0.00027891705
0.00027891631
0.00027891556
0.0002789148
0.00027891403
0.00027891326
0.00027891248
0.0002789117
0.00027891092
0.00027891012
0.00027890933
0.00027890853
0.00027890772
0.00027890692
0.00027890611
0.0002789053
0.00027890449
0.00027890367
0.00027890286
0.00027890204
0.00027890122
0.00027890041
0.00027889959
0.00027889877
0.00027889796
0.00027889714
0.00027889633
0.00027889552
0.00027889471
0.00027889391
0.00027889311
0.00027889231
0.00027889152
0.00027889072
0.00027888994
0.00027888916
0.00027888838
0.00027888761
0.00027888685
0.00027888609
0.00027888534
0.00027888459
0.00027888386
0.00027888312
0.0002788824
0.00027888169
0.00027888098
0.00027888029
0.0002788796
0.00027887892
0.00027887825
0.00027887759
0.00027887694
0.0002788763
0.00027887568
0.00027887506
0.00027887445
0.00027887386
0.00027887328
0.00027887271
0.00027887215
0.00027887161
0.00027887108
0.00027887056
0.00027887005
0.00027886956
0.00027886908
0.00027886862
0.00027886844
0.00027886844
0.00027886844
0.00027886844
0.00027886844
0.00027886844
0.00027886844
0.00027886844
0.00027886844
0.00027886844
0.00027886844
0.00027886844
0.00027886844
0.00027886844
0.00027886844
0.00027886844
0.00027886844
0.00027886844
0.00027886844
0.00027886844
0.00027886844
0.00027886844
0.00027886844
0.00014869321
0.00014865163
0.0001486518
0.00014865249
0.00014865286
0.00014865316
0.00014865348
0.00014865384
0.00014865424
0.00014865468
0.00014865517
0.0001486557
0.00014865628
0.00014865691
0.00014865757
0.00014865828
0.00014865901
0.00014865976
0.00014866051
0.00014866124
0.00014866191
0.00014866256
0.00014866226
0.00014863108
0.00018360773
0.00017901013
0.00017920948
0.00017922852
0.0001792296
0.00017922942
0.00017922913
0.00017922875
0.00017922831
0.00017922782
0.0001792273
0.00017922675
0.00017922617
0.00017922559
0.00017922499
0.00017922437
0.00017922375
0.00017922311
0.00017922247
0.00017922181
0.00017922115
0.00017922048
0.00017921981
0.00017921912
0.00017921844
0.00017921774
0.00017921704
0.00017921634
0.00017921563
0.00017921491
0.00017921419
0.00017921347
0.00017921275
0.00017921202
0.00017921129
0.00017921055
0.00017920982
0.00017920908
0.00017920834
0.0001792076
0.00017920686
0.00017920612
0.00017920538
0.00017920463
0.00017920389
0.00017920315
0.00017920241
0.00017920168
0.00017920094
0.00017920021
0.00017919948
0.00017919875
0.00017919802
0.0001791973
0.00017919658
0.00017919587
0.00017919516
0.00017919445
0.00017919375
0.00017919306
0.00017919237
0.00017919168
0.00017919101
0.00017919033
0.00017918967
0.00017918901
0.00017918836
0.00017918772
0.00017918709
0.00017918646
0.00017918584
0.00017918523
0.00017918463
0.00017918404
0.00017918346
0.00017918289
0.00017918233
0.00017918177
0.00017918123
0.0001791807
0.00017918018
0.00017917968
0.00017917918
0.0001791787
0.00017917822
0.00017917776
0.00017917731
0.00017917688
0.00017917645
0.00017917629
0.00017917629
0.00017917629
0.00017917629
0.00017917629
0.00017917629
0.00017917629
0.00017917629
0.00017917629
0.00017917629
0.00017917629
0.00017917629
0.00017917629
0.00017917629
0.00017917629
0.00017917629
0.00017917629
0.00017917629
0.00017917629
0.00017917629
0.00017917629
0.00017917629
0.00017917628
0.00014840748
0.00014834795
0.00014834757
0.0001483485
0.00014834903
0.00014834944
0.00014834988
0.00014835037
0.00014835092
0.00014835153
0.0001483522
0.00014835294
0.00014835374
0.0001483546
0.00014835552
0.0001483565
0.00014835751
0.00014835854
0.00014835957
0.00014836058
0.00014836152
0.00014836243
0.00014836189
0.00014833654
0.00011000954
0.00010608362
0.00010623129
0.00010624712
0.00010624749
0.00010624713
0.00010624676
0.00010624634
0.00010624589
0.00010624541
0.0001062449
0.00010624439
0.00010624385
0.00010624331
0.00010624275
0.00010624219
0.00010624161
0.00010624103
0.00010624044
0.00010623984
0.00010623924
0.00010623863
0.00010623801
0.00010623739
0.00010623676
0.00010623612
0.00010623549
0.00010623484
0.00010623419
0.00010623354
0.00010623289
0.00010623223
0.00010623157
0.0001062309
0.00010623024
0.00010622957
0.0001062289
0.00010622822
0.00010622755
0.00010622687
0.0001062262
0.00010622552
0.00010622484
0.00010622417
0.00010622349
0.00010622281
0.00010622214
0.00010622147
0.00010622079
0.00010622012
0.00010621946
0.00010621879
0.00010621813
0.00010621747
0.00010621681
0.00010621616
0.00010621551
0.00010621486
0.00010621422
0.00010621359
0.00010621296
0.00010621233
0.00010621171
0.0001062111
0.00010621049
0.00010620989
0.00010620929
0.0001062087
0.00010620812
0.00010620755
0.00010620698
0.00010620643
0.00010620588
0.00010620533
0.0001062048
0.00010620428
0.00010620376
0.00010620326
0.00010620276
0.00010620228
0.0001062018
0.00010620133
0.00010620088
0.00010620044
0.0001062
0.00010619958
0.00010619917
0.00010619877
0.00010619838
0.00010619823
0.00010619822
0.00010619822
0.00010619822
0.00010619822
0.00010619822
0.00010619822
0.00010619822
0.00010619822
0.00010619822
0.00010619822
0.00010619822
0.00010619822
0.00010619822
0.00010619822
0.00010619822
0.00010619822
0.00010619822
0.00010619822
0.00010619822
0.00010619822
0.00010619822
0.00010619822
0.00014805364
0.00014796867
0.00014796724
0.00014796849
0.00014796921
0.00014796978
0.00014797037
0.00014797105
0.0001479718
0.00014797264
0.00014797356
0.00014797457
0.00014797567
0.00014797686
0.00014797813
0.00014797946
0.00014798085
0.00014798227
0.00014798369
0.00014798508
0.00014798637
0.00014798765
0.00014798674
0.00014797286
6.0818784e-05
5.7445188e-05
5.7552997e-05
5.7566888e-05
5.7566959e-05
5.7566523e-05
5.7566124e-05
5.7565709e-05
5.7565277e-05
5.7564828e-05
5.7564364e-05
5.756389e-05
5.7563405e-05
5.7562911e-05
5.7562408e-05
5.7561898e-05
5.756138e-05
5.7560855e-05
5.7560324e-05
5.7559786e-05
5.7559242e-05
5.7558693e-05
5.7558138e-05
5.7557578e-05
5.7557013e-05
5.7556444e-05
5.755587e-05
5.7555292e-05
5.755471e-05
5.7554125e-05
5.7553536e-05
5.7552944e-05
5.7552349e-05
5.7551752e-05
5.7551153e-05
5.7550551e-05
5.7549947e-05
5.7549342e-05
5.7548736e-05
5.7548128e-05
5.754752e-05
5.7546911e-05
5.7546303e-05
5.7545694e-05
5.7545085e-05
5.7544477e-05
5.754387e-05
5.7543263e-05
5.7542658e-05
5.7542055e-05
5.7541454e-05
5.7540854e-05
5.7540257e-05
5.7539663e-05
5.7539071e-05
5.7538483e-05
5.7537898e-05
5.7537317e-05
5.753674e-05
5.7536167e-05
5.7535598e-05
5.7535034e-05
5.7534475e-05
5.7533921e-05
5.7533373e-05
5.753283e-05
5.7532293e-05
5.7531762e-05
5.7531238e-05
5.753072e-05
5.753021e-05
5.7529706e-05
5.7529209e-05
5.7528721e-05
5.752824e-05
5.7527766e-05
5.7527302e-05
5.7526845e-05
5.7526397e-05
5.7525958e-05
5.7525528e-05
5.7525108e-05
5.7524696e-05
5.7524295e-05
5.7523903e-05
5.7523521e-05
5.7523149e-05
5.7522788e-05
5.7522435e-05
5.7522296e-05
5.7522289e-05
5.7522289e-05
5.7522289e-05
5.7522289e-05
5.7522289e-05
5.7522289e-05
5.7522289e-05
5.7522289e-05
5.7522289e-05
5.7522289e-05
5.7522289e-05
5.7522289e-05
5.7522289e-05
5.7522289e-05
5.7522289e-05
5.7522289e-05
5.7522289e-05
5.7522289e-05
5.7522289e-05
5.7522289e-05
5.7522289e-05
5.7522287e-05
0.00014761773
0.00014749693
0.00014749361
0.00014749522
0.0001474962
0.00014749697
0.00014749778
0.00014749869
0.00014749972
0.00014750087
0.00014750213
0.00014750351
0.00014750502
0.00014750664
0.00014750837
0.0001475102
0.00014751209
0.00014751404
0.00014751598
0.00014751788
0.00014751965
0.00014752144
0.00014751994
0.0001475255
3.1146131e-05
2.8280638e-05
2.8354562e-05
2.8366978e-05
2.8367e-05
2.8366563e-05
2.8366186e-05
2.8365808e-05
2.836542e-05
2.8365022e-05
2.8364615e-05
2.8364198e-05
2.8363774e-05
2.8363343e-05
2.8362904e-05
2.8362459e-05
2.8362008e-05
2.8361551e-05
2.8361089e-05
2.8360621e-05
2.8360148e-05
2.835967e-05
2.8359187e-05
2.83587e-05
2.8358208e-05
2.8357713e-05
2.8357213e-05
2.8356711e-05
2.8356204e-05
2.8355695e-05
2.8355182e-05
2.8354667e-05
2.8354149e-05
2.8353629e-05
2.8353107e-05
2.8352583e-05
2.8352057e-05
2.835153e-05
2.8351002e-05
2.8350473e-05
2.8349943e-05
2.8349412e-05
2.8348881e-05
2.8348351e-05
2.834782e-05
2.834729e-05
2.834676e-05
2.8346232e-05
2.8345704e-05
2.8345178e-05
2.8344653e-05
2.834413e-05
2.8343609e-05
2.834309e-05
2.8342574e-05
2.8342061e-05
2.834155e-05
2.8341043e-05
2.8340538e-05
2.8340038e-05
2.8339541e-05
2.8339048e-05
2.833856e-05
2.8338076e-05
2.8337597e-05
2.8337122e-05
2.8336653e-05
2.8336189e-05
2.833573e-05
2.8335278e-05
2.8334831e-05
2.833439e-05
2.8333956e-05
2.8333529e-05
2.8333108e-05
2.8332694e-05
2.8332287e-05
2.8331887e-05
2.8331495e-05
2.8331111e-05
2.8330735e-05
2.8330366e-05
2.8330006e-05
2.8329654e-05
2.8329311e-05
2.8328976e-05
2.8328651e-05
2.8328334e-05
2.8328025e-05
2.8327901e-05
2.8327894e-05
2.8327893e-05
2.8327893e-05
2.8327893e-05
2.8327893e-05
2.8327893e-05
2.8327893e-05
2.8327893e-05
2.8327893e-05
2.8327893e-05
2.8327893e-05
2.8327893e-05
2.8327893e-05
2.8327893e-05
2.8327893e-05
2.8327893e-05
2.8327893e-05
2.8327893e-05
2.8327893e-05
2.8327893e-05
2.8327893e-05
2.8327892e-05
0.00014708355
0.0001469126
0.00014690606
0.00014690807
0.00014690939
0.00014691042
0.00014691151
0.00014691274
0.00014691413
0.00014691568
0.0001469174
0.00014691928
0.00014692133
0.00014692353
0.00014692588
0.00014692836
0.00014693094
0.00014693358
0.00014693623
0.00014693882
0.00014694124
0.00014694372
0.0001469413
0.00014697721
1.5148497e-05
1.2757581e-05
1.2803679e-05
1.2814649e-05
1.2814748e-05
1.2814356e-05
1.2814027e-05
1.2813705e-05
1.2813377e-05
1.2813042e-05
1.28127e-05
1.2812351e-05
1.2811995e-05
1.2811634e-05
1.2811267e-05
1.2810895e-05
1.2810518e-05
1.2810135e-05
1.2809748e-05
1.2809357e-05
1.2808961e-05
1.2808561e-05
1.2808157e-05
1.2807749e-05
1.2807337e-05
1.2806923e-05
1.2806505e-05
1.2806083e-05
1.2805659e-05
1.2805233e-05
1.2804803e-05
1.2804372e-05
1.2803938e-05
1.2803502e-05
1.2803065e-05
1.2802625e-05
1.2802185e-05
1.2801743e-05
1.28013e-05
1.2800856e-05
1.2800412e-05
1.2799967e-05
1.2799522e-05
1.2799076e-05
1.2798631e-05
1.2798186e-05
1.2797742e-05
1.2797298e-05
1.2796855e-05
1.2796413e-05
1.2795973e-05
1.2795533e-05
1.2795096e-05
1.279466e-05
1.2794226e-05
1.2793795e-05
1.2793366e-05
1.2792939e-05
1.2792515e-05
1.2792095e-05
1.2791677e-05
1.2791263e-05
1.2790852e-05
1.2790445e-05
1.2790041e-05
1.2789642e-05
1.2789247e-05
1.2788857e-05
1.2788471e-05
1.278809e-05
1.2787714e-05
1.2787343e-05
1.2786977e-05
1.2786617e-05
1.2786262e-05
1.2785914e-05
1.2785571e-05
1.2785234e-05
1.2784904e-05