/*--------------------------------*- C++ -*----------------------------------*\
| =========                 |                                                 |
| \\      /  F ield         | OpenFOAM: The Open Source CFD Toolbox           |
|  \\    /   O peration     | Version:  2206                                  |
|   \\  /    A nd           | Website:  www.openfoam.com                      |
|    \\/     M anipulation  |                                                 |
\*---------------------------------------------------------------------------*/
FoamFile
{
    version     2.0;
    format      ascii;
    arch        "LSB;label=32;scalar=64";
    class       volScalarField;
    location    "100";
    object      nut;
}
// * * * * * * * * * * * * * * * * * * * * * * * * * * * * * * * * * * * * * //

dimensions      [0 2 -1 0 0 0 0];

internalField   nonuniform List<scalar> 
13056
(
6.8863161e-09
6.88618e-09
6.8861946e-09
6.8861966e-09
6.8861973e-09
6.886198e-09
6.8861987e-09
6.8861994e-09
6.8862003e-09
6.8862013e-09
6.8862023e-09
6.8862035e-09
6.8862048e-09
6.8862061e-09
6.8862076e-09
6.8862091e-09
6.8862106e-09
6.8862121e-09
6.8862135e-09
6.8862145e-09
6.8862138e-09
6.8862125e-09
6.8861745e-09
4.7006631e-09
2.6575792e-10
2.5998019e-10
2.6024967e-10
2.6030249e-10
2.6031446e-10
2.6031751e-10
2.6031911e-10
2.6032005e-10
2.6032063e-10
2.6032095e-10
2.6032105e-10
2.6032102e-10
2.603209e-10
2.6032071e-10
2.6032048e-10
2.603202e-10
2.603199e-10
2.6031957e-10
2.6031922e-10
2.6031885e-10
2.6031846e-10
2.6031807e-10
2.6031766e-10
2.6031724e-10
2.6031682e-10
2.6031639e-10
2.6031595e-10
2.603155e-10
2.6031505e-10
2.6031459e-10
2.6031413e-10
2.6031367e-10
2.603132e-10
2.6031273e-10
2.6031226e-10
2.6031179e-10
2.6031131e-10
2.6031083e-10
2.6031035e-10
2.6030987e-10
2.6030939e-10
2.6030891e-10
2.6030842e-10
2.6030794e-10
2.6030746e-10
2.6030697e-10
2.6030649e-10
2.6030601e-10
2.6030553e-10
2.6030506e-10
2.6030458e-10
2.603041e-10
2.6030363e-10
2.6030316e-10
2.6030269e-10
2.6030223e-10
2.6030177e-10
2.6030131e-10
2.6030085e-10
2.603004e-10
2.6029995e-10
2.6029951e-10
2.6029907e-10
2.6029863e-10
2.602982e-10
2.6029778e-10
2.6029735e-10
2.6029694e-10
2.6029653e-10
2.6029612e-10
2.6029572e-10
2.6029533e-10
2.6029494e-10
2.6029456e-10
2.6029418e-10
2.6029381e-10
2.6029345e-10
2.6029309e-10
2.6029274e-10
2.602924e-10
2.6029207e-10
2.6029174e-10
2.6029142e-10
2.6029111e-10
2.602908e-10
2.6029051e-10
2.6029022e-10
2.6028994e-10
2.6028966e-10
2.6028956e-10
2.6028956e-10
2.6028956e-10
2.6028956e-10
2.6028956e-10
2.6028956e-10
2.6028956e-10
2.6028956e-10
2.6028956e-10
2.6028956e-10
2.6028956e-10
2.6028956e-10
2.6028956e-10
2.6028956e-10
2.6028956e-10
2.6028956e-10
2.6028956e-10
2.6028956e-10
2.6028956e-10
2.6028956e-10
2.6028956e-10
2.6028956e-10
2.6028956e-10
6.886205e-09
6.8860607e-09
6.8860759e-09
6.886078e-09
6.8860788e-09
6.8860795e-09
6.8860802e-09
6.886081e-09
6.886082e-09
6.886083e-09
6.8860841e-09
6.8860853e-09
6.8860867e-09
6.8860881e-09
6.8860897e-09
6.8860913e-09
6.8860929e-09
6.8860945e-09
6.886096e-09
6.8860972e-09
6.8860971e-09
6.8860963e-09
6.8860641e-09
4.7040811e-09
2.1377124e-10
2.0836901e-10
2.0868818e-10
2.0873567e-10
2.0874622e-10
2.0874886e-10
2.0875026e-10
2.0875108e-10
2.0875159e-10
2.0875185e-10
2.0875192e-10
2.0875188e-10
2.0875176e-10
2.0875158e-10
2.0875136e-10
2.087511e-10
2.0875081e-10
2.0875051e-10
2.0875018e-10
2.0874984e-10
2.0874949e-10
2.0874912e-10
2.0874875e-10
2.0874836e-10
2.0874797e-10
2.0874758e-10
2.0874717e-10
2.0874676e-10
2.0874635e-10
2.0874593e-10
2.0874551e-10
2.0874509e-10
2.0874466e-10
2.0874423e-10
2.087438e-10
2.0874336e-10
2.0874293e-10
2.0874249e-10
2.0874205e-10
2.0874161e-10
2.0874117e-10
2.0874073e-10
2.0874028e-10
2.0873984e-10
2.087394e-10
2.0873896e-10
2.0873852e-10
2.0873808e-10
2.0873764e-10
2.087372e-10
2.0873677e-10
2.0873634e-10
2.087359e-10
2.0873547e-10
2.0873505e-10
2.0873462e-10
2.087342e-10
2.0873378e-10
2.0873336e-10
2.0873295e-10
2.0873254e-10
2.0873213e-10
2.0873173e-10
2.0873133e-10
2.0873094e-10
2.0873055e-10
2.0873016e-10
2.0872978e-10
2.0872941e-10
2.0872904e-10
2.0872867e-10
2.0872831e-10
2.0872796e-10
2.0872761e-10
2.0872726e-10
2.0872692e-10
2.0872659e-10
2.0872627e-10
2.0872595e-10
2.0872564e-10
2.0872533e-10
2.0872503e-10
2.0872474e-10
2.0872445e-10
2.0872417e-10
2.087239e-10
2.0872364e-10
2.0872338e-10
2.0872313e-10
2.0872304e-10
2.0872304e-10
2.0872304e-10
2.0872304e-10
2.0872304e-10
2.0872304e-10
2.0872304e-10
2.0872304e-10
2.0872304e-10
2.0872304e-10
2.0872304e-10
2.0872304e-10
2.0872304e-10
2.0872304e-10
2.0872304e-10
2.0872304e-10
2.0872304e-10
2.0872304e-10
2.0872304e-10
2.0872304e-10
2.0872304e-10
2.0872304e-10
2.0872304e-10
6.8857822e-09
6.8856115e-09
6.8856285e-09
6.8856311e-09
6.885632e-09
6.8856328e-09
6.8856337e-09
6.8856347e-09
6.8856358e-09
6.885637e-09
6.8856383e-09
6.8856397e-09
6.8856413e-09
6.885643e-09
6.8856448e-09
6.8856467e-09
6.8856487e-09
6.8856507e-09
6.8856525e-09
6.8856541e-09
6.8856545e-09
6.8856544e-09
6.8856296e-09
4.7133481e-09
1.7653854e-10
1.7225193e-10
1.7255206e-10
1.7258787e-10
1.7259566e-10
1.7259757e-10
1.725986e-10
1.7259919e-10
1.7259955e-10
1.7259972e-10
1.7259976e-10
1.725997e-10
1.7259959e-10
1.7259944e-10
1.7259925e-10
1.7259904e-10
1.7259881e-10
1.7259856e-10
1.7259829e-10
1.7259802e-10
1.7259773e-10
1.7259744e-10
1.7259714e-10
1.7259684e-10
1.7259652e-10
1.7259621e-10
1.7259589e-10
1.7259556e-10
1.7259523e-10
1.725949e-10
1.7259456e-10
1.7259423e-10
1.7259389e-10
1.7259354e-10
1.725932e-10
1.7259285e-10
1.7259251e-10
1.7259216e-10
1.7259181e-10
1.7259146e-10
1.7259111e-10
1.7259076e-10
1.7259041e-10
1.7259006e-10
1.7258971e-10
1.7258936e-10
1.7258901e-10
1.7258866e-10
1.7258831e-10
1.7258797e-10
1.7258762e-10
1.7258728e-10
1.7258693e-10
1.7258659e-10
1.7258625e-10
1.7258592e-10
1.7258558e-10
1.7258525e-10
1.7258492e-10
1.7258459e-10
1.7258427e-10
1.7258394e-10
1.7258362e-10
1.7258331e-10
1.72583e-10
1.7258269e-10
1.7258238e-10
1.7258208e-10
1.7258178e-10
1.7258149e-10
1.725812e-10
1.7258091e-10
1.7258063e-10
1.7258035e-10
1.7258008e-10
1.7257981e-10
1.7257955e-10
1.7257929e-10
1.7257904e-10
1.7257879e-10
1.7257855e-10
1.7257831e-10
1.7257808e-10
1.7257785e-10
1.7257763e-10
1.7257742e-10
1.7257721e-10
1.72577e-10
1.7257681e-10
1.7257673e-10
1.7257673e-10
1.7257673e-10
1.7257673e-10
1.7257673e-10
1.7257673e-10
1.7257673e-10
1.7257673e-10
1.7257673e-10
1.7257673e-10
1.7257673e-10
1.7257673e-10
1.7257673e-10
1.7257673e-10
1.7257673e-10
1.7257673e-10
1.7257673e-10
1.7257673e-10
1.7257673e-10
1.7257673e-10
1.7257673e-10
1.7257673e-10
1.7257673e-10
6.885022e-09
6.8848032e-09
6.8848231e-09
6.8848265e-09
6.8848277e-09
6.8848288e-09
6.8848299e-09
6.8848311e-09
6.8848325e-09
6.884834e-09
6.8848357e-09
6.8848376e-09
6.8848396e-09
6.8848418e-09
6.8848441e-09
6.8848465e-09
6.884849e-09
6.8848515e-09
6.8848539e-09
6.8848561e-09
6.8848573e-09
6.884858e-09
6.8848419e-09
4.7290785e-09
1.4525314e-10
1.4204432e-10
1.4226173e-10
1.4228732e-10
1.4229276e-10
1.4229408e-10
1.4229479e-10
1.4229518e-10
1.4229542e-10
1.4229552e-10
1.4229552e-10
1.4229547e-10
1.4229537e-10
1.4229524e-10
1.4229509e-10
1.4229492e-10
1.4229474e-10
1.4229454e-10
1.4229434e-10
1.4229412e-10
1.4229391e-10
1.4229368e-10
1.4229345e-10
1.4229321e-10
1.4229297e-10
1.4229273e-10
1.4229248e-10
1.4229223e-10
1.4229198e-10
1.4229173e-10
1.4229147e-10
1.4229121e-10
1.4229095e-10
1.4229069e-10
1.4229042e-10
1.4229016e-10
1.4228989e-10
1.4228963e-10
1.4228936e-10
1.4228909e-10
1.4228883e-10
1.4228856e-10
1.4228829e-10
1.4228802e-10
1.4228776e-10
1.4228749e-10
1.4228722e-10
1.4228695e-10
1.4228669e-10
1.4228642e-10
1.4228616e-10
1.422859e-10
1.4228563e-10
1.4228537e-10
1.4228511e-10
1.4228486e-10
1.422846e-10
1.4228435e-10
1.4228409e-10
1.4228384e-10
1.422836e-10
1.4228335e-10
1.4228311e-10
1.4228286e-10
1.4228263e-10
1.4228239e-10
1.4228216e-10
1.4228193e-10
1.422817e-10
1.4228147e-10
1.4228125e-10
1.4228103e-10
1.4228082e-10
1.4228061e-10
1.422804e-10
1.4228019e-10
1.4227999e-10
1.4227979e-10
1.422796e-10
1.4227941e-10
1.4227923e-10
1.4227905e-10
1.4227887e-10
1.4227869e-10
1.4227853e-10
1.4227836e-10
1.422782e-10
1.4227805e-10
1.422779e-10
1.4227784e-10
1.4227784e-10
1.4227784e-10
1.4227784e-10
1.4227784e-10
1.4227784e-10
1.4227784e-10
1.4227784e-10
1.4227784e-10
1.4227784e-10
1.4227784e-10
1.4227784e-10
1.4227784e-10
1.4227784e-10
1.4227784e-10
1.4227784e-10
1.4227784e-10
1.4227784e-10
1.4227784e-10
1.4227784e-10
1.4227784e-10
1.4227784e-10
1.4227784e-10
6.8838806e-09
6.8835851e-09
6.8836093e-09
6.8836139e-09
6.8836157e-09
6.8836171e-09
6.8836186e-09
6.8836202e-09
6.8836221e-09
6.8836241e-09
6.8836264e-09
6.8836289e-09
6.8836316e-09
6.8836345e-09
6.8836376e-09
6.8836409e-09
6.8836442e-09
6.8836476e-09
6.8836509e-09
6.883654e-09
6.8836561e-09
6.8836576e-09
6.8836525e-09
4.7518983e-09
1.1733599e-10
1.1499632e-10
1.1515173e-10
1.151694e-10
1.1517305e-10
1.1517392e-10
1.1517438e-10
1.1517464e-10
1.1517478e-10
1.1517483e-10
1.1517481e-10
1.1517476e-10
1.1517467e-10
1.1517457e-10
1.1517445e-10
1.1517432e-10
1.1517418e-10
1.1517403e-10
1.1517387e-10
1.1517371e-10
1.1517354e-10
1.1517337e-10
1.1517319e-10
1.1517301e-10
1.1517283e-10
1.1517265e-10
1.1517246e-10
1.1517227e-10
1.1517208e-10
1.1517189e-10
1.151717e-10
1.151715e-10
1.1517131e-10
1.1517111e-10
1.1517091e-10
1.1517071e-10
1.1517051e-10
1.1517031e-10
1.1517011e-10
1.1516991e-10
1.1516971e-10
1.1516951e-10
1.151693e-10
1.151691e-10
1.151689e-10
1.151687e-10
1.151685e-10
1.151683e-10
1.151681e-10
1.151679e-10
1.151677e-10
1.151675e-10
1.1516731e-10
1.1516711e-10
1.1516692e-10
1.1516672e-10
1.1516653e-10
1.1516634e-10
1.1516615e-10
1.1516596e-10
1.1516577e-10
1.1516559e-10
1.1516541e-10
1.1516522e-10
1.1516504e-10
1.1516487e-10
1.1516469e-10
1.1516452e-10
1.1516435e-10
1.1516418e-10
1.1516401e-10
1.1516385e-10
1.1516369e-10
1.1516353e-10
1.1516337e-10
1.1516322e-10
1.1516306e-10
1.1516292e-10
1.1516277e-10
1.1516263e-10
1.1516249e-10
1.1516235e-10
1.1516222e-10
1.1516209e-10
1.1516196e-10
1.1516184e-10
1.1516172e-10
1.151616e-10
1.1516149e-10
1.1516145e-10
1.1516145e-10
1.1516145e-10
1.1516145e-10
1.1516145e-10
1.1516145e-10
1.1516145e-10
1.1516145e-10
1.1516145e-10
1.1516145e-10
1.1516145e-10
1.1516145e-10
1.1516145e-10
1.1516145e-10
1.1516145e-10
1.1516145e-10
1.1516145e-10
1.1516145e-10
1.1516145e-10
1.1516145e-10
1.1516145e-10
1.1516145e-10
1.1516145e-10
6.8822946e-09
6.881883e-09
6.8819128e-09
6.8819194e-09
6.8819219e-09
6.8819238e-09
6.8819259e-09
6.8819282e-09
6.8819308e-09
6.8819336e-09
6.8819368e-09
6.8819402e-09
6.8819439e-09
6.8819479e-09
6.8819522e-09
6.8819567e-09
6.8819613e-09
6.8819661e-09
6.8819707e-09
6.881975e-09
6.8819784e-09
6.8819811e-09
6.8819903e-09
4.782437e-09
9.2177337e-11
9.0500089e-11
9.0609309e-11
9.0621151e-11
9.0623517e-11
9.0624064e-11
9.062435e-11
9.06245e-11
9.0624576e-11
9.0624594e-11
9.0624568e-11
9.0624515e-11
9.0624444e-11
9.0624359e-11
9.0624264e-11
9.0624161e-11
9.062405e-11
9.0623935e-11
9.0623815e-11
9.0623691e-11
9.0623563e-11
9.0623433e-11
9.0623301e-11
9.0623166e-11
9.0623029e-11
9.062289e-11
9.062275e-11
9.0622608e-11
9.0622465e-11
9.062232e-11
9.0622175e-11
9.0622028e-11
9.0621881e-11
9.0621733e-11
9.0621584e-11
9.0621435e-11
9.0621285e-11
9.0621135e-11
9.0620984e-11
9.0620833e-11
9.0620682e-11
9.0620531e-11
9.062038e-11
9.0620229e-11
9.0620078e-11
9.0619927e-11
9.0619776e-11
9.0619626e-11
9.0619476e-11
9.0619327e-11
9.0619178e-11
9.061903e-11
9.0618882e-11
9.0618735e-11
9.0618589e-11
9.0618444e-11
9.0618299e-11
9.0618156e-11
9.0618014e-11
9.0617873e-11
9.0617733e-11
9.0617594e-11
9.0617456e-11
9.061732e-11
9.0617186e-11
9.0617053e-11
9.0616921e-11
9.0616791e-11
9.0616662e-11
9.0616536e-11
9.0616411e-11
9.0616287e-11
9.0616166e-11
9.0616047e-11
9.0615929e-11
9.0615814e-11
9.0615701e-11
9.0615589e-11
9.061548e-11
9.0615373e-11
9.0615269e-11
9.0615166e-11
9.0615066e-11
9.0614969e-11
9.0614874e-11
9.0614781e-11
9.0614691e-11
9.0614603e-11
9.0614518e-11
9.0614487e-11
9.0614487e-11
9.0614487e-11
9.0614487e-11
9.0614487e-11
9.0614487e-11
9.0614487e-11
9.0614487e-11
9.0614487e-11
9.0614487e-11
9.0614487e-11
9.0614487e-11
9.0614487e-11
9.0614487e-11
9.0614487e-11
9.0614487e-11
9.0614487e-11
9.0614487e-11
9.0614487e-11
9.0614487e-11
9.0614487e-11
9.0614487e-11
9.0614486e-11
6.8801783e-09
6.879595e-09
6.8796316e-09
6.879641e-09
6.8796446e-09
6.8796474e-09
6.8796503e-09
6.8796535e-09
6.8796571e-09
6.8796611e-09
6.8796655e-09
6.8796703e-09
6.8796756e-09
6.8796812e-09
6.8796872e-09
6.8796935e-09
6.8797e-09
6.8797066e-09
6.8797132e-09
6.8797194e-09
6.8797245e-09
6.8797289e-09
6.879757e-09
4.8212953e-09
6.989292e-11
6.8701404e-11
6.8776682e-11
6.8784427e-11
6.8785892e-11
6.8786218e-11
6.8786383e-11
6.8786462e-11
6.8786494e-11
6.878649e-11
6.8786458e-11
6.8786408e-11
6.8786347e-11
6.8786277e-11
6.8786201e-11
6.8786119e-11
6.8786032e-11
6.8785942e-11
6.8785849e-11
6.8785754e-11
6.8785656e-11
6.8785556e-11
6.8785455e-11
6.8785352e-11
6.8785247e-11
6.8785142e-11
6.8785035e-11
6.8784927e-11
6.8784818e-11
6.8784708e-11
6.8784598e-11
6.8784487e-11
6.8784375e-11
6.8784263e-11
6.878415e-11
6.8784036e-11
6.8783923e-11
6.8783809e-11
6.8783695e-11
6.878358e-11
6.8783466e-11
6.8783351e-11
6.8783237e-11
6.8783122e-11
6.8783008e-11
6.8782893e-11
6.8782779e-11
6.8782665e-11
6.8782552e-11
6.8782438e-11
6.8782326e-11
6.8782213e-11
6.8782101e-11
6.878199e-11
6.8781879e-11
6.8781769e-11
6.878166e-11
6.8781551e-11
6.8781443e-11
6.8781336e-11
6.878123e-11
6.8781125e-11
6.8781021e-11
6.8780918e-11
6.8780816e-11
6.8780715e-11
6.8780615e-11
6.8780516e-11
6.8780419e-11
6.8780323e-11
6.8780228e-11
6.8780134e-11
6.8780042e-11
6.8779952e-11
6.8779863e-11
6.8779775e-11
6.8779689e-11
6.8779605e-11
6.8779522e-11
6.8779441e-11
6.8779362e-11
6.8779284e-11
6.8779208e-11
6.8779134e-11
6.8779062e-11
6.8778991e-11
6.8778923e-11
6.8778857e-11
6.8778792e-11
6.8778768e-11
6.8778768e-11
6.8778768e-11
6.8778768e-11
6.8778768e-11
6.8778768e-11
6.8778768e-11
6.8778768e-11
6.8778768e-11
6.8778768e-11
6.8778768e-11
6.8778768e-11
6.8778768e-11
6.8778768e-11
6.8778768e-11
6.8778768e-11
6.8778768e-11
6.8778768e-11
6.8778768e-11
6.8778768e-11
6.8778768e-11
6.8778768e-11
6.8778768e-11
6.8774199e-09
6.8765857e-09
6.8766301e-09
6.8766436e-09
6.8766488e-09
6.8766528e-09
6.8766569e-09
6.8766615e-09
6.8766666e-09
6.8766722e-09
6.8766785e-09
6.8766853e-09
6.8766926e-09
6.8767006e-09
6.876709e-09
6.876718e-09
6.8767272e-09
6.8767366e-09
6.8767459e-09
6.8767547e-09
6.8767624e-09
6.8767692e-09
6.8768225e-09
4.8689939e-09
5.0794744e-11
4.9946724e-11
4.9997743e-11
5.0002716e-11
5.0003576e-11
5.0003755e-11
5.0003839e-11
5.0003871e-11
5.0003874e-11
5.0003856e-11
5.000382e-11
5.0003774e-11
5.0003721e-11
5.0003662e-11
5.0003599e-11
5.0003532e-11
5.0003463e-11
5.0003391e-11
5.0003317e-11
5.0003242e-11
5.0003165e-11
5.0003086e-11
5.0003007e-11
5.0002926e-11
5.0002845e-11
5.0002762e-11
5.0002679e-11
5.0002595e-11
5.000251e-11
5.0002424e-11
5.0002338e-11
5.0002252e-11
5.0002165e-11
5.0002078e-11
5.000199e-11
5.0001902e-11
5.0001814e-11
5.0001725e-11
5.0001636e-11
5.0001547e-11
5.0001458e-11
5.0001369e-11
5.000128e-11
5.0001191e-11
5.0001102e-11
5.0001014e-11
5.0000925e-11
5.0000836e-11
5.0000748e-11
5.000066e-11
5.0000572e-11
5.0000485e-11
5.0000398e-11
5.0000312e-11
5.0000226e-11
5.000014e-11
5.0000055e-11
4.9999971e-11
4.9999887e-11
4.9999804e-11
4.9999721e-11
4.9999639e-11
4.9999558e-11
4.9999478e-11
4.9999399e-11
4.999932e-11
4.9999242e-11
4.9999166e-11
4.999909e-11
4.9999015e-11
4.9998941e-11
4.9998869e-11
4.9998797e-11
4.9998727e-11
4.9998657e-11
4.9998589e-11
4.9998522e-11
4.9998457e-11
4.9998392e-11
4.9998329e-11
4.9998267e-11
4.9998207e-11
4.9998148e-11
4.999809e-11
4.9998034e-11
4.9997979e-11
4.9997926e-11
4.9997874e-11
4.9997824e-11
4.9997805e-11
4.9997805e-11
4.9997805e-11
4.9997805e-11
4.9997805e-11
4.9997805e-11
4.9997805e-11
4.9997805e-11
4.9997805e-11
4.9997805e-11
4.9997805e-11
4.9997805e-11
4.9997805e-11
4.9997805e-11
4.9997805e-11
4.9997805e-11
4.9997805e-11
4.9997805e-11
4.9997805e-11
4.9997805e-11
4.9997805e-11
4.9997805e-11
4.9997805e-11
6.8738782e-09
6.8726799e-09
6.872732e-09
6.8727513e-09
6.8727589e-09
6.8727645e-09
6.8727703e-09
6.8727768e-09
6.8727841e-09
6.8727921e-09
6.872801e-09
6.8728106e-09
6.8728211e-09
6.8728324e-09
6.8728444e-09
6.872857e-09
6.8728701e-09
6.8728834e-09
6.8728966e-09
6.8729094e-09
6.8729206e-09
6.8729307e-09
6.8730178e-09
4.9259019e-09
3.5127912e-11
3.451547e-11
3.4549763e-11
3.4552942e-11
3.4553412e-11
3.4553497e-11
3.4553529e-11
3.4553531e-11
3.4553517e-11
3.455349e-11
3.4553453e-11
3.455341e-11
3.4553363e-11
3.4553312e-11
3.4553258e-11
3.4553202e-11
3.4553145e-11
3.4553086e-11
3.4553025e-11
3.4552964e-11
3.4552901e-11
3.4552837e-11
3.4552773e-11
3.4552707e-11
3.4552641e-11
3.4552575e-11
3.4552507e-11
3.4552439e-11
3.4552371e-11
3.4552302e-11
3.4552233e-11
3.4552163e-11
3.4552093e-11
3.4552023e-11
3.4551952e-11
3.4551881e-11
3.455181e-11
3.4551739e-11
3.4551667e-11
3.4551596e-11
3.4551524e-11
3.4551453e-11
3.4551381e-11
3.4551309e-11
3.4551238e-11
3.4551166e-11
3.4551095e-11
3.4551024e-11
3.4550953e-11
3.4550882e-11
3.4550811e-11
3.4550741e-11
3.4550671e-11
3.4550601e-11
3.4550532e-11
3.4550463e-11
3.4550395e-11
3.4550326e-11
3.4550259e-11
3.4550192e-11
3.4550125e-11
3.455006e-11
3.4549994e-11
3.454993e-11
3.4549866e-11
3.4549802e-11
3.454974e-11
3.4549678e-11
3.4549617e-11
3.4549557e-11
3.4549497e-11
3.4549439e-11
3.4549381e-11
3.4549324e-11
3.4549268e-11
3.4549213e-11
3.4549159e-11
3.4549106e-11
3.4549054e-11
3.4549003e-11
3.4548953e-11
3.4548905e-11
3.4548857e-11
3.454881e-11
3.4548765e-11
3.4548721e-11
3.4548678e-11
3.4548636e-11
3.4548595e-11
3.454858e-11
3.454858e-11
3.454858e-11
3.454858e-11
3.454858e-11
3.454858e-11
3.454858e-11
3.454858e-11
3.454858e-11
3.454858e-11
3.454858e-11
3.454858e-11
3.454858e-11
3.454858e-11
3.454858e-11
3.454858e-11
3.454858e-11
3.454858e-11
3.454858e-11
3.454858e-11
3.454858e-11
3.454858e-11
3.454858e-11
6.8693773e-09
6.8676531e-09
6.8677113e-09
6.8677385e-09
6.8677496e-09
6.8677575e-09
6.8677658e-09
6.8677751e-09
6.8677854e-09
6.8677968e-09
6.8678093e-09
6.8678231e-09
6.8678379e-09
6.8678539e-09
6.8678709e-09
6.8678888e-09
6.8679074e-09
6.8679263e-09
6.8679451e-09
6.8679633e-09
6.8679796e-09
6.8679947e-09
6.8681264e-09
4.9921444e-09
2.2938846e-11
2.2484911e-11
2.2508051e-11
2.2510124e-11
2.2510357e-11
2.2510384e-11
2.2510385e-11
2.2510371e-11
2.2510347e-11
2.2510316e-11
2.2510279e-11
2.2510239e-11
2.2510196e-11
2.2510151e-11
2.2510104e-11
2.2510056e-11
2.2510007e-11
2.2509956e-11
2.2509905e-11
2.2509853e-11
2.25098e-11
2.2509747e-11
2.2509693e-11
2.2509638e-11
2.2509583e-11
2.2509527e-11
2.250947e-11
2.2509414e-11
2.2509357e-11
2.2509299e-11
2.2509241e-11
2.2509183e-11
2.2509125e-11
2.2509066e-11
2.2509007e-11
2.2508948e-11
2.2508889e-11
2.2508829e-11
2.250877e-11
2.250871e-11
2.250865e-11
2.250859e-11
2.2508531e-11
2.2508471e-11
2.2508411e-11
2.2508352e-11
2.2508292e-11
2.2508233e-11
2.2508173e-11
2.2508114e-11
2.2508055e-11
2.2507997e-11
2.2507938e-11
2.250788e-11
2.2507822e-11
2.2507765e-11
2.2507707e-11
2.2507651e-11
2.2507594e-11
2.2507538e-11
2.2507483e-11
2.2507428e-11
2.2507373e-11
2.2507319e-11
2.2507266e-11
2.2507213e-11
2.2507161e-11
2.2507109e-11
2.2507058e-11
2.2507007e-11
2.2506958e-11
2.2506909e-11
2.250686e-11
2.2506813e-11
2.2506766e-11
2.250672e-11
2.2506675e-11
2.2506631e-11
2.2506587e-11
2.2506545e-11
2.2506503e-11
2.2506462e-11
2.2506422e-11
2.2506383e-11
2.2506345e-11
2.2506308e-11
2.2506272e-11
2.2506237e-11
2.2506203e-11
2.2506191e-11
2.250619e-11
2.250619e-11
2.250619e-11
2.250619e-11
2.250619e-11
2.250619e-11
2.250619e-11
2.250619e-11
2.250619e-11
2.250619e-11
2.250619e-11
2.250619e-11
2.250619e-11
2.250619e-11
2.250619e-11
2.250619e-11
2.250619e-11
2.250619e-11
2.250619e-11
2.250619e-11
2.250619e-11
2.250619e-11
6.8637018e-09
6.8612214e-09
6.8612803e-09
6.8613186e-09
6.8613345e-09
6.8613458e-09
6.8613575e-09
6.8613706e-09
6.8613852e-09
6.8614014e-09
6.8614192e-09
6.8614387e-09
6.8614597e-09
6.8614824e-09
6.8615065e-09
6.8615319e-09
6.8615582e-09
6.861585e-09
6.8616117e-09
6.8616376e-09
6.8616612e-09
6.8616832e-09
6.8618736e-09
5.0674944e-09
1.4027463e-11
1.3680886e-11
1.3696716e-11
1.3698139e-11
1.3698237e-11
1.3698232e-11
1.3698216e-11
1.3698193e-11
1.3698165e-11
1.3698133e-11
1.3698098e-11
1.3698061e-11
1.3698022e-11
1.3697982e-11
1.3697941e-11
1.3697899e-11
1.3697857e-11
1.3697813e-11
1.3697769e-11
1.3697724e-11
1.3697679e-11
1.3697633e-11
1.3697586e-11
1.3697539e-11
1.3697492e-11
1.3697444e-11
1.3697396e-11
1.3697348e-11
1.3697299e-11
1.369725e-11
1.3697201e-11
1.3697151e-11
1.3697101e-11
1.3697051e-11
1.3697001e-11
1.369695e-11
1.3696899e-11
1.3696849e-11
1.3696798e-11
1.3696747e-11
1.3696696e-11
1.3696645e-11
1.3696594e-11
1.3696543e-11
1.3696492e-11
1.3696441e-11
1.369639e-11
1.3696339e-11
1.3696289e-11
1.3696238e-11
1.3696188e-11
1.3696138e-11
1.3696088e-11
1.3696038e-11
1.3695989e-11
1.369594e-11
1.3695891e-11
1.3695842e-11
1.3695794e-11
1.3695746e-11
1.3695699e-11
1.3695652e-11
1.3695605e-11
1.3695559e-11
1.3695513e-11
1.3695468e-11
1.3695423e-11
1.3695379e-11
1.3695335e-11
1.3695292e-11
1.369525e-11
1.3695208e-11
1.3695167e-11
1.3695126e-11
1.3695086e-11
1.3695046e-11
1.3695008e-11
1.369497e-11
1.3694933e-11
1.3694896e-11
1.369486e-11
1.3694826e-11
1.3694791e-11
1.3694758e-11
1.3694725e-11
1.3694694e-11
1.3694663e-11
1.3694633e-11
1.3694604e-11
1.3694593e-11
1.3694592e-11
1.3694592e-11
1.3694592e-11
1.3694592e-11
1.3694592e-11
1.3694592e-11
1.3694592e-11
1.3694592e-11
1.3694592e-11
1.3694592e-11
1.3694592e-11
1.3694592e-11
1.3694592e-11
1.3694592e-11
1.3694592e-11
1.3694592e-11
1.3694592e-11
1.3694592e-11
1.3694592e-11
1.3694592e-11
1.3694592e-11
1.3694592e-11
6.8565911e-09
6.8530281e-09
6.8530767e-09
6.8531297e-09
6.8531524e-09
6.8531684e-09
6.8531849e-09
6.8532033e-09
6.8532239e-09
6.8532468e-09
6.853272e-09
6.8532995e-09
6.8533293e-09
6.8533614e-09
6.8533954e-09
6.8534313e-09
6.8534684e-09
6.8535064e-09
6.8535442e-09
6.8535809e-09
6.8536147e-09
6.8536469e-09
6.8539132e-09
5.1512608e-09
7.9668642e-12
7.6964167e-12
7.7073865e-12
7.7084327e-12
7.708463e-12
7.7084429e-12
7.7084205e-12
7.7083946e-12
7.7083663e-12
7.708336e-12
7.708304e-12
7.7082709e-12
7.7082367e-12
7.7082018e-12
7.7081661e-12
7.7081298e-12
7.7080928e-12
7.7080554e-12
7.7080174e-12
7.7079789e-12
7.70794e-12
7.7079006e-12
7.7078609e-12
7.7078207e-12
7.7077803e-12
7.7077394e-12
7.7076983e-12
7.7076568e-12
7.7076151e-12
7.7075731e-12
7.7075309e-12
7.7074885e-12
7.7074458e-12
7.707403e-12
7.70736e-12
7.7073169e-12
7.7072736e-12
7.7072303e-12
7.7071868e-12
7.7071433e-12
7.7070997e-12
7.7070561e-12
7.7070125e-12
7.7069689e-12
7.7069253e-12
7.7068817e-12
7.7068383e-12
7.7067949e-12
7.7067516e-12
7.7067084e-12
7.7066654e-12
7.7066225e-12
7.7065798e-12
7.7065373e-12
7.706495e-12
7.7064529e-12
7.7064111e-12
7.7063696e-12
7.7063283e-12
7.7062873e-12
7.7062467e-12
7.7062064e-12
7.7061665e-12
7.7061269e-12
7.7060878e-12
7.706049e-12
7.7060107e-12
7.7059728e-12
7.7059354e-12
7.7058984e-12
7.705862e-12
7.7058261e-12
7.7057907e-12
7.7057558e-12
7.7057215e-12
7.7056878e-12
7.7056546e-12
7.7056221e-12
7.7055902e-12
7.7055589e-12
7.7055282e-12
7.7054983e-12
7.705469e-12
7.7054403e-12
7.7054124e-12
7.7053852e-12
7.7053587e-12
7.705333e-12
7.7053079e-12
7.7052982e-12
7.7052979e-12
7.7052979e-12
7.7052979e-12
7.7052979e-12
7.7052979e-12
7.7052979e-12
7.7052979e-12
7.7052979e-12
7.7052979e-12
7.7052979e-12
7.7052979e-12
7.7052979e-12
7.7052979e-12
7.7052979e-12
7.7052979e-12
7.7052979e-12
7.7052979e-12
7.7052979e-12
7.7052979e-12
7.7052979e-12
7.7052979e-12
7.7052978e-12
6.8477343e-09
6.8426289e-09
6.842646e-09
6.8427182e-09
6.8427504e-09
6.8427727e-09
6.8427957e-09
6.8428215e-09
6.8428506e-09
6.8428828e-09
6.8429183e-09
6.842957e-09
6.842999e-09
6.8430441e-09
6.8430921e-09
6.8431426e-09
6.8431949e-09
6.8432483e-09
6.8433016e-09
6.8433536e-09
6.8434017e-09
6.8434484e-09
6.8438115e-09
5.2421934e-09
4.1752171e-12
3.9631472e-12
3.970713e-12
3.9715309e-12
3.9715333e-12
3.9715085e-12
3.9714852e-12
3.9714607e-12
3.971435e-12
3.9714083e-12
3.9713806e-12
3.9713522e-12
3.9713232e-12
3.9712937e-12
3.9712636e-12
3.971233e-12
3.971202e-12
3.9711705e-12
3.9711387e-12
3.9711064e-12
3.9710738e-12
3.9710409e-12
3.9710077e-12
3.9709741e-12
3.9709403e-12
3.9709061e-12
3.9708717e-12
3.9708371e-12
3.9708022e-12
3.9707671e-12
3.9707318e-12
3.9706964e-12
3.9706607e-12
3.9706249e-12
3.970589e-12
3.970553e-12
3.9705168e-12
3.9704805e-12
3.9704442e-12
3.9704078e-12
3.9703714e-12
3.9703349e-12
3.9702984e-12
3.970262e-12
3.9702255e-12
3.9701891e-12
3.9701527e-12
3.9701164e-12
3.9700802e-12
3.9700441e-12
3.970008e-12
3.9699722e-12
3.9699364e-12
3.9699008e-12
3.9698654e-12
3.9698302e-12
3.9697952e-12
3.9697604e-12
3.9697259e-12
3.9696915e-12
3.9696575e-12
3.9696238e-12
3.9695903e-12
3.9695572e-12
3.9695243e-12
3.9694919e-12
3.9694597e-12
3.969428e-12
3.9693966e-12
3.9693657e-12
3.9693351e-12
3.969305e-12
3.9692753e-12
3.969246e-12
3.9692173e-12
3.969189e-12
3.9691612e-12
3.9691339e-12
3.9691071e-12
3.9690808e-12
3.9690551e-12
3.96903e-12
3.9690054e-12
3.9689814e-12
3.9689579e-12
3.9689351e-12
3.9689129e-12
3.9688913e-12
3.9688702e-12
3.968862e-12
3.9688616e-12
3.9688616e-12
3.9688616e-12
3.9688616e-12
3.9688616e-12
3.9688616e-12
3.9688616e-12
3.9688616e-12
3.9688616e-12
3.9688616e-12
3.9688616e-12
3.9688616e-12
3.9688616e-12
3.9688616e-12
3.9688616e-12
3.9688616e-12
3.9688616e-12
3.9688616e-12
3.9688616e-12
3.9688616e-12
3.9688616e-12
3.9688615e-12
6.836766e-09
6.8294742e-09
6.8294224e-09
6.8295189e-09
6.8295637e-09
6.8295947e-09
6.8296266e-09
6.8296626e-09
6.8297031e-09
6.8297483e-09
6.8297981e-09
6.8298524e-09
6.8299113e-09
6.8299745e-09
6.8300417e-09
6.8301124e-09
6.8301858e-09
6.8302607e-09
6.8303356e-09
6.8304088e-09
6.8304768e-09
6.8305442e-09
6.8310284e-09
5.3384238e-09
2.018267e-12
1.8541476e-12
1.8591612e-12
1.8598182e-12
1.8598141e-12
1.8597905e-12
1.8597699e-12
1.8597491e-12
1.8597277e-12
1.8597057e-12
1.8596831e-12
1.8596601e-12
1.8596366e-12
1.8596127e-12
1.8595885e-12
1.8595639e-12
1.859539e-12
1.8595137e-12
1.8594881e-12
1.8594622e-12
1.8594361e-12
1.8594096e-12
1.8593829e-12
1.859356e-12
1.8593288e-12
1.8593015e-12
1.8592739e-12
1.8592461e-12
1.8592181e-12
1.8591899e-12
1.8591616e-12
1.8591331e-12
1.8591045e-12
1.8590758e-12
1.859047e-12
1.859018e-12
1.858989e-12
1.8589599e-12
1.8589307e-12
1.8589015e-12
1.8588722e-12
1.8588429e-12
1.8588136e-12
1.8587843e-12
1.858755e-12
1.8587258e-12
1.8586966e-12
1.8586674e-12
1.8586383e-12
1.8586092e-12
1.8585803e-12
1.8585514e-12
1.8585227e-12
1.8584941e-12
1.8584656e-12
1.8584373e-12
1.8584091e-12
1.8583811e-12
1.8583533e-12
1.8583257e-12
1.8582983e-12
1.8582712e-12
1.8582443e-12
1.8582176e-12
1.8581912e-12
1.858165e-12
1.8581391e-12
1.8581136e-12
1.8580883e-12
1.8580634e-12
1.8580388e-12
1.8580145e-12
1.8579906e-12
1.857967e-12
1.8579438e-12
1.857921e-12
1.8578986e-12
1.8578766e-12
1.8578551e-12
1.8578339e-12
1.8578132e-12
1.8577929e-12
1.8577731e-12
1.8577537e-12
1.8577348e-12
1.8577164e-12
1.8576985e-12
1.857681e-12
1.857664e-12
1.8576573e-12
1.8576569e-12
1.8576569e-12
1.8576569e-12
1.8576569e-12
1.8576569e-12
1.8576569e-12
1.8576569e-12
1.8576569e-12
1.8576569e-12
1.8576569e-12
1.8576569e-12
1.8576569e-12
1.8576569e-12
1.8576569e-12
1.8576569e-12
1.8576569e-12
1.8576569e-12
1.8576569e-12
1.8576569e-12
1.8576569e-12
1.8576569e-12
1.8576569e-12
6.8232639e-09
6.8128898e-09
6.8127063e-09
6.8128318e-09
6.8128934e-09
6.8129358e-09
6.8129796e-09
6.8130293e-09
6.8130857e-09
6.8131486e-09
6.8132179e-09
6.8132937e-09
6.8133758e-09
6.813464e-09
6.8135577e-09
6.8136563e-09
6.8137587e-09
6.8138632e-09
6.8139678e-09
6.8140703e-09
6.8141659e-09
6.8142625e-09
6.8148946e-09
5.4375163e-09
9.13595e-13
7.8927482e-13
7.9231429e-13
7.9283889e-13
7.9283746e-13
7.9281789e-13
7.9280135e-13
7.9278503e-13
7.9276841e-13
7.9275142e-13
7.9273407e-13
7.927164e-13
7.9269841e-13
7.9268013e-13
7.9266157e-13
7.9264274e-13
7.9262365e-13
7.9260432e-13
7.9258475e-13
7.9256496e-13
7.9254495e-13
7.9252473e-13
7.9250432e-13
7.9248372e-13
7.9246293e-13
7.9244198e-13
7.9242087e-13
7.923996e-13
7.9237819e-13
7.9235665e-13
7.9233498e-13
7.9231319e-13
7.9229129e-13
7.922693e-13
7.9224722e-13
7.9222506e-13
7.9220283e-13
7.9218054e-13
7.921582e-13
7.9213581e-13
7.921134e-13
7.9209096e-13
7.9206851e-13
7.9204606e-13
7.9202362e-13
7.9200119e-13
7.9197879e-13
7.9195642e-13
7.919341e-13
7.9191184e-13
7.9188964e-13
7.9186751e-13
7.9184547e-13
7.9182352e-13
7.9180168e-13
7.9177995e-13
7.9175834e-13
7.9173686e-13
7.9171553e-13
7.9169435e-13
7.9167332e-13
7.9165247e-13
7.916318e-13
7.9161131e-13
7.9159102e-13
7.9157094e-13
7.9155107e-13
7.9153143e-13
7.9151203e-13
7.9149286e-13
7.9147395e-13
7.9145529e-13
7.9143691e-13
7.914188e-13
7.9140098e-13
7.9138345e-13
7.9136623e-13
7.9134931e-13
7.9133271e-13
7.9131644e-13
7.913005e-13
7.912849e-13
7.9126964e-13
7.9125474e-13
7.9124021e-13
7.9122604e-13
7.9121225e-13
7.9119884e-13
7.9118575e-13
7.9118046e-13
7.9118013e-13
7.9118012e-13
7.9118012e-13
7.9118012e-13
7.9118012e-13
7.9118011e-13
7.9118012e-13
7.9118011e-13
7.9118011e-13
7.9118011e-13
7.9118011e-13
7.9118011e-13
7.9118011e-13
7.9118011e-13
7.9118011e-13
7.9118011e-13
7.9118011e-13
7.9118011e-13
7.9118012e-13
7.9118011e-13
7.9118011e-13
7.9118005e-13
6.8067498e-09
6.7920561e-09
6.7916387e-09
6.7917968e-09
6.7918796e-09
6.7919367e-09
6.7919962e-09
6.7920644e-09
6.792142e-09
6.792229e-09
6.7923251e-09
6.7924301e-09
6.792544e-09
6.7926662e-09
6.7927961e-09
6.7929328e-09
6.7930747e-09
6.7932197e-09
6.7933651e-09
6.7935078e-09
6.7936413e-09
6.7937792e-09
6.7945857e-09
5.5365906e-09
4.0666999e-13
3.1284596e-13
3.1450961e-13
3.1492197e-13
3.1492551e-13
3.1491045e-13
3.1489794e-13
3.1488579e-13
3.1487347e-13
3.148609e-13
3.1484809e-13
3.1483504e-13
3.1482177e-13
3.1480827e-13
3.1479457e-13
3.1478066e-13
3.1476657e-13
3.1475229e-13
3.1473783e-13
3.1472321e-13
3.1470843e-13
3.1469349e-13
3.1467841e-13
3.1466318e-13
3.1464782e-13
3.1463234e-13
3.1461673e-13
3.1460101e-13
3.1458517e-13
3.1456924e-13
3.1455321e-13