/*--------------------------------*- C++ -*----------------------------------*\
| =========                 |                                                 |
| \\      /  F ield         | OpenFOAM: The Open Source CFD Toolbox           |
|  \\    /   O peration     | Version:  2206                                  |
|   \\  /    A nd           | Website:  www.openfoam.com                      |
|    \\/     M anipulation  |                                                 |
\*---------------------------------------------------------------------------*/
FoamFile
{
    version     2.0;
    format      ascii;
    arch        "LSB;label=32;scalar=64";
    class       volScalarField;
    location    "100";
    object      p;
}
// * * * * * * * * * * * * * * * * * * * * * * * * * * * * * * * * * * * * * //

dimensions      [0 2 -2 0 0 0 0];

internalField   nonuniform List<scalar> 
13056
(
0.00097329192
0.00098668958
0.0010154221
0.0010532446
0.0011001724
0.0011565299
0.0012226066
0.0012989628
0.0013865292
0.0014866173
0.001600962
0.0017318449
0.0018822599
0.0020563146
0.0022594578
0.0025001418
0.0027888008
0.0031478475
0.0035948022
0.0042177032
0.0049998323
0.0064454711
0.0077471837
0.02681453
0.0081698528
-0.015767887
-0.0063544376
-0.0042719521
-0.0032161812
-0.0025614009
-0.0021077921
-0.0017512019
-0.0014737678
-0.0012576935
-0.0010832387
-0.00093822378
-0.00081602863
-0.00071209374
-0.00062278688
-0.0005452991
-0.00047752372
-0.00041785191
-0.00036501437
-0.0003179904
-0.0002759522
-0.00023822449
-0.00020425122
-0.0001735701
-0.0001457943
-0.00012059672
-9.7698283e-05
-7.6859035e-05
-5.7871554e-05
-4.0555666e-05
-2.4753083e-05
-1.0324572e-05
2.8522769e-06
1.4886162e-05
2.5874002e-05
3.5902453e-05
4.5049188e-05
5.3383872e-05
6.0969603e-05
6.7863587e-05
7.4117322e-05
7.9777574e-05
8.4886952e-05
8.9484301e-05
9.3605102e-05
9.7281806e-05
0.00010054417
0.00010341955
0.00010593312
0.0001081081
0.00010996598
0.00011152665
0.00011280865
0.00011382899
0.0001146042
0.00011514846
0.00011548052
0.00011560903
0.00011553997
0.00011528995
0.00011487262
0.00011429893
0.00011357651
0.00011271437
0.00011172124
0.00011060512
0.00010937348
0.0001080333
0.00010659115
0.00010505313
0.00010342494
0.00010171186
9.9918722e-05
9.8049969e-05
9.610959e-05
9.4101111e-05
9.202757e-05
8.9891444e-05
8.7694574e-05
8.5438036e-05
8.3121927e-05
8.0745067e-05
7.8304349e-05
7.5794028e-05
7.3202754e-05
7.0512756e-05
6.7676457e-05
6.4632544e-05
6.0884905e-05
5.7044965e-05
5.4339574e-05
5.237633e-05
5.0461217e-05
4.8443358e-05
4.6330125e-05
4.412983e-05
4.184234e-05
3.9470757e-05
3.7022231e-05
3.4504984e-05
3.192694e-05
2.9295621e-05
2.6618374e-05
2.3902228e-05
2.115461e-05
1.8381479e-05
1.5594412e-05
1.2788959e-05
1.002091e-05
7.1577773e-06
4.7630898e-06
9.9790543e-07
0.00097329192
0.00098668958
0.0010154221
0.0010532446
0.0011001725
0.0011565299
0.0012226066
0.0012989628
0.0013865292
0.0014866173
0.001600962
0.0017318449
0.0018822599
0.0020563146
0.0022594578
0.0025001418
0.0027888009
0.0031478477
0.0035948024
0.0042177037
0.0049998329
0.0064454723
0.0077471859
0.026793511
0.0081902203
-0.0157667
-0.0063544738
-0.0042719653
-0.0032161842
-0.0025614019
-0.0021077926
-0.0017512022
-0.0014737679
-0.0012576936
-0.0010832387
-0.00093822375
-0.00081602858
-0.00071209366
-0.00062278679
-0.000545299
-0.00047752361
-0.00041785179
-0.00036501425
-0.00031799027
-0.00027595208
-0.00023822436
-0.00020425109
-0.00017356997
-0.00014579417
-0.00012059658
-9.7698149e-05
-7.6858901e-05
-5.7871421e-05
-4.0555533e-05
-2.4752952e-05
-1.0324441e-05
2.8524058e-06
1.4886289e-05
2.5874128e-05
3.5902577e-05
4.5049311e-05
5.3383992e-05
6.0969721e-05
6.7863704e-05
7.4117436e-05
7.9777686e-05
8.4887062e-05
8.9484408e-05
9.3605207e-05
9.7281908e-05
0.00010054427
0.00010341964
0.00010593321
0.00010810819
0.00010996607
0.00011152674
0.00011280874
0.00011382907
0.00011460428
0.00011514853
0.00011548059
0.0001156091
0.00011554004
0.00011529001
0.00011487269
0.00011429899
0.00011357656
0.00011271443
0.0001117213
0.00011060517
0.00010937352
0.00010803335
0.00010659119
0.00010505317
0.00010342498
0.00010171189
9.9918757e-05
9.8050003e-05
9.6109621e-05
9.4101141e-05
9.2027598e-05
8.989147e-05
8.7694599e-05
8.5438059e-05
8.3121948e-05
8.0745086e-05
7.8304367e-05
7.5794044e-05
7.3202769e-05
7.051277e-05
6.767647e-05
6.4632556e-05
6.0884912e-05
5.7044967e-05
5.4339574e-05
5.237633e-05
5.0461217e-05
4.8443358e-05
4.6330125e-05
4.412983e-05
4.184234e-05
3.9470757e-05
3.7022231e-05
3.4504984e-05
3.192694e-05
2.9295621e-05
2.6618374e-05
2.3902228e-05
2.115461e-05
1.8381479e-05
1.5594412e-05
1.2788959e-05
1.002091e-05
7.1577773e-06
4.7630899e-06
9.9790548e-07
0.00097329192
0.00098668958
0.0010154221
0.0010532446
0.0011001725
0.0011565299
0.0012226066
0.0012989628
0.0013865292
0.0014866173
0.001600962
0.0017318449
0.0018822599
0.0020563146
0.0022594578
0.0025001419
0.002788801
0.0031478478
0.0035948026
0.0042177041
0.0049998336
0.0064454734
0.0077471875
0.02677407
0.0081921414
-0.015765448
-0.0063545154
-0.00427198
-0.0032161876
-0.0025614029
-0.0021077931
-0.0017512025
-0.0014737681
-0.0012576936
-0.0010832387
-0.00093822372
-0.00081602851
-0.00071209358
-0.00062278669
-0.00054529888
-0.00047752348
-0.00041785165
-0.0003650141
-0.00031799013
-0.00027595193
-0.00023822421
-0.00020425093
-0.00017356981
-0.00014579401
-0.00012059643
-9.7697993e-05
-7.6858746e-05
-5.7871267e-05
-4.055538e-05
-2.47528e-05
-1.0324291e-05
2.852555e-06
1.4886437e-05
2.5874274e-05
3.5902721e-05
4.5049452e-05
5.3384132e-05
6.0969858e-05
6.7863838e-05
7.4117569e-05
7.9777815e-05
8.4887189e-05
8.9484532e-05
9.3605328e-05
9.7282026e-05
0.00010054438
0.00010341976
0.00010593332
0.0001081083
0.00010996617
0.00011152684
0.00011280883
0.00011382916
0.00011460437
0.00011514862
0.00011548068
0.00011560918
0.00011554012
0.00011529009
0.00011487276
0.00011429906
0.00011357663
0.00011271449
0.00011172136
0.00011060523
0.00010937358
0.0001080334
0.00010659124
0.00010505322
0.00010342503
0.00010171194
9.9918798e-05
9.8050041e-05
9.6109658e-05
9.4101175e-05
9.202763e-05
8.98915e-05
8.7694626e-05
8.5438085e-05
8.3121972e-05
8.0745108e-05
7.8304388e-05
7.5794063e-05
7.3202787e-05
7.0512786e-05
6.7676485e-05
6.4632569e-05
6.0884921e-05
5.7044969e-05
5.4339574e-05
5.237633e-05
5.0461217e-05
4.8443358e-05
4.6330125e-05
4.412983e-05
4.184234e-05
3.9470757e-05
3.7022231e-05
3.4504984e-05
3.192694e-05
2.9295621e-05
2.6618374e-05
2.3902228e-05
2.115461e-05
1.8381479e-05
1.5594412e-05
1.2788959e-05
1.002091e-05
7.1577773e-06
4.7630899e-06
9.9790552e-07
0.00097329192
0.00098668958
0.0010154221
0.0010532446
0.0011001725
0.0011565299
0.0012226066
0.0012989628
0.0013865292
0.0014866173
0.001600962
0.0017318449
0.0018822599
0.0020563146
0.0022594579
0.0025001419
0.0027888011
0.0031478479
0.0035948028
0.0042177046
0.0049998342
0.0064454742
0.0077471886
0.026755394
0.0081743566
-0.015764326
-0.0063545566
-0.0042719942
-0.0032161908
-0.0025614038
-0.0021077936
-0.0017512028
-0.0014737683
-0.0012576937
-0.0010832388
-0.00093822368
-0.00081602844
-0.00071209349
-0.00062278658
-0.00054529876
-0.00047752335
-0.00041785152
-0.00036501396
-0.00031798998
-0.00027595178
-0.00023822406
-0.00020425078
-0.00017356966
-0.00014579386
-0.00012059628
-9.7697841e-05
-7.6858594e-05
-5.7871115e-05
-4.0555229e-05
-2.475265e-05
-1.0324143e-05
2.8527016e-06
1.4886582e-05
2.5874417e-05
3.5902862e-05
4.5049591e-05
5.3384268e-05
6.0969993e-05
6.786397e-05
7.4117698e-05
7.9777942e-05
8.4887313e-05
8.9484654e-05
9.3605447e-05
9.7282143e-05
0.0001005445
0.00010341987
0.00010593343
0.0001081084
0.00010996627
0.00011152694
0.00011280893
0.00011382926
0.00011460446
0.00011514871
0.00011548076
0.00011560926
0.0001155402
0.00011529016
0.00011487283
0.00011429913
0.0001135767
0.00011271456
0.00011172142
0.00011060529
0.00010937364
0.00010803345
0.00010659129
0.00010505327
0.00010342507
0.00010171198
9.9918839e-05
9.8050079e-05
9.6109694e-05
9.4101209e-05
9.2027661e-05
8.9891529e-05
8.7694654e-05
8.5438111e-05
8.3121996e-05
8.074513e-05
7.8304408e-05
7.5794082e-05
7.3202804e-05
7.0512802e-05
6.7676499e-05
6.4632582e-05
6.0884929e-05
5.7044972e-05
5.4339574e-05
5.237633e-05
5.0461217e-05
4.8443358e-05
4.6330125e-05
4.412983e-05
4.184234e-05
3.9470757e-05
3.7022231e-05
3.4504984e-05
3.192694e-05
2.9295621e-05
2.6618374e-05
2.3902228e-05
2.115461e-05
1.8381479e-05
1.5594412e-05
1.2788959e-05
1.002091e-05
7.1577773e-06
4.7630899e-06
9.9790557e-07
0.00097329192
0.00098668958
0.0010154221
0.0010532446
0.0011001725
0.0011565299
0.0012226066
0.0012989628
0.0013865292
0.0014866173
0.001600962
0.0017318449
0.00188226
0.0020563146
0.0022594579
0.002500142
0.0027888012
0.0031478481
0.0035948031
0.004217705
0.0049998348
0.0064454748
0.0077471897
0.026734895
0.0081549928
-0.015763223
-0.0063545987
-0.0042720085
-0.0032161941
-0.0025614047
-0.0021077941
-0.0017512031
-0.0014737685
-0.0012576938
-0.0010832388
-0.00093822364
-0.00081602837
-0.00071209339
-0.00062278647
-0.00054529864
-0.00047752322
-0.00041785138
-0.00036501382
-0.00031798983
-0.00027595163
-0.00023822391
-0.00020425063
-0.0001735695
-0.0001457937
-0.00012059612
-9.7697682e-05
-7.6858435e-05
-5.7870958e-05
-4.0555073e-05
-2.4752495e-05
-1.0323989e-05
2.8528538e-06
1.4886732e-05
2.5874565e-05
3.5903009e-05
4.5049736e-05
5.3384411e-05
6.0970132e-05
6.7864108e-05
7.4117833e-05
7.9778074e-05
8.4887442e-05
8.9484781e-05
9.3605571e-05
9.7282263e-05
0.00010054462
0.00010341998
0.00010593354
0.00010810851
0.00010996638
0.00011152704
0.00011280903
0.00011382935
0.00011460455
0.0001151488
0.00011548085
0.00011560934
0.00011554028
0.00011529024
0.00011487291
0.0001142992
0.00011357677
0.00011271462
0.00011172148
0.00011060535
0.00010937369
0.00010803351
0.00010659134
0.00010505332
0.00010342512
0.00010171202
9.991888e-05
9.8050119e-05
9.6109731e-05
9.4101244e-05
9.2027694e-05
8.9891559e-05
8.7694682e-05
8.5438137e-05
8.3122021e-05
8.0745153e-05
7.8304429e-05
7.5794102e-05
7.3202822e-05
7.0512819e-05
6.7676514e-05
6.4632596e-05
6.0884938e-05
5.7044974e-05
5.4339574e-05
5.237633e-05
5.0461217e-05
4.8443358e-05
4.6330125e-05
4.412983e-05
4.184234e-05
3.9470757e-05
3.7022231e-05
3.4504984e-05
3.192694e-05
2.9295621e-05
2.6618374e-05
2.3902228e-05
2.115461e-05
1.8381479e-05
1.5594412e-05
1.2788959e-05
1.002091e-05
7.1577773e-06
4.76309e-06
9.9790561e-07
0.00097329192
0.00098668958
0.0010154221
0.0010532446
0.0011001725
0.0011565299
0.0012226066
0.0012989628
0.0013865292
0.0014866173
0.001600962
0.0017318449
0.00188226
0.0020563147
0.0022594579
0.002500142
0.0027888013
0.0031478482
0.0035948033
0.0042177055
0.0049998355
0.0064454755
0.0077471924
0.026711809
0.0081353533
-0.015762077
-0.0063546427
-0.0042720235
-0.0032161974
-0.0025614057
-0.0021077946
-0.0017512034
-0.0014737686
-0.0012576938
-0.0010832387
-0.00093822359
-0.00081602829
-0.00071209329
-0.00062278635
-0.0005452985
-0.00047752308
-0.00041785123
-0.00036501366
-0.00031798967
-0.00027595146
-0.00023822374
-0.00020425046
-0.00017356933
-0.00014579353
-0.00012059595
-9.7697511e-05
-7.6858265e-05
-5.7870788e-05
-4.0554905e-05
-2.4752328e-05
-1.0323823e-05
2.8530175e-06
1.4886894e-05
2.5874725e-05
3.5903166e-05
4.5049891e-05
5.3384563e-05
6.0970282e-05
6.7864255e-05
7.4117978e-05
7.9778216e-05
8.4887581e-05
8.9484917e-05
9.3605703e-05
9.7282393e-05
0.00010054474
0.0001034201
0.00010593366
0.00010810863
0.00010996649
0.00011152715
0.00011280913
0.00011382946
0.00011460465
0.0001151489
0.00011548094
0.00011560943
0.00011554037
0.00011529032
0.00011487299
0.00011429928
0.00011357684
0.0001127147
0.00011172155
0.00011060542
0.00010937375
0.00010803357
0.0001065914
0.00010505337
0.00010342517
0.00010171207
9.9918925e-05
9.8050161e-05
9.610977e-05
9.4101281e-05
9.2027729e-05
8.9891592e-05
8.7694713e-05
8.5438166e-05
8.3122047e-05
8.0745178e-05
7.8304452e-05
7.5794123e-05
7.3202841e-05
7.0512836e-05
6.767653e-05
6.4632611e-05
6.0884947e-05
5.7044976e-05
5.4339574e-05
5.237633e-05
5.0461217e-05
4.8443358e-05
4.6330125e-05
4.412983e-05
4.184234e-05
3.9470757e-05
3.7022231e-05
3.4504984e-05
3.192694e-05
2.9295621e-05
2.6618374e-05
2.3902228e-05
2.115461e-05
1.8381479e-05
1.5594412e-05
1.2788959e-05
1.002091e-05
7.1577773e-06
4.76309e-06
9.9790566e-07
0.00097329192
0.00098668958
0.0010154221
0.0010532446
0.0011001725
0.0011565299
0.0012226066
0.0012989628
0.0013865292
0.0014866174
0.001600962
0.0017318449
0.00188226
0.0020563147
0.002259458
0.0025001421
0.0027888014
0.0031478484
0.0035948036
0.0042177061
0.0049998363
0.0064454763
0.0077471975
0.02668591
0.008113773
-0.015760858
-0.0063546883
-0.0042720395
-0.003216201
-0.0025614067
-0.0021077952
-0.0017512037
-0.0014737688
-0.0012576939
-0.0010832387
-0.00093822353
-0.00081602819
-0.00071209317
-0.00062278621
-0.00054529835
-0.00047752292
-0.00041785106
-0.00036501349
-0.00031798949
-0.00027595128
-0.00023822355
-0.00020425027
-0.00017356914
-0.00014579334
-0.00012059576
-9.7697324e-05
-7.6858079e-05
-5.7870603e-05
-4.0554721e-05
-2.4752146e-05
-1.0323642e-05
2.8531965e-06
1.4887071e-05
2.5874899e-05
3.5903338e-05
4.505006e-05
5.338473e-05
6.0970447e-05
6.7864416e-05
7.4118136e-05
7.9778371e-05
8.4887733e-05
8.9485065e-05
9.3605849e-05
9.7282535e-05
0.00010054488
0.00010342024
0.00010593379
0.00010810876
0.00010996662
0.00011152727
0.00011280925
0.00011382957
0.00011460476
0.000115149
0.00011548105
0.00011560953
0.00011554046
0.00011529042
0.00011487307
0.00011429936
0.00011357692
0.00011271477
0.00011172162
0.00011060549
0.00010937382
0.00010803363
0.00010659146
0.00010505343
0.00010342523
0.00010171212
9.9918974e-05
9.8050207e-05
9.6109814e-05
9.4101322e-05
9.2027767e-05
8.9891628e-05
8.7694747e-05
8.5438197e-05
8.3122076e-05
8.0745205e-05
7.8304477e-05
7.5794146e-05
7.3202862e-05
7.0512855e-05
6.7676548e-05
6.4632627e-05
6.0884958e-05
5.7044979e-05
5.4339574e-05
5.237633e-05
5.0461217e-05
4.8443358e-05
4.6330125e-05
4.412983e-05
4.184234e-05
3.9470757e-05
3.7022231e-05
3.4504984e-05
3.192694e-05
2.9295621e-05
2.6618374e-05
2.3902228e-05
2.115461e-05
1.8381479e-05
1.5594412e-05
1.2788959e-05
1.002091e-05
7.1577773e-06
4.7630901e-06
9.9790571e-07
0.00097329192
0.00098668958
0.0010154221
0.0010532446
0.0011001725
0.0011565299
0.0012226066
0.0012989629
0.0013865292
0.0014866174
0.001600962
0.001731845
0.00188226
0.0020563147
0.002259458
0.0025001422
0.0027888015
0.0031478487
0.003594804
0.0042177069
0.0049998374
0.0064454774
0.0077472035
0.026656936
0.0080895219
-0.015759527
-0.006354735
-0.0042720568
-0.0032162049
-0.0025614077
-0.0021077957
-0.001751204
-0.001473769
-0.001257694
-0.0010832387
-0.00093822346
-0.00081602809
-0.00071209304
-0.00062278606
-0.00054529819
-0.00047752274
-0.00041785087
-0.00036501329
-0.00031798929
-0.00027595108
-0.00023822335
-0.00020425006
-0.00017356894
-0.00014579313
-0.00012059555
-9.7697117e-05
-7.6857872e-05
-5.7870397e-05
-4.0554516e-05
-2.4751943e-05
-1.0323442e-05
2.853395e-06
1.4887267e-05
2.5875093e-05
3.5903529e-05
4.5050249e-05
5.3384915e-05
6.0970629e-05
6.7864595e-05
7.4118311e-05
7.9778543e-05
8.4887902e-05
8.948523e-05
9.360601e-05
9.7282692e-05
0.00010054503
0.00010342039
0.00010593394
0.0001081089
0.00010996676
0.0001115274
0.00011280938
0.00011382969
0.00011460488
0.00011514912
0.00011548116
0.00011560964
0.00011554057
0.00011529052
0.00011487317
0.00011429946
0.00011357701
0.00011271486
0.0001117217
0.00011060556
0.0001093739
0.0001080337
0.00010659153
0.00010505349
0.00010342529
0.00010171218
9.9919029e-05
9.8050259e-05
9.6109862e-05
9.4101367e-05
9.202781e-05
8.9891668e-05
8.7694784e-05
8.5438232e-05
8.3122108e-05
8.0745235e-05
7.8304504e-05
7.5794171e-05
7.3202886e-05
7.0512877e-05
6.7676567e-05
6.4632645e-05
6.0884969e-05
5.7044982e-05
5.4339574e-05
5.237633e-05
5.0461217e-05
4.8443358e-05
4.6330125e-05
4.412983e-05
4.184234e-05
3.9470757e-05
3.7022231e-05
3.4504984e-05
3.192694e-05
2.9295621e-05
2.6618374e-05
2.3902228e-05
2.115461e-05
1.8381479e-05
1.5594412e-05
1.2788959e-05
1.002091e-05
7.1577773e-06
4.7630901e-06
9.9790576e-07
0.00097329192
0.00098668958
0.0010154221
0.0010532446
0.0011001725
0.0011565299
0.0012226066
0.0012989629
0.0013865292
0.0014866174
0.001600962
0.001731845
0.0018822601
0.0020563148
0.0022594581
0.0025001423
0.0027888017
0.003147849
0.0035948045
0.0042177079
0.0049998389
0.0064454791
0.0077472096
0.026624616
0.0080623439
-0.01575804
-0.0063547818
-0.0042720761
-0.0032162093
-0.0025614089
-0.0021077964
-0.0017512044
-0.0014737692
-0.001257694
-0.0010832387
-0.00093822338
-0.00081602797
-0.00071209289
-0.00062278589
-0.000545298
-0.00047752254
-0.00041785066
-0.00036501308
-0.00031798907
-0.00027595085
-0.00023822312
-0.00020424983
-0.0001735687
-0.0001457929
-0.00012059532
-9.7696884e-05
-7.685764e-05
-5.7870166e-05
-4.0554287e-05
-2.4751715e-05
-1.0323216e-05
2.8536183e-06
1.4887488e-05
2.5875311e-05
3.5903744e-05
4.505046e-05
5.3385124e-05
6.0970833e-05
6.7864796e-05
7.4118509e-05
7.9778737e-05
8.4888091e-05
8.9485416e-05
9.3606191e-05
9.728287e-05
0.00010054521
0.00010342056
0.0001059341
0.00010810906
0.00010996691
0.00011152755
0.00011280953
0.00011382984
0.00011460502
0.00011514925
0.00011548129
0.00011560977
0.00011554068
0.00011529063
0.00011487328
0.00011429956
0.00011357711
0.00011271496
0.0001117218
0.00011060565
0.00010937398
0.00010803378
0.0001065916
0.00010505357
0.00010342536
0.00010171225
9.991909e-05
9.8050316e-05
9.6109917e-05
9.4101419e-05
9.2027858e-05
8.9891713e-05
8.7694826e-05
8.5438271e-05
8.3122145e-05
8.0745268e-05
7.8304536e-05
7.57942e-05
7.3202912e-05
7.0512901e-05
6.7676589e-05
6.4632665e-05
6.0884982e-05
5.7044986e-05
5.4339574e-05
5.237633e-05
5.0461217e-05
4.8443358e-05
4.6330125e-05
4.412983e-05
4.184234e-05
3.9470757e-05
3.7022231e-05
3.4504984e-05
3.192694e-05
2.9295621e-05
2.6618374e-05
2.3902228e-05
2.115461e-05
1.8381479e-05
1.5594412e-05
1.2788959e-05
1.002091e-05
7.1577773e-06
4.7630902e-06
9.9790582e-07
0.00097329192
0.00098668958
0.0010154221
0.0010532446
0.0011001725
0.00115653
0.0012226066
0.0012989629
0.0013865293
0.0014866174
0.0016009621
0.001731845
0.0018822601
0.0020563149
0.0022594582
0.0025001425
0.002788802
0.0031478494
0.0035948052
0.0042177093
0.0049998407
0.0064454815
0.0077472169
0.026588716
0.0080320316
-0.015756339
-0.0063548269
-0.0042720977
-0.0032162143
-0.0025614101
-0.002107797
-0.0017512048
-0.0014737694
-0.0012576941
-0.0010832387
-0.00093822329
-0.00081602784
-0.00071209272
-0.0006227857
-0.00054529779
-0.00047752231
-0.00041785043
-0.00036501283
-0.00031798882
-0.0002759506
-0.00023822286
-0.00020424957
-0.00017356844
-0.00014579264
-0.00012059505
-9.7696619e-05
-7.6857376e-05
-5.7869903e-05
-4.0554026e-05
-2.4751456e-05
-1.0322959e-05
2.8538725e-06
1.4887739e-05
2.5875559e-05
3.5903989e-05
4.5050701e-05
5.3385361e-05
6.0971067e-05
6.7865026e-05
7.4118734e-05
7.9778957e-05
8.4888307e-05
8.9485627e-05
9.3606398e-05
9.7283071e-05
0.0001005454
0.00010342075
0.00010593429
0.00010810924
0.00010996709
0.00011152773
0.00011280969
0.00011383
0.00011460518
0.0001151494
0.00011548143
0.00011560991
0.00011554082
0.00011529076
0.00011487341
0.00011429968
0.00011357723
0.00011271507
0.0001117219
0.00011060575
0.00010937408
0.00010803387
0.00010659169
0.00010505365
0.00010342543
0.00010171232
9.991916e-05
9.8050382e-05
9.6109979e-05
9.4101477e-05
9.2027912e-05
8.9891764e-05
8.7694874e-05
8.5438315e-05
8.3122186e-05
8.0745307e-05
7.8304571e-05
7.5794232e-05
7.3202942e-05
7.0512928e-05
6.7676614e-05
6.4632688e-05
6.0884997e-05
5.704499e-05
5.4339574e-05
5.237633e-05
5.0461217e-05
4.8443358e-05
4.6330125e-05
4.412983e-05
4.184234e-05
3.9470757e-05
3.7022231e-05
3.4504984e-05
3.192694e-05
2.9295621e-05
2.6618374e-05
2.3902228e-05
2.115461e-05
1.8381479e-05
1.5594412e-05
1.2788959e-05
1.002091e-05
7.1577773e-06
4.7630902e-06
9.9790589e-07
0.00097329192
0.00098668959
0.0010154221
0.0010532446
0.0011001725
0.00115653
0.0012226066
0.0012989629
0.0013865293
0.0014866174
0.0016009621
0.0017318451
0.0018822602
0.002056315
0.0022594584
0.0025001427
0.0027888023
0.00314785
0.003594806
0.004217711
0.0049998432
0.0064454849
0.0077472261
0.026549036
0.0079983966
-0.015754352
-0.0063548678
-0.0042721222
-0.00321622
-0.0025614116
-0.0021077978
-0.0017512052
-0.0014737696
-0.0012576942
-0.0010832387
-0.00093822319
-0.00081602768
-0.00071209253
-0.00062278548
-0.00054529755
-0.00047752206
-0.00041785016
-0.00036501255
-0.00031798853
-0.0002759503
-0.00023822256
-0.00020424927
-0.00017356814
-0.00014579233
-0.00012059475
-9.7696314e-05
-7.6857072e-05
-5.7869601e-05
-4.0553725e-05
-2.4751158e-05
-1.0322664e-05
2.8541649e-06
1.4888028e-05
2.5875845e-05
3.5904271e-05
4.5050979e-05
5.3385634e-05
6.0971335e-05
6.7865289e-05
7.4118993e-05
7.9779211e-05
8.4888556e-05
8.948587e-05
9.3606636e-05
9.7283304e-05
0.00010054563
0.00010342097
0.0001059345
0.00010810945
0.00010996729
0.00011152792
0.00011280989
0.00011383018
0.00011460535
0.00011514958
0.0001154816
0.00011561007
0.00011554098
0.00011529091
0.00011487355
0.00011429982
0.00011357736
0.00011271519
0.00011172202
0.00011060587
0.00010937419
0.00010803398
0.00010659179
0.00010505374
0.00010342552
0.00010171241
9.9919241e-05
9.8050459e-05
9.6110051e-05
9.4101544e-05
9.2027975e-05
8.9891823e-05
8.7694929e-05
8.5438366e-05
8.3122234e-05
8.0745351e-05
7.8304612e-05
7.579427e-05
7.3202977e-05
7.051296e-05
6.7676643e-05
6.4632714e-05
6.0885014e-05
5.7044994e-05
5.4339574e-05
5.237633e-05
5.0461217e-05
4.8443358e-05
4.6330125e-05
4.412983e-05
4.184234e-05
3.9470757e-05
3.7022231e-05
3.4504984e-05
3.192694e-05
2.9295621e-05
2.6618374e-05
2.3902228e-05
2.115461e-05
1.8381479e-05
1.5594412e-05
1.2788959e-05
1.002091e-05
7.1577773e-06
4.7630903e-06
9.9790596e-07
0.00097329192
0.00098668959
0.0010154221
0.0010532446
0.0011001725
0.00115653
0.0012226066
0.0012989629
0.0013865293
0.0014866174
0.0016009621
0.0017318451
0.0018822603
0.0020563151
0.0022594586
0.002500143
0.0027888027
0.0031478507
0.0035948072
0.0042177133
0.0049998464
0.0064454896
0.0077472377
0.0265054
0.0079613001
-0.015751993
-0.0063549009
-0.00427215
-0.0032162268
-0.0025614132
-0.0021077986
-0.0017512057
-0.0014737699
-0.0012576943
-0.0010832386
-0.00093822307
-0.00081602751
-0.00071209231
-0.00062278523
-0.00054529727
-0.00047752176
-0.00041784985
-0.00036501223
-0.0003179882
-0.00027594996
-0.00023822222
-0.00020424892
-0.00017356779
-0.00014579198
-0.00012059439
-9.7695962e-05
-7.6856721e-05
-5.7869251e-05
-4.0553377e-05
-2.4750813e-05
-1.0322322e-05
2.8545038e-06
1.4888363e-05
2.5876176e-05
3.5904597e-05
4.5051301e-05
5.3385951e-05
6.0971647e-05
6.7865596e-05
7.4119293e-05
7.9779506e-05
8.4888845e-05
8.9486153e-05
9.3606912e-05
9.7283574e-05
0.00010054589
0.00010342123
0.00010593475
0.00010810969
0.00010996753
0.00011152815
0.00011281011
0.0001138304
0.00011460556
0.00011514978
0.00011548179
0.00011561026
0.00011554116
0.00011529109
0.00011487372
0.00011429998
0.00011357751
0.00011271534
0.00011172217
0.000110606
0.00010937432
0.0001080341
0.00010659191
0.00010505385
0.00010342563
0.0001017125
9.9919335e-05
9.8050547e-05
9.6110134e-05
9.4101622e-05
9.2028049e-05
8.9891892e-05
8.7694993e-05
8.5438426e-05
8.3122289e-05
8.0745402e-05
7.8304659e-05
7.5794314e-05
7.3203017e-05
7.0512997e-05
6.7676677e-05
6.4632745e-05
6.0885034e-05
5.7045e-05
5.4339574e-05
5.237633e-05
5.0461217e-05
4.8443358e-05
4.6330125e-05
4.412983e-05
4.184234e-05
3.9470757e-05
3.7022231e-05
3.4504984e-05
3.192694e-05
2.929562e-05
2.6618374e-05
2.3902228e-05
2.115461e-05
1.8381479e-05
1.5594412e-05
1.2788959e-05
1.002091e-05
7.1577773e-06
4.7630904e-06
9.9790605e-07
0.00097329192
0.00098668959
0.0010154221
0.0010532446
0.0011001725
0.00115653
0.0012226066
0.0012989629
0.0013865293
0.0014866175
0.0016009622
0.0017318452
0.0018822604
0.0020563153
0.0022594588
0.0025001434
0.0027888033
0.0031478516
0.0035948086
0.0042177162
0.0049998505
0.0064454959
0.0077472521
0.026457639
0.0079206569
-0.015749156
-0.0063549207
-0.0042721817
-0.0032162347
-0.002561415
-0.0021077995
-0.0017512063
-0.0014737702
-0.0012576944
-0.0010832386
-0.00093822295
-0.00081602731
-0.00071209207
-0.00062278494
-0.00054529695
-0.00047752142
-0.00041784948
-0.00036501185
-0.00031798781
-0.00027594957
-0.00023822182
-0.00020424852
-0.00017356738
-0.00014579157
-0.00012059398
-9.7695551e-05
-7.6856311e-05
-5.7868844e-05
-4.0552972e-05
-2.475041e-05
-1.0321923e-05
2.8548988e-06
1.4888754e-05
2.5876562e-05
3.5904978e-05
4.5051676e-05
5.3386321e-05
6.0972011e-05
6.7865953e-05
7.4119644e-05
7.977985e-05
8.4889182e-05
8.9486483e-05
9.3607234e-05
9.7283889e-05
0.0001005462
0.00010342153
0.00010593504
0.00010810998
0.0001099678
0.00011152842
0.00011281037
0.00011383065
0.00011460581
0.00011515001
0.00011548202
0.00011561048
0.00011554137
0.00011529129
0.00011487391
0.00011430017
0.0001135777
0.00011271551
0.00011172233
0.00011060616
0.00010937447
0.00010803425
0.00010659204
0.00010505398
0.00010342575
0.00010171262
9.9919444e-05
9.805065e-05
9.6110231e-05
9.4101714e-05
9.2028135e-05
8.9891972e-05
8.7695068e-05
8.5438496e-05
8.3122354e-05
8.0745462e-05
7.8304715e-05
7.5794365e-05
7.3203064e-05
7.051304e-05
6.7676716e-05
6.463278e-05
6.0885057e-05
5.7045006e-05
5.4339574e-05
5.237633e-05
5.0461217e-05
4.8443358e-05
4.6330125e-05
4.412983e-05
4.184234e-05
3.9470757e-05
3.7022231e-05
3.4504984e-05
3.192694e-05
2.929562e-05
2.6618374e-05
2.3902228e-05
2.115461e-05
1.8381479e-05
1.5594412e-05
1.2788959e-05
1.002091e-05
7.1577773e-06
4.7630905e-06
9.9790615e-07
0.00097329192
0.00098668959
0.0010154221
0.0010532446
0.0011001725
0.00115653
0.0012226067
0.0012989629
0.0013865293
0.0014866175
0.0016009623
0.0017318453
0.0018822605
0.0020563155
0.0022594591
0.0025001438
0.002788804
0.0031478528
0.0035948104
0.0042177199
0.0049998556
0.0064455042
0.0077472699
0.026405585
0.0078764309
-0.015745712
-0.0063549198
-0.0042722175
-0.003216244
-0.0025614171
-0.0021078005
-0.0017512069
-0.0014737706
-0.0012576945
-0.0010832386
-0.0009382228
-0.00081602708
-0.00071209178
-0.00062278461
-0.00054529658
-0.00047752102
-0.00041784907
-0.00036501142
-0.00031798736
-0.00027594911
-0.00023822135
-0.00020424804
-0.0001735669
-0.00014579109
-0.0001205935
-9.7695072e-05
-7.6855833e-05
-5.7868367e-05
-4.0552498e-05
-2.474994e-05
-1.0321456e-05
2.8553612e-06
1.4889211e-05
2.5877013e-05
3.5905424e-05
4.5052116e-05
5.3386754e-05
6.0972437e-05
6.7866371e-05
7.4120055e-05
7.9780253e-05
8.4889577e-05
8.9486869e-05
9.3607613e-05
9.7284258e-05
0.00010054656
0.00010342188
0.00010593539
0.00010811031
0.00010996813
0.00011152874
0.00011281067
0.00011383095
0.00011460609
0.00011515029
0.00011548229
0.00011561073
0.00011554162
0.00011529153
0.00011487414
0.00011430039
0.00011357791
0.00011271572
0.00011172252
0.00011060635
0.00010937464
0.00010803441
0.0001065922
0.00010505414
0.0001034259
0.00010171276
9.9919573e-05
9.8050772e-05
9.6110345e-05
9.4101821e-05
9.2028235e-05
8.9892066e-05
8.7695155e-05
8.5438578e-05
8.312243e-05
8.0745533e-05
7.830478e-05
7.5794425e-05
7.3203119e-05
7.0513091e-05
6.7676763e-05
6.4632823e-05
6.0885085e-05
5.7045014e-05
5.4339574e-05
5.237633e-05
5.0461217e-05
4.8443358e-05
4.6330125e-05
4.412983e-05
4.184234e-05
3.9470757e-05
3.7022231e-05
3.4504984e-05
3.192694e-05
2.929562e-05
2.6618374e-05
2.3902227e-05
2.115461e-05
1.8381479e-05
1.5594412e-05
1.2788959e-05
1.002091e-05
7.1577773e-06
4.7630906e-06
9.9790627e-07
0.00097329192
0.0009866896
0.0010154221
0.0010532446
0.0011001725
0.00115653
0.0012226067
0.001298963
0.0013865294
0.0014866176
0.0016009623
0.0017318454
0.0018822607
0.0020563157
0.0022594595
0.0025001444
0.0027888049
0.0031478543
0.0035948127
0.0042177246
0.0049998621
0.0064455148
0.007747292
0.026349063
0.0078286313
-0.015741501
-0.006354891
-0.0042722573
-0.0032162549
-0.0025614194
-0.0021078016
-0.0017512076
-0.0014737709
-0.0012576947
-0.0010832385
-0.00093822262
-0.00081602682
-0.00071209144
-0.00062278422
-0.00054529615
-0.00047752056
-0.00041784858
-0.00036501091
-0.00031798684
-0.00027594857
-0.00023822081
-0.00020424749
-0.00017356635
-0.00014579053
-0.00012059294
-9.7694511e-05
-7.6855273e-05
-5.7867809e-05
-4.0551943e-05
-2.4749388e-05
-1.0320909e-05
2.8559034e-06
1.4889748e-05
2.5877544e-05
3.5905947e-05
4.5052632e-05
5.3387262e-05
6.0972937e-05
6.7866863e-05
7.4120537e-05
7.9780726e-05
8.4890041e-05
8.9487323e-05
9.3608057e-05
9.7284692e-05
0.00010054699
0.00010342229
0.00010593579
0.0001081107
0.00010996851
0.00011152911
0.00011281103
0.00011383129
0.00011460643
0.00011515062
0.0001154826
0.00011561104
0.00011554191
0.00011529181
0.00011487441
0.00011430065
0.00011357816
0.00011271595
0.00011172275
0.00011060657
0.00010937485
0.00010803461
0.00010659239
0.00010505431
0.00010342607
0.00010171292
9.9919725e-05
9.8050915e-05
9.611048e-05
9.4101948e-05
9.2028354e-05
8.9892177e-05
8.7695259e-05
8.5438674e-05
8.312252e-05
8.0745616e-05
7.8304857e-05
7.5794496e-05
7.3203184e-05
7.051315e-05
6.7676817e-05
6.4632872e-05
6.0885117e-05
5.7045023e-05
5.4339575e-05
5.237633e-05
5.0461217e-05
4.8443358e-05
4.6330125e-05
4.412983e-05
4.184234e-05
3.9470757e-05
3.7022231e-05
3.4504984e-05
3.192694e-05
2.929562e-05
2.6618374e-05
2.3902227e-05
2.115461e-05
1.8381479e-05
1.5594412e-05
1.2788959e-05
1.002091e-05
7.1577773e-06
4.7630907e-06
9.9790641e-07
0.00097329191
0.00098668961
0.0010154221
0.0010532446
0.0011001725
0.00115653
0.0012226067
0.001298963
0.0013865294
0.0014866177
0.0016009625
0.0017318456
0.0018822609
0.0020563161
0.00225946
0.0025001452
0.002788806
0.0031478561
0.0035948156
0.0042177303
0.0049998701
0.0064455282
0.0077473194
0.026287879
0.007777309
-0.015736328
-0.0063548252
-0.0042723006
-0.0032162676
-0.0025614219
-0.0021078027
-0.0017512082
-0.0014737713
-0.0012576948
-0.0010832384
-0.00093822241
-0.0008160265
-0.00071209105
-0.00062278376
-0.00054529565
-0.00047752002
-0.00041784801
-0.00036501032
-0.00031798623
-0.00027594795
-0.00023822017
-0.00020424685
-0.00017356569
-0.00014578988
-0.00012059229
-9.7693853e-05
-7.6854616e-05
-5.7867154e-05
-4.0551291e-05
-2.4748741e-05
-1.0320266e-05
2.8565398e-06
1.4890378e-05
2.5878166e-05
3.5906562e-05
4.5053238e-05
5.3387859e-05
6.0973524e-05
6.7867441e-05