/*--------------------------------*- C++ -*----------------------------------*\
| =========                 |                                                 |
| \\      /  F ield         | OpenFOAM: The Open Source CFD Toolbox           |
|  \\    /   O peration     | Version:  2206                                  |
|   \\  /    A nd           | Website:  www.openfoam.com                      |
|    \\/     M anipulation  |                                                 |
\*---------------------------------------------------------------------------*/
FoamFile
{
    version     2.0;
    format      ascii;
    arch        "LSB;label=32;scalar=64";
    class       surfaceScalarField;
    location    "100";
    object      phi;
}
// * * * * * * * * * * * * * * * * * * * * * * * * * * * * * * * * * * * * * //

dimensions      [0 3 -1 0 0 0 0];

oriented        oriented;

internalField   nonuniform List<scalar> 
25880
(
2.0046541e-06
1.5724097e-14
2.0046541e-06
2.7344882e-14
2.0046541e-06
2.5694666e-14
2.0046541e-06
2.8891618e-14
2.004654e-06
3.5412025e-14
2.004654e-06
4.3941615e-14
2.0046539e-06
5.5006707e-14
2.0046538e-06
6.9538737e-14
2.0046538e-06
8.867398e-14
2.0046536e-06
1.1394518e-13
2.0046535e-06
1.4753602e-13
2.0046533e-06
1.9275488e-13
2.004653e-06
2.5439844e-13
2.0046527e-06
3.4092831e-13
2.0046522e-06
4.6337543e-13
2.0046516e-06
6.5122898e-13
2.0046507e-06
9.2433495e-13
2.0046492e-06
1.4398119e-12
2.0046471e-06
2.1256712e-12
2.004643e-06
4.1293934e-12
2.0046377e-06
5.246122e-12
2.0046215e-06
1.6201139e-11
2.0045991e-06
2.2418831e-11
1.0154713e-06
9.8912782e-07
2.5597154e-08
9.8987414e-07
2.5274223e-08
3.2293094e-10
2.5284756e-08
-1.0532319e-11
2.5288627e-08
-3.8713072e-12
2.5289538e-08
-9.1133971e-13
2.5289822e-08
-2.8428565e-13
2.5289977e-08
-1.5472204e-13
2.5290072e-08
-9.4346249e-14
2.5290129e-08
-5.7383908e-14
2.5290157e-08
-2.8063843e-14
2.5290164e-08
-7.2511689e-15
2.5290158e-08
6.1341023e-15
2.5290143e-08
1.5350963e-14
2.529012e-08
2.2324258e-14
2.5290093e-08
2.7765575e-14
2.5290061e-08
3.2027381e-14
2.5290025e-08
3.54143e-14
2.5289987e-08
3.8170713e-14
2.5289947e-08
4.0455982e-14
2.5289904e-08
4.2377236e-14
2.528986e-08
4.4015026e-14
2.5289815e-08
4.5424089e-14
2.5289768e-08
4.6649359e-14
2.528972e-08
4.7723927e-14
2.5289672e-08
4.8672427e-14
2.5289622e-08
4.951394e-14
2.5289572e-08
5.0263286e-14
2.5289521e-08
5.0933316e-14
2.5289469e-08
5.1533279e-14
2.5289417e-08
5.2069554e-14
2.5289365e-08
5.2549198e-14
2.5289312e-08
5.297787e-14
2.5289259e-08
5.3358536e-14
2.5289205e-08
5.3694606e-14
2.5289151e-08
5.3989872e-14
2.5289097e-08
5.4245703e-14
2.5289042e-08
5.4464333e-14
2.5288987e-08
5.4647918e-14
2.5288933e-08
5.4797389e-14
2.5288878e-08
5.4913912e-14
2.5288823e-08
5.4998725e-14
2.5288768e-08
5.5052737e-14
2.5288713e-08
5.5076728e-14
2.5288658e-08
5.5071403e-14
2.5288603e-08
5.5037419e-14
2.5288548e-08
5.4975063e-14
2.5288493e-08
5.488527e-14
2.5288438e-08
5.4768463e-14
2.5288383e-08
5.4624731e-14
2.5288329e-08
5.445468e-14
2.5288275e-08
5.4258647e-14
2.5288221e-08
5.4036213e-14
2.5288167e-08
5.3790157e-14
2.5288113e-08
5.3519613e-14
2.528806e-08
5.3221757e-14
2.5288007e-08
5.2900138e-14
2.5287955e-08
5.2557099e-14
2.5287902e-08
5.2187103e-14
2.5287851e-08
5.1793059e-14
2.5287799e-08
5.1378862e-14
2.5287748e-08
5.0940181e-14
2.5287698e-08
5.0478836e-14
2.5287648e-08
4.9995189e-14
2.5287598e-08
4.9489457e-14
2.5287549e-08
4.8961902e-14
2.5287501e-08
4.841284e-14
2.5287453e-08
4.7842557e-14
2.5287406e-08
4.7251358e-14
2.5287359e-08
4.6639559e-14
2.5287313e-08
4.6007467e-14
2.5287268e-08
4.5355402e-14
2.5287223e-08
4.4683676e-14
2.5287179e-08
4.3992627e-14
2.5287136e-08
4.3282586e-14
2.5287093e-08
4.2553885e-14
2.5287051e-08
4.1806869e-14
2.528701e-08
4.104189e-14
2.528697e-08
4.0259295e-14
2.5286931e-08
3.9459172e-14
2.5286892e-08
3.8642131e-14
2.5286854e-08
3.7809087e-14
2.5286817e-08
3.6959859e-14
2.5286781e-08
3.609446e-14
2.5286746e-08
3.5213441e-14
2.5286712e-08
3.4316829e-14
2.5286678e-08
3.340437e-14
2.5286646e-08
3.2470355e-14
2.5286614e-08
3.1538689e-14
2.5286592e-08
2.1765195e-14
2.5286587e-08
5.9182897e-15
2.5286587e-08
6.8536263e-17
2.5286587e-08
-9.6588976e-18
2.5286587e-08
-1.2859147e-17
2.5286587e-08
-1.2039555e-17
2.5286587e-08
-1.062956e-17
2.5286587e-08
-9.9549861e-18
2.5286587e-08
-9.3386655e-18
2.5286587e-08
-8.1244707e-18
2.5286587e-08
-6.9129909e-18
2.5286587e-08
-6.0433201e-18
2.5286587e-08
-5.2411446e-18
2.5286587e-08
-4.4914146e-18
2.5286587e-08
-3.8096013e-18
2.5286587e-08
-3.172326e-18
2.5286587e-08
-2.5269137e-18
2.5286587e-08
-2.0203192e-18
2.5286587e-08
-1.1993109e-18
2.5286587e-08
-1.4804232e-18
2.5286587e-08
2.4652903e-18
2.5286587e-08
-6.5277218e-18
2.5286587e-08
1.0953075e-16
1.3140084e-16
2.034528e-06
3.3480143e-14
2.034528e-06
5.8292556e-14
2.034528e-06
5.4842913e-14
2.034528e-06
6.1657409e-14
2.0345279e-06
7.5552685e-14
2.0345279e-06
9.3723148e-14
2.0345278e-06
1.1728628e-13
2.0345277e-06
1.4822333e-13
2.0345276e-06
1.8894786e-13
2.0345275e-06
2.4271376e-13
2.0345273e-06
3.1415575e-13
2.0345271e-06
4.1029516e-13
2.0345268e-06
5.4130581e-13
2.0345264e-06
7.2513972e-13
2.0345259e-06
9.8516153e-13
2.0345252e-06
1.3839245e-12
2.0345241e-06
1.9632679e-12
2.0345225e-06
3.056345e-12
2.0345201e-06
4.5091229e-12
2.0345155e-06
8.7519003e-12
2.0345096e-06
1.1120687e-11
2.0344918e-06
3.4083516e-11
2.034468e-06
4.6210428e-11
1.0568762e-06
1.9667196e-06
7.7898222e-08
1.9688521e-06
7.6940414e-08
1.2807394e-09
7.6972159e-08
-4.2277249e-11
7.6983921e-08
-1.5632899e-11
7.698668e-08
-3.6709549e-12
7.6987532e-08
-1.1364611e-12
7.6987996e-08
-6.1867695e-13
7.6988278e-08
-3.7624851e-13
7.6988449e-08
-2.2772927e-13
7.6988531e-08
-1.1018731e-13
7.698855e-08
-2.6647968e-14
7.6988529e-08
2.7177584e-14
7.698848e-08
6.426629e-14
7.698841e-08
9.2328487e-14
7.6988324e-08
1.1423364e-13
7.6988224e-08
1.3140162e-13
7.6988115e-08
1.4505424e-13
7.6987997e-08
1.5617168e-13
7.6987872e-08
1.6539374e-13
7.6987741e-08
1.7315088e-13
7.6987605e-08
1.7976701e-13
7.6987465e-08
1.8546205e-13
7.6987321e-08
1.9041666e-13
7.6987174e-08
1.9476393e-13
7.6987024e-08
1.986028e-13
7.6986872e-08
2.0200995e-13
7.6986717e-08
2.0504492e-13
7.698656e-08
2.0775946e-13
7.6986402e-08
2.1019075e-13
7.6986241e-08
2.123644e-13
7.698608e-08
2.1430887e-13
7.6985916e-08
2.1604697e-13
7.6985752e-08
2.1759058e-13
7.6985587e-08
2.1895343e-13
7.6985421e-08
2.2015081e-13
7.6985254e-08
2.2118822e-13
7.6985086e-08
2.2207464e-13
7.6984918e-08
2.2281875e-13
7.6984749e-08
2.2342432e-13
7.698458e-08
2.2389602e-13
7.6984411e-08
2.2423884e-13
7.6984242e-08
2.2445642e-13
7.6984072e-08
2.2455193e-13
7.6983903e-08
2.2452818e-13
7.6983734e-08
2.2438783e-13
7.6983564e-08
2.2413203e-13
7.6983396e-08
2.2376455e-13
7.6983227e-08
2.232871e-13
7.6983059e-08
2.2270003e-13
7.6982891e-08
2.2200579e-13
7.6982724e-08
2.2120574e-13
7.6982558e-08
2.2029815e-13
7.6982393e-08
2.1929433e-13
7.6982228e-08
2.1819084e-13
7.6982064e-08
2.1697612e-13
7.6981901e-08
2.1566446e-13
7.698174e-08
2.1426514e-13
7.6981579e-08
2.1275658e-13
7.698142e-08
2.1115021e-13
7.6981262e-08
2.0946115e-13
7.6981105e-08
2.0767258e-13
7.698095e-08
2.0579158e-13
7.6980796e-08
2.0381969e-13
7.6980644e-08
2.0175779e-13
7.6980493e-08
1.9960696e-13
7.6980344e-08
1.9736847e-13
7.6980197e-08
1.9504349e-13
7.6980051e-08
1.9263326e-13
7.6979908e-08
1.9013907e-13
7.6979766e-08
1.8756216e-13
7.6979627e-08
1.8490383e-13
7.6979489e-08
1.8216536e-13
7.6979354e-08
1.7934813e-13
7.6979221e-08
1.7645348e-13
7.697909e-08
1.7348276e-13
7.6978961e-08
1.7043738e-13
7.6978835e-08
1.6731877e-13
7.6978711e-08
1.6412836e-13
7.697859e-08
1.608665e-13
7.6978471e-08
1.5753568e-13
7.6978354e-08
1.5413961e-13
7.6978241e-08
1.5067757e-13
7.697813e-08
1.4714963e-13
7.6978021e-08
1.4355807e-13
7.6977916e-08
1.3990301e-13
7.6977813e-08
1.3618356e-13
7.6977713e-08
1.3237681e-13
7.6977616e-08
1.2858232e-13
7.6977549e-08
8.8739936e-14
7.6977531e-08
2.4129649e-14
7.6977531e-08
2.7606511e-16
7.6977531e-08
-4.0702113e-17
7.6977531e-08
-5.1589014e-17
7.6977531e-08
-4.8110915e-17
7.6977531e-08
-4.2453428e-17
7.6977531e-08
-3.9730506e-17
7.6977531e-08
-3.7252652e-17
7.6977531e-08
-3.2382179e-17
7.6977531e-08
-2.7531219e-17
7.6977531e-08
-2.4060229e-17
7.6977531e-08
-2.0861112e-17
7.6977531e-08
-1.7873088e-17
7.6977531e-08
-1.5159216e-17
7.6977531e-08
-1.2626159e-17
7.6977531e-08
-1.0057528e-17
7.6977531e-08
-8.0681189e-18
7.6977531e-08
-4.7734859e-18
7.6977531e-08
-6.1031931e-18
7.6977531e-08
1.0069149e-17
7.6977531e-08
-2.7717194e-17
7.6977531e-08
4.4985511e-16
5.2629592e-16
2.0947211e-06
5.4036602e-14
2.094721e-06
9.4231249e-14
2.094721e-06
8.8794161e-14
2.094721e-06
9.9803164e-14
2.0947209e-06
1.2225478e-13
2.0947209e-06
1.5160712e-13
2.0947208e-06
1.8965599e-13
2.0947207e-06
2.3959579e-13
2.0947206e-06
3.053132e-13
2.0947204e-06
3.9204493e-13
2.0947202e-06
5.0724764e-13
2.09472e-06
6.6221738e-13
2.0947196e-06
8.7330959e-13
2.0947192e-06
1.169399e-12
2.0947186e-06
1.5879789e-12
2.0947178e-06
2.22968e-12
2.0947166e-06
3.161162e-12
2.0947147e-06
4.9184392e-12
2.094712e-06
7.2497724e-12
2.0947066e-06
1.4062322e-11
2.0946999e-06
1.7861488e-11
2.0946796e-06
5.4335563e-11
2.0946544e-06
7.147002e-11
1.1153658e-06
2.9460082e-06
1.3401233e-07
2.9502055e-06
1.3238712e-07
2.9059457e-09
1.324414e-07
-9.655973e-11
1.3246176e-07
-3.5987055e-11
1.3246653e-07
-8.4386486e-12
1.3246799e-07
-2.597367e-12
1.3246878e-07
-1.4138182e-12
1.3246926e-07
-8.5855098e-13
1.3246955e-07
-5.1801794e-13
1.3246969e-07
-2.488415e-13
1.3246972e-07
-5.7330583e-14
1.3246968e-07
6.6246784e-14
1.324696e-07
1.5145264e-13
1.3246947e-07
2.1593094e-13
1.3246932e-07
2.6627978e-13
1.3246915e-07
3.0576202e-13
1.3246896e-07
3.3717649e-13
1.3246875e-07
3.6276892e-13
1.3246853e-07
3.8400684e-13
1.324683e-07
4.0187844e-13
1.3246806e-07
4.1712733e-13
1.3246782e-07
4.3025836e-13
1.3246757e-07
4.4168635e-13
1.3246731e-07
4.5171689e-13
1.3246705e-07
4.6057715e-13
1.3246678e-07
4.6844316e-13
1.3246651e-07
4.7545167e-13
1.3246624e-07
4.8172157e-13
1.3246596e-07
4.8733837e-13
1.3246568e-07
4.9236084e-13
1.324654e-07
4.9685443e-13
1.3246511e-07
5.0087163e-13
1.3246483e-07
5.0443974e-13
1.3246454e-07
5.0759026e-13
1.3246425e-07
5.1035839e-13
1.3246396e-07
5.1275679e-13
1.3246366e-07
5.1480609e-13
1.3246337e-07
5.1652627e-13
1.3246308e-07
5.1792595e-13
1.3246278e-07
5.1901596e-13
1.3246248e-07
5.198077e-13
1.3246219e-07
5.203096e-13
1.3246189e-07
5.205289e-13
1.324616e-07
5.204721e-13
1.324613e-07
5.2014532e-13
1.3246101e-07
5.1955118e-13
1.3246071e-07
5.1869837e-13
1.3246042e-07
5.1759083e-13
1.3246012e-07
5.1622939e-13
1.3245983e-07
5.1461964e-13
1.3245954e-07
5.1276476e-13
1.3245925e-07
5.106607e-13
1.3245896e-07
5.083336e-13
1.3245867e-07
5.0577577e-13
1.3245839e-07
5.0296009e-13
1.324581e-07
4.9991979e-13
1.3245782e-07
4.9667573e-13
1.3245754e-07
4.9317916e-13
1.3245726e-07
4.8945631e-13
1.3245698e-07
4.8554071e-13
1.3245671e-07
4.81395e-13
1.3245644e-07
4.7703516e-13
1.3245617e-07
4.7246454e-13
1.324559e-07
4.6768527e-13
1.3245564e-07
4.6269986e-13
1.3245538e-07
4.5751127e-13
1.3245512e-07
4.5212219e-13
1.3245487e-07
4.465355e-13
1.3245462e-07
4.4075417e-13
1.3245437e-07
4.3478108e-13
1.3245413e-07
4.2861926e-13
1.3245389e-07
4.2227166e-13
1.3245365e-07
4.1574146e-13
1.3245342e-07
4.090318e-13
1.3245319e-07
4.0214579e-13
1.3245297e-07
3.9508669e-13
1.3245275e-07
3.8785785e-13
1.3245253e-07
3.8046253e-13
1.3245232e-07
3.7290163e-13
1.3245211e-07
3.6518086e-13
1.3245191e-07
3.5730875e-13
1.3245171e-07
3.4928372e-13
1.3245151e-07
3.4110601e-13
1.3245133e-07
3.3278084e-13
1.3245114e-07
3.2430861e-13
1.3245096e-07
3.1568743e-13
1.3245079e-07
3.0686494e-13
1.3245062e-07
2.9807585e-13
1.324505e-07
2.0573068e-13
1.3245047e-07
5.5952566e-14
1.3245047e-07
6.3855294e-16
1.3245047e-07
-9.7218358e-17
1.3245047e-07
-1.1840711e-16
1.3245047e-07
-1.0999981e-16
1.3245047e-07
-9.7028895e-17
1.3245047e-07
-9.0756062e-17
1.3245047e-07
-8.5056003e-17
1.3245047e-07
-7.3899221e-17
1.3245047e-07
-6.2801062e-17
1.3245047e-07
-5.4872896e-17
1.3245047e-07
-4.7567039e-17
1.3245047e-07
-4.0745948e-17
1.3245047e-07
-3.4557311e-17
1.3245047e-07
-2.8786818e-17
1.3245047e-07
-2.2933197e-17
1.3245047e-07
-1.8439117e-17
1.3245047e-07
-1.0906748e-17
1.3245047e-07
-1.4231351e-17
1.3245047e-07
2.3153558e-17
1.3245047e-07
-6.5566479e-17
1.3245047e-07
1.0462186e-15
1.2043246e-15
2.1861302e-06
7.8416424e-14
2.1861302e-06
1.3700353e-13
2.1861301e-06
1.2934067e-13
2.1861301e-06
1.4533331e-13
2.18613e-06
1.7795715e-13
2.1861299e-06
2.206013e-13
2.1861299e-06
2.7585743e-13
2.1861298e-06
3.4835566e-13
2.1861296e-06
4.4372339e-13
2.1861294e-06
5.6953767e-13
2.1861292e-06
7.365837e-13
2.1861289e-06
9.6119908e-13
2.1861285e-06
1.267019e-12
2.186128e-06
1.6957952e-12
2.1861273e-06
2.3015995e-12
2.1861263e-06
3.2299744e-12
2.1861249e-06
4.576269e-12
2.1861227e-06
7.1158986e-12
2.1861194e-06
1.0478201e-11
2.1861132e-06
2.0311438e-11
2.1861053e-06
2.5787028e-11
2.1860818e-06
7.7818082e-11
2.1860545e-06
9.8751447e-11
1.19276e-06
3.9393028e-06
1.9663738e-07
3.9463281e-06
1.9426614e-07
5.2771806e-09
1.9434525e-07
-1.7567197e-10
1.9437555e-07
-6.6285663e-11
1.9438265e-07
-1.5538717e-11
1.9438481e-07
-4.7569298e-12
1.9438598e-07
-2.5877215e-12
1.943867e-07
-1.5704087e-12
1.9438712e-07
-9.4562899e-13
1.9438733e-07
-4.5196428e-13
1.9438737e-07
-1.0034808e-13
1.9438731e-07
1.268568e-13
1.9438718e-07
2.8362108e-13
1.9438699e-07
4.022831e-13
1.9438676e-07
4.9497965e-13
1.943865e-07
5.6770997e-13
1.9438621e-07
6.2560876e-13
1.943859e-07
6.7279728e-13
1.9438557e-07
7.1197207e-13
1.9438523e-07
7.4494982e-13
1.9438488e-07
7.7309768e-13
1.9438451e-07
7.9734453e-13
1.9438413e-07
8.1845318e-13
1.9438375e-07
8.3698585e-13
1.9438335e-07
8.533606e-13
1.9438295e-07
8.679013e-13
1.9438255e-07
8.8085961e-13
1.9438214e-07
8.924544e-13
1.9438172e-07
9.0284325e-13
1.943813e-07
9.1213441e-13
1.9438088e-07
9.2044834e-13
1.9438045e-07
9.2788184e-13
1.9438002e-07
9.3448529e-13
1.9437959e-07
9.4031665e-13
1.9437915e-07
9.4544076e-13
1.9437872e-07
9.4988104e-13
1.9437828e-07
9.5367553e-13
1.9437784e-07
9.5686094e-13
1.943774e-07
9.5945326e-13
1.9437695e-07
9.6147249e-13
1.9437651e-07
9.6293961e-13
1.9437607e-07
9.6387016e-13
1.9437562e-07
9.6427748e-13
1.9437518e-07
9.6417359e-13
1.9437474e-07
9.6356977e-13
1.9437429e-07
9.6247084e-13
1.9437385e-07
9.6089283e-13
1.9437341e-07
9.5884303e-13
1.9437297e-07
9.5632296e-13
1.9437253e-07
9.5334295e-13
1.9437209e-07
9.4990887e-13
1.9437166e-07
9.4601312e-13
1.9437123e-07
9.4170404e-13
1.9437079e-07
9.3696813e-13
1.9437037e-07
9.3175432e-13
1.9436994e-07
9.2612427e-13
1.9436952e-07
9.2011554e-13
1.943691e-07
9.1364027e-13
1.9436868e-07
9.0674663e-13
1.9436826e-07
8.9949386e-13
1.9436785e-07
8.9181561e-13
1.9436745e-07
8.8374075e-13
1.9436704e-07
8.7527522e-13
1.9436665e-07
8.6642305e-13
1.9436625e-07
8.5718893e-13
1.9436586e-07
8.4757834e-13
1.9436548e-07
8.3759624e-13
1.9436509e-07
8.2724798e-13
1.9436472e-07
8.1653903e-13
1.9436435e-07
8.0547478e-13
1.9436398e-07
7.940608e-13
1.9436362e-07
7.8230256e-13
1.9436327e-07
7.7020597e-13
1.9436292e-07
7.5777681e-13
1.9436258e-07
7.4502089e-13
1.9436224e-07
7.3194423e-13
1.9436191e-07
7.18553e-13
1.9436158e-07
7.048533e-13
1.9436127e-07
6.9084687e-13
1.9436096e-07
6.7654419e-13
1.9436065e-07
6.619609e-13
1.9436035e-07
6.4709428e-13
1.9436006e-07
6.3194486e-13
1.9435978e-07
6.1652228e-13
1.943595e-07
6.0082738e-13
1.9435923e-07
5.8485691e-13
1.9435897e-07
5.6851494e-13
1.9435872e-07
5.5224444e-13
1.9435854e-07
3.8120508e-13
1.9435849e-07
1.0372158e-13
1.9435849e-07
1.1918402e-15
1.9435849e-07
-1.8188504e-16
1.9435849e-07
-1.2225136e-16
1.9435849e-07
-1.9827644e-16
1.9435849e-07
-1.7779962e-16
1.9435849e-07
-1.6625023e-16
1.9435849e-07
-1.5574652e-16
1.9435849e-07
-1.3529356e-16
1.9435849e-07
-1.1496379e-16
1.9435849e-07
-1.0043388e-16
1.9435849e-07
-8.70443e-17
1.9435849e-07
-7.4550096e-17
1.9435849e-07
-6.3221117e-17
1.9435849e-07
-5.2664131e-17
1.9435849e-07
-4.1956213e-17
1.9435849e-07
-3.3777931e-17
1.9435849e-07
-1.9990279e-17
1.9435849e-07
-2.6381829e-17
1.9435849e-07
4.2359791e-17
1.9435849e-07
-1.2229105e-16
1.9435849e-07
1.9388047e-15
2.2102152e-15
2.3101177e-06
1.0798817e-13
2.3101176e-06
1.8908371e-13
2.3101176e-06
1.7889793e-13
2.3101175e-06
2.009481e-13
2.3101174e-06
2.4594275e-13
2.3101173e-06
3.0475139e-13
2.3101172e-06
3.8091902e-13
2.3101171e-06
4.8081316e-13
2.3101169e-06
6.1216492e-13
2.3101167e-06
7.8537653e-13
2.3101164e-06
1.0152481e-12
2.3101161e-06
1.3241977e-12
2.3101156e-06
1.7446271e-12
2.310115e-06
2.3338106e-12
2.3101141e-06
3.1657121e-12
2.3101129e-06
4.4400348e-12
2.3101112e-06
6.2860248e-12
2.3101085e-06
9.7679328e-12
2.3101046e-06
1.4367332e-11
2.3100971e-06
2.7830845e-11
2.3100876e-06
3.5317864e-11
2.3100598e-06
1.0565502e-10
2.3100298e-06
1.28683e-10
1.2912148e-06
4.9581178e-06
2.6867385e-07
4.968869e-06
2.6542775e-07
8.5232794e-09
2.6553475e-07
-2.8266765e-10
2.6557711e-07
-1.086482e-10
2.6558706e-07
-2.5488518e-11
2.6559007e-07
-7.7610649e-12
2.655917e-07
-4.2172717e-12
2.6559269e-07
-2.5593417e-12
2.6559328e-07
-1.5396041e-12
2.6559356e-07
-7.3361537e-13
2.6559362e-07
-1.5878385e-13
2.6559353e-07
2.131777e-13
2.6559335e-07
4.7000942e-13
2.6559308e-07
6.6449362e-13
2.6559276e-07
8.1649485e-13
2.6559239e-07
9.3582633e-13
2.6559199e-07
1.0308743e-12
2.6559155e-07
1.1083735e-12
2.6559109e-07
1.1727367e-12
2.6559061e-07
1.226938e-12
2.6559011e-07
1.2732157e-12
2.655896e-07
1.3130924e-12
2.6558907e-07
1.3478175e-12
2.6558852e-07
1.3783125e-12
2.6558797e-07
1.4052629e-12
2.6558741e-07
1.4291998e-12
2.6558684e-07
1.4505358e-12
2.6558626e-07
1.4696298e-12
2.6558568e-07
1.4867406e-12
2.6558509e-07
1.5020462e-12
2.655845e-07
1.515744e-12
2.655839e-07
1.5279928e-12
2.6558329e-07
1.5388758e-12
2.6558268e-07
1.5484881e-12
2.6558207e-07
1.5569359e-12
2.6558146e-07
1.564258e-12
2.6558084e-07
1.5705169e-12
2.6558022e-07
1.5757727e-12
2.655796e-07
1.5800518e-12
2.6557898e-07
1.5833872e-12
2.6557836e-07
1.5858133e-12
2.6557773e-07
1.5873556e-12
2.6557711e-07
1.5880361e-12
2.6557648e-07
1.5878745e-12
2.6557586e-07
1.5868895e-12
2.6557524e-07
1.5850888e-12
2.6557462e-07
1.5824989e-12
2.65574e-07
1.5791317e-12
2.6557338e-07
1.5749899e-12
2.6557276e-07
1.5700902e-12
2.6557215e-07
1.5644426e-12
2.6557153e-07
1.5580341e-12
2.6557093e-07
1.5509444e-12
2.6557032e-07
1.5431526e-12
2.6556972e-07
1.5345732e-12
2.6556912e-07
1.5253075e-12
2.6556852e-07
1.5154159e-12
2.6556793e-07
1.5047579e-12
2.6556734e-07
1.4934122e-12
2.6556676e-07
1.4814714e-12
2.6556619e-07
1.468831e-12
2.6556561e-07
1.4555372e-12
2.6556505e-07
1.4415995e-12
2.6556449e-07
1.4270248e-12
2.6556393e-07
1.4118207e-12
2.6556338e-07
1.3959963e-12
2.6556284e-07
1.3795598e-12
2.6556231e-07
1.3625199e-12
2.6556178e-07
1.3448857e-12
2.6556126e-07
1.3266661e-12
2.6556074e-07
1.3078702e-12
2.6556024e-07
1.2885071e-12
2.6555974e-07
1.2685864e-12
2.6555925e-07
1.2481177e-12
2.6555877e-07
1.2271107e-12
2.6555829e-07
1.2055751e-12
2.6555783e-07
1.1835212e-12
2.6555737e-07
1.160959e-12
2.6555692e-07
1.1378916e-12
2.6555649e-07
1.1143361e-12
2.6555606e-07
1.0903179e-12
2.6555564e-07
1.0658328e-12
2.6555523e-07
1.040882e-12
2.6555483e-07
1.0154812e-12
2.6555444e-07
9.8963191e-13
2.6555406e-07
9.6332909e-13
2.655537e-07
9.364158e-13
2.6555334e-07
9.0963898e-13
2.6555309e-07
6.2802162e-13
2.6555302e-07
1.7099403e-13
2.6555302e-07
1.9969624e-15
2.6555302e-07
-3.0614874e-16
2.6555302e-07
-3.6908453e-16
2.6555302e-07
-3.2231742e-16
2.6555302e-07
-2.9040122e-16
2.6555302e-07
-2.7149951e-16
2.6555302e-07
-2.5425607e-16
2.6555302e-07
-2.2089875e-16
2.6555302e-07
-1.8774912e-16
2.6555303e-07
-1.6400062e-16
2.6555303e-07
-1.4211167e-16
2.6555303e-07
-1.2169155e-16
2.6555303e-07
-1.031829e-16
2.6555303e-07
-8.5940863e-17
2.6555303e-07
-6.8456893e-17
2.6555303e-07
-5.5149947e-17
2.6555303e-07
-3.2637849e-17
2.6555303e-07
-4.3389404e-17
2.6555303e-07
6.8993623e-17
2.6555303e-07
-2.0186327e-16
2.6555302e-07
3.1896798e-15
3.6136458e-15
2.4685311e-06
1.4460188e-13
2.4685311e-06
2.5383058e-13
2.468531e-06
2.4075819e-13
2.4685309e-06
2.7032603e-13
2.4685309e-06
3.3068015e-13
2.4685307e-06
4.0955975e-13
2.4685306e-06
5.1167395e-13
2.4685305e-06
6.4553574e-13
2.4685302e-06
8.2147135e-13
2.46853e-06
1.0533638e-12
2.4685296e-06
1.3609559e-12
2.4685292e-06
1.7741496e-12
2.4685286e-06
2.3361202e-12
2.4685278e-06
3.1232377e-12
2.4685267e-06
4.2338204e-12
2.4685252e-06
5.9342196e-12
2.4685231e-06
8.3945308e-12
2.4685199e-06
1.3034569e-11
2.4685151e-06
1.9148784e-11
2.4685058e-06
3.7063995e-11
2.4684941e-06
4.7016039e-11
2.4684605e-06
1.3933223e-10
2.4684272e-06
1.6195916e-10
1.4132762e-06
6.0132688e-06
3.5330936e-07
6.0288359e-06
3.4900095e-07
1.2831686e-08
3.4913947e-07
-4.2118494e-10
3.4919695e-07
-1.6613372e-10
3.4921051e-07
-3.904571e-11
3.4921457e-07
-1.1823616e-11
3.4921677e-07
-6.414469e-12
3.4921811e-07
-3.8949968e-12
3.4921891e-07
-2.3431201e-12
3.4921929e-07
-1.1153014e-12
3.4921937e-07
-2.3818223e-13
3.4921925e-07
3.3022084e-13
3.49219e-07
7.2300367e-13
3.4921864e-07
1.0205879e-12
3.4921821e-07
1.2533041e-12
3.4921771e-07
1.4361212e-12
3.4921716e-07
1.5818194e-12
3.4921656e-07
1.7006706e-12
3.4921594e-07
1.7994514e-12
3.4921528e-07
1.8840878e-12
3.492146e-07
1.9536847e-12
3.492139e-07
2.0148877e-12
3.4921318e-07
2.0682282e-12
3.4921244e-07
2.1150811e-12
3.4921169e-07
2.1564967e-12
3.4921093e-07
2.1932884e-12
3.4921015e-07
2.2260881e-12
3.4920936e-07
2.2554454e-12
3.4920857e-07
2.2817576e-12
3.4920777e-07
2.3052982e-12
3.4920696e-07
2.326369e-12
3.4920614e-07
2.3452137e-12
3.4920532e-07
2.3619609e-12
3.4920449e-07
2.376756e-12
3.4920365e-07
2.3897615e-12
3.4920282e-07
2.401038e-12
3.4920198e-07
2.410681e-12
3.4920113e-07
2.4187824e-12
3.4920029e-07
2.4253834e-12
3.4919944e-07
2.4305345e-12
3.4919859e-07
2.4342885e-12
3.4919774e-07
2.4366846e-12
3.4919689e-07
2.4377565e-12
3.4919604e-07
2.4375347e-12
3.491952e-07
2.4360477e-12
3.4919435e-07
2.4333077e-12
3.491935e-07
2.4293549e-12
3.4919266e-07
2.4242079e-12
3.4919181e-07
2.4178708e-12
3.4919097e-07
2.4103694e-12
3.4919013e-07
2.4017188e-12
3.491893e-07
2.3918992e-12
3.4918847e-07
2.381032e-12
3.4918764e-07
2.3690887e-12
3.4918682e-07
2.3559353e-12
3.4918601e-07
2.3417258e-12
3.491852e-07
2.3265518e-12
3.4918439e-07
2.3102041e-12
3.4918359e-07
2.2928021e-12
3.491828e-07
2.2744812e-12
3.4918201e-07
2.2550873e-12
3.4918123e-07
2.2346899e-12
3.4918046e-07
2.213303e-12
3.491797e-07
2.1909373e-12
3.4917894e-07
2.1676048e-12
3.4917819e-07
2.1433193e-12
3.4917746e-07
2.1180934e-12
3.4917673e-07
2.0919405e-12
3.4917601e-07
2.0648747e-12
3.491753e-07
2.0369093e-12
3.491746e-07
2.0080587e-12
3.4917391e-07
1.9783366e-12
3.4917323e-07
1.9477579e-12
3.4917256e-07
1.9163374e-12
3.491719e-07
1.8840898e-12
3.4917126e-07
1.8510302e-12
3.4917062e-07
1.8171743e-12
3.4917e-07
1.7825375e-12
3.4916939e-07
1.747125e-12
3.4916879e-07
1.7109625e-12
3.4916821e-07
1.6740886e-12
3.4916764e-07
1.6364974e-12
3.4916708e-07
1.5981912e-12
3.4916654e-07
1.5591939e-12
3.4916601e-07
1.5195078e-12
3.4916549e-07
1.4791255e-12
3.4916499e-07
1.4378064e-12
3.4916451e-07
1.396732e-12
3.4916417e-07
9.6454557e-13
3.4916408e-07
2.6287017e-13
3.4916408e-07
3.1503864e-15
3.4916408e-07
-4.849111e-16
3.4916408e-07
-5.5731921e-16
3.4916408e-07
-4.9489533e-16
3.4916408e-07
-4.4317595e-16
3.4916408e-07
-4.143548e-16
3.4916408e-07
-3.8792776e-16
3.4916408e-07
-3.3719541e-16
3.4916408e-07
-2.867549e-16
3.4916408e-07
-2.5046363e-16
3.4916408e-07
-2.1699869e-16
3.4916408e-07
-1.8578491e-16
3.4916408e-07
-1.5749363e-16
3.4916408e-07
-1.3114146e-16
3.4916408e-07
-1.0442539e-16
3.4916408e-07
-8.4140124e-17
3.4916408e-07
-4.973434e-17
3.4916408e-07
-6.6478909e-17
3.4916408e-07
1.051721e-16
3.4916408e-07
-3.1041504e-16
3.4916408e-07
4.8878461e-15
5.5151038e-15
2.6637313e-06
1.9077664e-13
2.6637313e-06
3.3583804e-13
2.6637312e-06
3.1944369e-13
2.6637311e-06
3.585174e-13
2.663731e-06
4.3829875e-13
2.6637308e-06
5.4256783e-13
2.6637307e-06
6.7747975e-13
2.6637305e-06
8.5424546e-13
2.6637302e-06
1.0864516e-12
2.6637299e-06
1.3923488e-12
2.6637294e-06
1.7978762e-12
2.6637289e-06
2.3423161e-12
2.6637281e-06
3.0823262e-12
2.6637271e-06
4.1181962e-12
2.6637258e-06
5.5786046e-12
2.6637239e-06
7.8134114e-12
2.6637212e-06
1.1042808e-11
2.6637171e-06
1.7132265e-11
2.6637112e-06
2.5135183e-11
2.6636996e-06
4.8608428e-11
2.663685e-06
6.1638713e-11
2.6636435e-06
1.8083131e-10
2.6636061e-06
1.9935818e-10
1.5619397e-06
7.1149351e-06
4.5410471e-07
7.1366709e-06
4.4847506e-07
1.8461337e-08
4.4864897e-07
-5.9509506e-10
4.4872583e-07
-2.4298662e-10
4.4874406e-07
-5.7277538e-11
4.4874948e-07
-1.724386e-11
4.487524e-07
-9.3347694e-12
4.4875418e-07
-5.6745895e-12
4.4875525e-07
-3.4171417e-12
4.4875577e-07
-1.6279832e-12
4.4875587e-07
-3.472522e-13
4.4875572e-07
4.8402502e-13
4.4875538e-07
1.058956e-12
4.4875491e-07
1.4948188e-12
4.4875433e-07
1.8359105e-12
4.4875366e-07
2.1040617e-12
4.4875292e-07
2.3179017e-12
4.4875213e-07
2.4924225e-12
4.4875129e-07
2.6375572e-12
4.4875042e-07
2.7596122e-12
4.4874951e-07
2.8642478e-12
4.4874857e-07
2.9542216e-12
4.487476e-07
3.0326757e-12
4.4874662e-07
3.1016015e-12
4.4874561e-07
3.1625399e-12
4.4874459e-07
3.2166848e-12
4.4874355e-07
3.2649628e-12
4.487425e-07
3.3081794e-12
4.4874143e-07
3.3469193e-12
4.4874035e-07
3.3815854e-12
4.4873927e-07
3.4126196e-12
4.4873817e-07
3.4403797e-12
4.4873707e-07
3.4650563e-12
4.4873596e-07
3.4868629e-12
4.4873484e-07
3.5060373e-12
4.4873372e-07
3.5226703e-12
4.487326e-07
3.5369016e-12
4.4873147e-07
3.5488661e-12
4.4873033e-07
3.558625e-12
4.487292e-07
3.566253e-12
4.4872806e-07
3.5718272e-12
4.4872692e-07
3.5754056e-12
4.4872578e-07
3.5770379e-12
4.4872464e-07
3.5767688e-12
4.487235e-07
3.5746403e-12
4.4872237e-07
3.5706709e-12
4.4872123e-07
3.5649189e-12
4.487201e-07
3.5574122e-12
4.4871897e-07
3.548157e-12
4.4871784e-07
3.5371909e-12
4.4871672e-07
3.5245364e-12
4.487156e-07
3.5101641e-12
4.4871449e-07
3.4942511e-12
4.4871338e-07
3.4767615e-12
4.4871228e-07
3.4574938e-12
4.4871118e-07
3.4366714e-12
4.4871009e-07
3.4144285e-12
4.4870901e-07
3.3904663e-12
4.4870794e-07
3.3649587e-12
4.4870688e-07
3.3380947e-12
4.4870582e-07
3.309657e-12
4.4870478e-07
3.2797452e-12
4.4870374e-07
3.2483797e-12
4.4870272e-07
3.2155763e-12
4.487017e-07
3.1813526e-12
4.487007e-07
3.145729e-12
4.4869971e-07
3.1087239e-12
4.4869873e-07
3.0703571e-12
4.4869777e-07
3.0306492e-12
4.4869681e-07
2.98962e-12
4.4869588e-07
2.9472904e-12
4.4869495e-07
2.9036806e-12
4.4869404e-07
2.8588126e-12
4.4869314e-07
2.812708e-12
4.4869226e-07
2.7653883e-12
4.486914e-07
2.7168759e-12
4.4869055e-07
2.6671939e-12
4.4868971e-07
2.616365e-12
4.4868889e-07
2.5643969e-12
4.4868809e-07
2.5113275e-12
4.4868731e-07
2.4572118e-12
4.4868655e-07
2.4020426e-12
4.486858e-07
2.3458237e-12
4.4868507e-07
2.2885898e-12
4.4868436e-07
2.2303443e-12
4.4868367e-07
2.1710766e-12
4.4868299e-07
2.1104322e-12
4.4868234e-07
2.05021e-12
4.4868189e-07
1.4162545e-12
4.4868176e-07
3.8645729e-13
4.4868176e-07
4.8005459e-15
4.4868176e-07
-7.3026034e-16
4.4868176e-07
-8.1003617e-16
4.4868176e-07
-7.260188e-16
4.4868176e-07
-6.4794484e-16
4.4868176e-07
-6.0598819e-16
4.4868176e-07
-5.6723006e-16
4.4868176e-07
-4.9345857e-16
4.4868176e-07
-4.2002447e-16
4.4868176e-07
-3.6685682e-16
4.4868176e-07
-3.1779129e-16
4.4868176e-07
-2.7203036e-16
4.4868176e-07
-2.3054032e-16
4.4868176e-07
-1.9189006e-16
4.4868176e-07
-1.5271267e-16
4.4868176e-07
-1.2301142e-16
4.4868176e-07
-7.2513984e-17
4.4868176e-07
-9.7375873e-17
4.4868176e-07
1.5408235e-16
4.4868177e-07
-4.5689448e-16
4.4868176e-07
7.1566151e-15
8.0545387e-15
2.8986272e-06
2.4995969e-13
2.8986271e-06
4.4142212e-13
2.898627e-06
4.2119992e-13
2.8986269e-06
4.7249343e-13
2.8986268e-06
5.7725135e-13
2.8986266e-06
7.1416704e-13
2.8986264e-06
8.9121904e-13
2.8986261e-06
1.1230656e-12
2.8986258e-06
1.4274557e-12
2.8986253e-06
1.8282088e-12
2.8986248e-06
2.3591569e-12
2.898624e-06
3.0715283e-12
2.8986231e-06
4.0391223e-12
2.8986218e-06
5.392671e-12
2.8986201e-06
7.2993011e-12
2.8986177e-06
1.0215176e-11
2.8986143e-06
1.4422859e-11
2.8986091e-06
2.2355276e-11
2.8986015e-06
3.2750614e-11
2.8985868e-06
6.3273293e-11
2.8985682e-06
8.0211217e-11
2.8985162e-06
2.3281049e-10
2.8984738e-06
2.41782e-10
1.7407142e-06
8.2726947e-06
5.7508297e-07
8.3023022e-06
5.6778349e-07
2.5760823e-08
5.6799625e-07
-8.0785695e-10
5.6809823e-07
-3.4496838e-10
5.6812261e-07
-8.1657187e-11
5.681298e-07
-2.4430377e-11
5.6813365e-07
-1.3188114e-11
5.6813601e-07
-8.0301575e-12
5.6813743e-07
-4.8453766e-12
5.6813812e-07
-2.3148332e-12
5.6813827e-07
-4.9884858e-13
5.6813807e-07
6.8189369e-13
5.6813763e-07
1.4992892e-12
5.6813701e-07
2.1194504e-12
5.6813624e-07
2.605177e-12
5.6813536e-07
2.9873527e-12
5.6813438e-07
3.2923354e-12
5.6813333e-07
3.5413718e-12
5.6813222e-07
3.7485481e-12
5.6813106e-07
3.9229616e-12
5.6812985e-07
4.0723584e-12
5.681286e-07
4.2009646e-12
5.6812732e-07
4.3131098e-12
5.6812601e-07
4.4116537e-12
5.6812468e-07
4.4987941e-12
5.6812332e-07
4.5762336e-12
5.6812194e-07
4.6452933e-12
5.6812054e-07
4.7071209e-12
5.6811912e-07
4.7625522e-12
5.6811769e-07
4.8121656e-12
5.6811625e-07
4.8565892e-12
5.6811479e-07
4.8963332e-12
5.6811333e-07
4.9316737e-12
5.6811185e-07
4.9629152e-12
5.6811037e-07
4.9903954e-12
5.6810887e-07
5.0142469e-12
5.6810738e-07
5.0346691e-12
5.6810587e-07
5.0518537e-12
5.6810437e-07
5.0658896e-12
5.6810286e-07
5.0768841e-12
5.6810134e-07
5.0849471e-12
5.6809983e-07
5.0901615e-12
5.6809831e-07
5.0925988e-12
5.680968e-07
5.0923229e-12
5.6809528e-07
5.0893941e-12
5.6809377e-07
5.0838393e-12
5.6809226e-07
5.075741e-12
5.6809075e-07
5.0651394e-12
5.6808925e-07
5.0520443e-12
5.6808775e-07
5.0365086e-12
5.6808625e-07
5.0185651e-12
5.6808476e-07
4.9981711e-12
5.6808328e-07
4.9755771e-12
5.6808181e-07
4.9507418e-12
5.6808034e-07
4.9233717e-12
5.6807889e-07
4.8937775e-12
5.6807744e-07
4.8621543e-12
5.68076e-07
4.8280861e-12
5.6807457e-07
4.7918183e-12
5.6807316e-07
4.753609e-12
5.6807175e-07
4.7131586e-12
5.6807036e-07
4.6706065e-12
5.6806899e-07
4.6259815e-12
5.6806762e-07
4.5793062e-12
5.6806627e-07
4.530606e-12
5.6806494e-07
4.4799099e-12