/*--------------------------------*- C++ -*----------------------------------*\
| =========                 |                                                 |
| \\      /  F ield         | OpenFOAM: The Open Source CFD Toolbox           |
|  \\    /   O peration     | Version:  2206                                  |
|   \\  /    A nd           | Website:  www.openfoam.com                      |
|    \\/     M anipulation  |                                                 |
\*---------------------------------------------------------------------------*/
FoamFile
{
    version     2.0;
    format      ascii;
    arch        "LSB;label=32;scalar=64";
    class       volVectorField;
    location    "100";
    object      U;
}
// * * * * * * * * * * * * * * * * * * * * * * * * * * * * * * * * * * * * * //

dimensions      [0 1 -1 0 0 0 0];

internalField   nonuniform List<vector> 
13056
(
(1 1.8817796e-13 5.3653082e-26)
(0.99999999 3.7158741e-13 0)
(0.99999997 3.9591761e-13 0)
(0.99999996 5.0513095e-13 0)
(0.99999994 7.0229461e-13 0)
(0.99999992 9.8809381e-13 0)
(0.9999999 1.4016855e-12 0)
(0.99999987 2.006577e-12 0)
(0.99999983 2.8947442e-12 0)
(0.99999978 4.2031223e-12 0)
(0.99999972 6.1400088e-12 0)
(0.99999964 9.0327817e-12 0)
(0.99999953 1.3390625e-11 0)
(0.99999938 2.0093764e-11 0)
(0.99999919 3.0461461e-11 0)
(0.99999892 4.751724e-11 0)
(0.99999855 7.4418144e-11 0)
(0.99999801 1.2696804e-10 0)
(0.99999712 2.0358274e-10 0)
(0.9999959 4.2502767e-10 0)
(0.99999304 5.734844e-10 0)
(0.99999064 1.8621691e-09 0)
(0.99997701 2.7137704e-09 -2.7769886e-21)
(0.99996862 0.00012436231 3.1149754e-17)
(0.012931636 0.0001252893 0)
(0.012604355 3.0684121e-08 -1.028635e-18)
(0.012611447 -2.9912165e-10 -1.3352981e-21)
(0.012614595 -1.0868607e-10 0)
(0.012615319 -2.7226151e-11 0)
(0.012615505 -8.8030153e-12 0)
(0.012615603 -4.625713e-12 0)
(0.01261566 -2.9208935e-12 0)
(0.012615697 -1.8956957e-12 0)
(0.012615717 -1.0530391e-12 0)
(0.012615725 -4.5964479e-13 0)
(0.012615724 -5.1100588e-14 0)
(0.012615718 1.6575684e-13 0)
(0.012615709 3.4894387e-13 0)
(0.012615696 4.9014674e-13 0)
(0.012615681 5.9661668e-13 0)
(0.012615664 6.7731593e-13 0)
(0.012615646 7.3940146e-13 0)
(0.012615626 7.8758337e-13 0)
(0.012615605 8.2493906e-13 0)
(0.012615584 8.5388691e-13 0)
(0.012615561 8.7598888e-13 0)
(0.012615538 8.9261251e-13 0)
(0.012615515 9.047251e-13 0)
(0.012615491 9.1308362e-13 0)
(0.012615466 9.1827699e-13 0)
(0.012615441 9.2076055e-13 0)
(0.012615416 9.2091877e-13 0)
(0.012615391 9.1904706e-13 0)
(0.012615365 9.1537494e-13 0)
(0.012615339 9.1011683e-13 0)
(0.012615312 9.0344814e-13 0)
(0.012615286 8.9550136e-13 0)
(0.012615259 8.8640054e-13 0)
(0.012615232 8.7626622e-13 0)
(0.012615205 8.6518072e-13 0)
(0.012615178 8.5323074e-13 0)
(0.012615151 8.4049953e-13 0)
(0.012615124 8.2705001e-13 0)
(0.012615096 8.1294261e-13 0)
(0.012615069 7.9823893e-13 0)
(0.012615041 7.8299367e-13 0)
(0.012615014 7.6725727e-13 0)
(0.012614986 7.5107771e-13 0)
(0.012614959 7.3450114e-13 0)
(0.012614931 7.1756764e-13 0)
(0.012614904 7.0032372e-13 0)
(0.012614877 6.8280911e-13 0)
(0.012614849 6.6505843e-13 0)
(0.012614822 6.4711087e-13 0)
(0.012614795 6.2900234e-13 0)
(0.012614768 6.1075795e-13 0)
(0.012614741 5.9243773e-13 0)
(0.012614714 5.7406798e-13 0)
(0.012614688 5.5564968e-13 0)
(0.012614661 5.3723102e-13 0)
(0.012614635 5.1883512e-13 0)
(0.012614609 5.0050661e-13 0)
(0.012614583 4.8227961e-13 0)
(0.012614557 4.6416131e-13 0)
(0.012614532 4.461815e-13 0)
(0.012614506 4.28367e-13 0)
(0.012614481 4.1074364e-13 0)
(0.012614456 3.933335e-13 0)
(0.012614432 3.7615819e-13 0)
(0.012614408 3.5923912e-13 0)
(0.012614384 3.4259647e-13 0)
(0.01261436 3.2624948e-13 0)
(0.012614336 3.1021634e-13 0)
(0.012614313 2.9451413e-13 0)
(0.012614291 2.7915894e-13 0)
(0.012614268 2.6416568e-13 0)
(0.012614246 2.4954837e-13 0)
(0.012614224 2.353198e-13 0)
(0.012614203 2.2149169e-13 0)
(0.012614182 2.0807467e-13 0)
(0.012614161 1.950783e-13 0)
(0.012614141 1.8251097e-13 0)
(0.012614121 1.7037918e-13 0)
(0.012614101 1.5868986e-13 0)
(0.012614082 1.474495e-13 0)
(0.012614064 1.3666037e-13 0)
(0.012614045 1.2632434e-13 0)
(0.012614028 1.1644335e-13 0)
(0.01261401 1.0701662e-13 0)
(0.012613993 9.8040887e-14 0)
(0.012613977 8.9491591e-14 0)
(0.012613961 8.1452037e-14 0)
(0.012613946 5.2718024e-14 0)
(0.01261394 1.4195433e-14 0)
(0.01261394 2.7841519e-16 0)
(0.01261394 -2.4769121e-17 0)
(0.01261394 -3.5473753e-17 0)
(0.01261394 -3.7282155e-17 0)
(0.01261394 -3.2705701e-17 0)
(0.01261394 -3.0973658e-17 0)
(0.01261394 -2.9175168e-17 0)
(0.01261394 -2.5909136e-17 0)
(0.01261394 -2.2504018e-17 0)
(0.01261394 -1.9738163e-17 0)
(0.01261394 -1.7149793e-17 0)
(0.01261394 -1.4711313e-17 0)
(0.01261394 -1.244132e-17 0)
(0.01261394 -1.0279806e-17 0)
(0.01261394 -8.0951509e-18 0)
(0.01261394 -6.1854533e-18 0)
(0.01261394 -3.435022e-18 0)
(0.01261394 -3.6272739e-18 0)
(0.01261394 9.2581719e-18 0)
(0.01261394 -1.5768668e-17 0)
(0.01261394 2.3658119e-16 0)
(0.01261394 3.8829413e-16 0)
(1 6.0248172e-13 0)
(0.99999998 1.1912124e-12 0)
(0.99999997 1.2707108e-12 0)
(0.99999995 1.6209827e-12 0)
(0.99999994 2.2531353e-12 0)
(0.99999992 3.1691132e-12 0)
(0.99999989 4.4941562e-12 0)
(0.99999985 6.4314505e-12 0)
(0.99999981 9.2750546e-12 0)
(0.99999976 1.3462562e-11 0)
(0.99999969 1.9659365e-11 0)
(0.99999959 2.891094e-11 0)
(0.99999947 4.2842435e-11 0)
(0.99999931 6.4263033e-11 0)
(0.9999991 9.7377678e-11 0)
(0.99999881 1.518318e-10 0)
(0.99999838 2.3765391e-10 0)
(0.99999779 4.0524506e-10 0)
(0.99999681 6.4924547e-10 0)
(0.99999546 1.3544266e-09 0)
(0.9999923 1.8270302e-09 0)
(0.99998966 5.8916671e-09 0)
(0.99997485 8.374271e-09 1.0119852e-20)
(0.99996702 0.00037017337 -1.6074855e-22)
(0.038764811 0.00037072301 0)
(0.037806869 1.6807022e-07 0)
(0.03782823 -5.306145e-09 -2.0455355e-21)
(0.037837634 -1.9857692e-09 0)
(0.037839793 -4.6368163e-10 0)
(0.037840343 -1.4312634e-10 0)
(0.037840631 -7.7153415e-11 0)
(0.0378408 -4.6585081e-11 0)
(0.037840908 -2.8066567e-11 0)
(0.037840967 -1.3600233e-11 0)
(0.037840988 -3.4858811e-12 0)
(0.037840986 2.8677992e-12 0)
(0.037840968 7.1901031e-12 0)
(0.037840938 1.034887e-11 0)
(0.037840899 1.2727373e-11 0)
(0.037840853 1.4511541e-11 0)
(0.037840801 1.5855812e-11 0)
(0.037840745 1.6881889e-11 0)
(0.037840685 1.7669376e-11 0)
(0.037840622 1.8271818e-11 0)
(0.037840556 1.8729727e-11 0)
(0.037840488 1.9070407e-11 0)
(0.037840419 1.9316454e-11 0)
(0.037840347 1.9484458e-11 0)
(0.037840274 1.9586936e-11 0)
(0.0378402 1.9633672e-11 0)
(0.037840124 1.9632371e-11 0)
(0.037840047 1.958966e-11 0)
(0.03783997 1.9510523e-11 0)
(0.037839892 1.9398678e-11 0)
(0.037839812 1.9257952e-11 0)
(0.037839732 1.9091513e-11 0)
(0.037839652 1.8901454e-11 0)
(0.037839571 1.8689961e-11 0)
(0.03783949 1.8459273e-11 0)
(0.037839408 1.8210735e-11 0)
(0.037839325 1.794595e-11 0)
(0.037839243 1.7666442e-11 0)
(0.03783916 1.7373305e-11 0)
(0.037839077 1.7067682e-11 0)
(0.037838994 1.6750711e-11 0)
(0.037838911 1.6423406e-11 0)
(0.037838827 1.6086719e-11 0)
(0.037838744 1.5741563e-11 0)
(0.037838661 1.5388818e-11 0)
(0.037838578 1.5029247e-11 0)
(0.037838494 1.4663773e-11 0)
(0.037838412 1.4293162e-11 0)
(0.037838329 1.391808e-11 0)
(0.037838246 1.3539314e-11 0)
(0.037838164 1.3157566e-11 0)
(0.037838082 1.2773345e-11 0)
(0.037838001 1.2387899e-11 0)
(0.037837919 1.2001588e-11 0)
(0.037837839 1.1614361e-11 0)
(0.037837758 1.122755e-11 0)
(0.037837679 1.0842155e-11 0)
(0.037837599 1.0457606e-11 -1.7217921e-26)
(0.037837521 1.0075e-11 -1.2235508e-26)
(0.037837443 9.6955384e-12 0)
(0.037837365 9.3188927e-12 0)
(0.037837289 8.9458565e-12 0)
(0.037837213 8.5769351e-12 0)
(0.037837137 8.2125869e-12 0)
(0.037837063 7.8532591e-12 0)
(0.037836989 7.4993877e-12 0)
(0.037836917 7.1513827e-12 0)
(0.037836845 6.8096368e-12 0)
(0.037836774 6.4745218e-12 0)
(0.037836704 6.146387e-12 0)
(0.037836634 5.825561e-12 0)
(0.037836566 5.5123493e-12 0)
(0.037836499 5.2070379e-12 0)
(0.037836433 4.9098888e-12 0)
(0.037836368 4.6211415e-12 0)
(0.037836305 4.3410132e-12 0)
(0.037836242 4.0696992e-12 0)
(0.03783618 3.8073704e-12 0)
(0.03783612 3.5541513e-12 0)
(0.037836061 3.310192e-12 0)
(0.037836003 3.0756397e-12 0)
(0.037835947 2.8505249e-12 0)
(0.037835891 2.6348786e-12 0)
(0.037835838 2.4287513e-12 0)
(0.037835785 2.2321331e-12 0)
(0.037835734 2.0449807e-12 0)
(0.037835684 1.8669194e-12 0)
(0.037835636 1.6992671e-12 0)
(0.037835589 1.0963237e-12 0)
(0.037835571 2.9063431e-13 0)
(0.037835571 3.3913132e-15 0)
(0.037835571 -4.7224399e-16 0)
(0.037835571 -6.1939359e-16 0)
(0.037835571 -5.9635033e-16 0)
(0.037835571 -5.2154789e-16 0)
(0.037835571 -4.8842628e-16 0)
(0.037835571 -4.5816067e-16 0)
(0.037835571 -3.9870691e-16 0)
(0.037835571 -3.3934995e-16 0)
(0.037835571 -2.9665333e-16 0)
(0.037835571 -2.5726856e-16 0)
(0.037835571 -2.2045917e-16 0)
(0.037835571 -1.8697487e-16 0)
(0.037835571 -1.5568667e-16 0)
(0.037835571 -1.2394617e-16 0)
(0.037835571 -9.9170239e-17 0)
(0.037835571 -5.8425322e-17 0)
(0.037835571 -7.2868261e-17 0)
(0.037835571 1.2372632e-16 0)
(0.037835571 -3.27538e-16 0)
(0.037835571 5.4078844e-15 0)
(0.037835571 6.4283966e-15 1.2113231e-26)
(1 1.075986e-12 0)
(0.99999998 2.1289993e-12 0)
(0.99999997 2.2743715e-12 0)
(0.99999995 2.9007118e-12 0)
(0.99999993 4.0307091e-12 0)
(0.9999999 5.6675285e-12 0)
(0.99999987 8.0344333e-12 0)
(0.99999984 1.1493813e-11 0)
(0.99999979 1.6569811e-11 0)
(0.99999973 2.4042046e-11 0)
(0.99999965 3.509551e-11 0)
(0.99999954 5.1591504e-11 0)
(0.99999941 7.6421679e-11 0)
(0.99999923 1.1458396e-10 0)
(0.99999899 1.7355003e-10 0)
(0.99999866 2.7047297e-10 0)
(0.99999818 4.2311203e-10 0)
(0.99999752 7.210725e-10 0)
(0.99999642 1.1542849e-09 0)
(0.99999491 2.406222e-09 0)
(0.9999914 3.2453411e-09 0)
(0.99998846 1.0388544e-08 0)
(0.9999722 1.4384906e-08 -5.3561046e-21)
(0.99996511 0.00061429821 1.4387876e-55)
(0.064762512 0.00061435406 -1.4386252e-55)
(0.063182847 4.7797253e-07 0)
(0.063218392 -1.5634903e-08 1.083476e-21)
(0.063234179 -5.780969e-09 0)
(0.063237807 -1.3461722e-09 0)
(0.063238723 -4.1230899e-10 0)
(0.063239202 -2.2232086e-10 0)
(0.063239482 -1.3390476e-10 0)
(0.063239662 -8.0265255e-11 0)
(0.063239759 -3.8458168e-11 0)
(0.063239794 -9.2000306e-12 0)
(0.063239788 9.3135591e-12 0)
(0.063239756 2.1754491e-11 0)
(0.063239705 3.0902431e-11 0)
(0.063239638 3.7797642e-11 0)
(0.06323956 4.2971167e-11 0)
(0.063239472 4.6869673e-11 0)
(0.063239376 4.9845156e-11 0)
(0.063239274 5.2127968e-11 0)
(0.063239167 5.3874025e-11 0)
(0.063239056 5.5199421e-11 0)
(0.063238941 5.6184668e-11 0)
(0.063238822 5.689459e-11 0)
(0.063238701 5.7377451e-11 0)
(0.063238577 5.7669538e-11 0)
(0.063238451 5.7799225e-11 0)
(0.063238322 5.7788865e-11 0)
(0.063238192 5.7657721e-11 0)
(0.063238061 5.7420266e-11 0)
(0.063237928 5.7087293e-11 0)
(0.063237793 5.6669943e-11 0)
(0.063237658 5.6177441e-11 0)
(0.063237521 5.5615874e-11 0)
(0.063237384 5.4991599e-11 0)
(0.063237246 5.4311153e-11 0)
(0.063237107 5.3578458e-11 0)
(0.063236967 5.2798184e-11 0)
(0.063236827 5.1974785e-11 0)
(0.063236687 5.1111456e-11 0)
(0.063236546 5.0211539e-11 0)
(0.063236405 4.9278361e-11 0)
(0.063236264 4.8314888e-11 0)
(0.063236123 4.7323908e-11 0)
(0.063235981 4.6308095e-11 0)
(0.06323584 4.5270028e-11 0)
(0.063235699 4.4211938e-11 0)
(0.063235558 4.3136537e-11 0)
(0.063235417 4.2046069e-11 0)
(0.063235277 4.0942491e-11 0)
(0.063235137 3.9828108e-11 0)
(0.063234997 3.8704985e-11 0)
(0.063234859 3.757461e-11 0)
(0.06323472 3.644065e-11 0)
(0.063234583 3.5304183e-11 0)
(0.063234446 3.4165031e-11 0)
(0.063234309 3.3027092e-11 0)
(0.063234174 3.1893372e-11 0)
(0.06323404 3.0762147e-11 0)
(0.063233906 2.9636616e-11 0)
(0.063233774 2.8520349e-11 0)
(0.063233643 2.7412384e-11 0)
(0.063233513 2.6315049e-11 0)
(0.063233384 2.5229817e-11 0)
(0.063233256 2.415804e-11 0)
(0.06323313 2.3101036e-11 0)
(0.063233005 2.2060086e-11 0)
(0.063232881 2.1036395e-11 0)
(0.063232759 2.0031117e-11 0)
(0.063232639 1.9045347e-11 0)
(0.06323252 1.8080111e-11 0)
(0.063232403 1.7136376e-11 0)
(0.063232287 1.6215039e-11 0)
(0.063232174 1.5316943e-11 0)
(0.063232062 1.4442857e-11 0)
(0.063231952 1.3593485e-11 0)
(0.063231843 1.2769468e-11 0)
(0.063231737 1.1971378e-11 0)
(0.063231633 1.1199719e-11 0)
(0.06323153 1.0454858e-11 0)
(0.06323143 9.7372357e-12 0)
(0.063231332 9.0472829e-12 0)
(0.063231236 8.385092e-12 0)
(0.063231143 7.7507549e-12 0)
(0.063231051 7.14442e-12 0)
(0.063230962 6.5660605e-12 0)
(0.063230875 6.0155537e-12 0)
(0.06323079 5.4918179e-12 0)
(0.063230708 4.9987862e-12 0)
(0.063230629 3.2252521e-12 0)
(0.063230599 8.5503294e-13 0)
(0.063230599 9.8586173e-15 0)
(0.063230599 -1.4572153e-15 0)
(0.063230599 -1.8207841e-15 0)
(0.063230599 -1.7051769e-15 0)
(0.063230599 -1.5018667e-15 0)
(0.063230599 -1.405334e-15 0)
(0.063230599 -1.3174523e-15 0)
(0.063230599 -1.1454002e-15 0)
(0.063230599 -9.7401692e-16 0)
(0.063230599 -8.5120208e-16 0)
(0.063230599 -7.3798919e-16 0)
(0.063230599 -6.3225116e-16 0)
(0.063230599 -5.3621922e-16 0)
(0.063230599 -4.4661176e-16 0)
(0.063230599 -3.5568547e-16 0)
(0.063230599 -2.855432e-16 0)
(0.063230599 -1.6839826e-16 0)
(0.063230599 -2.1790235e-16 0)
(0.063230599 3.6136675e-16 0)
(0.063230599 -1.0031552e-15 0)
(0.063230599 1.5984551e-14 0)
(0.063230598 1.8568176e-14 0)
(1 1.6322122e-12 1.1531545e-25)
(0.99999998 3.2346049e-12 0)
(0.99999996 3.4614709e-12 0)
(0.99999994 4.4135252e-12 0)
(0.99999992 6.1306186e-12 0)
(0.99999989 8.617139e-12 0)
(0.99999986 1.2211284e-11 0)
(0.99999981 1.7462371e-11 0)
(0.99999976 2.5164436e-11 0)
(0.99999969 3.6497948e-11 0)
(0.9999996 5.3256371e-11 0)
(0.99999948 7.8255804e-11 0)
(0.99999932 1.158684e-10 0)
(0.99999912 1.7365053e-10 0)
(0.99999885 2.628817e-10 0)
(0.99999847 4.0948654e-10 0)
(0.99999794 6.4016393e-10 0)
(0.99999719 1.0903341e-09 0)
(0.99999594 1.7437069e-09 0)
(0.99999424 3.6325628e-09 0)
(0.99999028 4.8972694e-09 0)
(0.99998697 1.5553568e-08 0)
(0.99996895 2.0762234e-08 0)
(0.99996283 0.00086031511 -7.4982358e-56)
(0.091047054 0.00086122786 7.497421e-56)
(0.088838672 9.6987061e-07 0)
(0.088887989 -3.193851e-08 0)
(0.088910486 -1.1881124e-08 0)
(0.088915671 -2.7619974e-09 0)
(0.088916969 -8.408309e-10 0)
(0.088917646 -4.5334671e-10 0)
(0.088918043 -2.7264247e-10 0)
(0.088918296 -1.6283383e-10 0)
(0.088918434 -7.7363755e-11 0)
(0.088918482 -1.7503348e-11 0)
(0.088918473 2.0414388e-11 0)
(0.088918426 4.5927899e-11 0)
(0.088918352 6.4678806e-11 0)
(0.088918256 7.8813349e-11 0)
(0.088918142 8.9421215e-11 0)
(0.088918016 9.7416165e-11 0)
(0.088917878 1.0351827e-10 0)
(0.088917732 1.0819881e-10 0)
(0.088917578 1.1177936e-10 0)
(0.088917418 1.1449381e-10 0)
(0.088917253 1.1651125e-10 0)
(0.088917082 1.1796256e-10 0)
(0.088916908 1.1894709e-10 0)
(0.08891673 1.1953926e-10 0)
(0.088916548 1.1979724e-10 0)
(0.088916364 1.1976689e-10 0)
(0.088916177 1.1948776e-10 0)
(0.088915988 1.1898958e-10 0)
(0.088915797 1.1829449e-10 0)
(0.088915604 1.1742541e-10 0)
(0.08891541 1.1640132e-10 0)
(0.088915214 1.1523472e-10 0)
(0.088915016 1.1393869e-10 0)
(0.088914818 1.1252669e-10 0)
(0.088914618 1.110068e-10 0)
(0.088914418 1.0938863e-10 0)
(0.088914217 1.0768137e-10 0)
(0.088914015 1.058916e-10 0)
(0.088913813 1.0402623e-10 0)
(0.08891361 1.0209211e-10 0)
(0.088913407 1.0009536e-10 0)
(0.088913204 9.8041747e-11 0)
(0.088913001 9.5936788e-11 0)
(0.088912798 9.3785815e-11 0)
(0.088912595 9.1593439e-11 0)
(0.088912393 8.936526e-11 0)
(0.088912191 8.7105923e-11 0)
(0.088911989 8.4819474e-11 0)
(0.088911788 8.251068e-11 0)
(0.088911588 8.0183814e-11 0)
(0.088911388 7.7841952e-11 0)
(0.088911189 7.5492678e-11 0)
(0.088910992 7.3138265e-11 0)
(0.088910795 7.077828e-11 0)
(0.088910599 6.8420834e-11 0)
(0.088910405 6.6072099e-11 0)
(0.088910212 6.3728588e-11 -1.9867906e-26)
(0.08891002 6.1396912e-11 0)
(0.08890983 5.9084349e-11 0)
(0.088909642 5.6789033e-11 0)
(0.088909455 5.4515751e-11 0)
(0.088909269 5.2267535e-11 0)
(0.088909086 5.0047196e-11 0)
(0.088908905 4.7857462e-11 0)
(0.088908725 4.5700987e-11 0)
(0.088908548 4.3580268e-11 0)
(0.088908372 4.1497695e-11 0)
(0.088908199 3.9455534e-11 0)
(0.088908029 3.7455911e-11 0)
(0.08890786 3.5500829e-11 0)
(0.088907694 3.3592149e-11 0)
(0.088907531 3.1731612e-11 0)
(0.08890737 2.9920815e-11 0)
(0.088907212 2.8161217e-11 0)
(0.088907056 2.6454142e-11 0)
(0.088906903 2.4800779e-11 0)
(0.088906754 2.320217e-11 0)
(0.088906607 2.1659077e-11 0)
(0.088906463 2.0172412e-11 0)
(0.088906322 1.8743065e-11 0)
(0.088906184 1.7371231e-11 0)
(0.088906049 1.6057102e-11 0)
(0.088905918 1.4800987e-11 0)
(0.08890579 1.3602831e-11 0)
(0.088905665 1.2462388e-11 0)
(0.088905543 1.1377453e-11 0)
(0.088905425 1.0356259e-11 0)
(0.088905311 6.6823762e-12 0)
(0.088905268 1.7718034e-12 0)
(0.088905268 2.0322254e-14 0)
(0.088905268 -3.070302e-15 0)
(0.088905268 -3.8144588e-15 0)
(0.088905268 -3.433416e-15 0)
(0.088905268 -3.0629263e-15 0)
(0.088905268 -2.864477e-15 0)
(0.088905268 -2.6840905e-15 0)
(0.088905268 -2.3320713e-15 0)
(0.088905268 -1.9819823e-15 0)
(0.088905268 -1.7316801e-15 0)
(0.088905268 -1.5010133e-15 0)
(0.088905268 -1.2857104e-15 0)
(0.088905268 -1.0903965e-15 0)
(0.088905268 -9.0832431e-16 0)
(0.088905268 -7.2361494e-16 0)
(0.088905268 -5.8214269e-16 0)
(0.088905268 -3.441755e-16 0)
(0.088905268 -4.51757e-16 0)
(0.088905268 7.3249695e-16 0)
(0.088905268 -2.0908818e-15 0)
(0.088905268 3.3147665e-14 0)
(0.088905267 3.7985394e-14 0)
(1 2.2993055e-12 0)
(0.99999998 4.5657791e-12 0)
(0.99999995 4.8959518e-12 0)
(0.99999993 6.2405169e-12 0)
(0.99999991 8.6646945e-12 0)
(0.99999987 1.2174204e-11 0)
(0.99999983 1.7244804e-11 0)
(0.99999978 2.46499e-11 0)
(0.99999972 3.5506797e-11 0)
(0.99999964 5.1475651e-11 0)
(0.99999954 7.5077443e-11 0)
(0.9999994 1.1026913e-10 0)
(0.99999922 1.6318975e-10 0)
(0.99999899 2.4444865e-10 0)
(0.99999867 3.6985631e-10 0)
(0.99999825 5.7579819e-10 0)
(0.99999763 8.9952515e-10 0)
(0.99999678 1.5311028e-09 0)
(0.99999536 2.4459829e-09 0)
(0.99999342 5.0921648e-09 0)
(0.9999889 6.8618408e-09 0)
(0.99998514 2.1609805e-08 0)
(0.99996498 2.7799243e-08 0)
(0.99996013 0.0011113152 0)
(0.11772667 0.0011130332 0)
(0.11486716 1.6606006e-06 0)
(0.11492942 -5.4720373e-08 0)
(0.11495916 -2.0632662e-08 0)
(0.11496604 -4.7958843e-09 0)
(0.11496776 -1.4518952e-09 0)
(0.11496864 -7.8222424e-10 0)
(0.11496917 -4.7019287e-10 0)
(0.1149695 -2.8027828e-10 0)
(0.11496968 -1.3249782e-10 0)
(0.11496974 -2.8886874e-11 0)
(0.11496973 3.6825812e-11 0)
(0.11496967 8.1076827e-11 0)
(0.11496957 1.1360176e-10 0)
(0.11496944 1.3812629e-10 0)
(0.11496929 1.5653928e-10 0)
(0.11496912 1.7042166e-10 0)
(0.11496894 1.8101963e-10 0)
(0.11496874 1.8915038e-10 0)
(0.11496854 1.9536897e-10 0)
(0.11496833 2.0008545e-10 0)
(0.11496811 2.0358877e-10 0)
(0.11496788 2.0610833e-10 0)
(0.11496765 2.0781605e-10 0)
(0.11496741 2.0884108e-10 0)
(0.11496717 2.0928442e-10 0)
(0.11496692 2.092257e-10 0)
(0.11496668 2.0873362e-10 0)
(0.11496643 2.0785991e-10 0)
(0.11496617 2.0664307e-10 0)
(0.11496591 2.051229e-10 0)
(0.11496566 2.0333244e-10 0)
(0.11496539 2.0129349e-10 0)
(0.11496513 1.9902878e-10 0)
(0.11496487 1.9656173e-10 0)
(0.1149646 1.9390645e-10 0)
(0.11496434 1.9107968e-10 0)
(0.11496407 1.880974e-10 0)
(0.1149638 1.849711e-10 0)
(0.11496353 1.8171283e-10 0)
(0.11496326 1.7833455e-10 0)
(0.11496299 1.7484691e-10 0)
(0.11496272 1.7125997e-10 0)
(0.11496245 1.6758336e-10 0)
(0.11496218 1.6382639e-10 0)
(0.11496191 1.599971e-10 0)
(0.11496164 1.5610527e-10 0)
(0.11496137 1.52159e-10 0)
(0.11496111 1.4816536e-10 0)
(0.11496084 1.4413267e-10 0)
(0.11496057 1.400684e-10 0)
(0.11496031 1.359779e-10 0)
(0.11496004 1.3187441e-10 0)
(0.11495978 1.27762e-10 0)
(0.11495952 1.2363981e-10 0)
(0.11495926 1.1952201e-10 0)
(0.114959 1.1541927e-10 0)
(0.11495874 1.1132577e-10 0)
(0.11495849 1.0725304e-10 0)
(0.11495823 1.0321344e-10 0)
(0.11495798 9.920404e-11 0)
(0.11495773 9.5233117e-11 0)
(0.11495749 9.1305946e-11 0)
(0.11495724 8.7427448e-11 0)
(0.114957 8.3602393e-11 0)
(0.11495676 7.9835418e-11 0)
(0.11495653 7.6130884e-11 0)
(0.11495629 7.2492968e-11 0)
(0.11495606 6.8925629e-11 0)
(0.11495584 6.5432583e-11 0)
(0.11495561 6.2017328e-11 0)
(0.11495539 5.8683116e-11 0)
(0.11495517 5.5432993e-11 0)
(0.11495496 5.2269747e-11 0)
(0.11495475 4.9195928e-11 0)
(0.11495454 4.621385e-11 0)
(0.11495434 4.3325591e-11 0)
(0.11495414 4.0532974e-11 0)
(0.11495394 3.7837335e-11 0)
(0.11495375 3.5240263e-11 0)
(0.11495357 3.2743304e-11 0)
(0.11495338 3.0346811e-11 0)
(0.1149532 2.8051126e-11 0)
(0.11495303 2.5856782e-11 0)
(0.11495286 2.3763693e-11 0)
(0.11495269 2.1771434e-11 0)
(0.11495253 1.987619e-11 0)
(0.11495237 1.8092605e-11 0)
(0.11495222 1.1675869e-11 0)
(0.11495216 3.0973193e-12 0)
(0.11495216 3.5829385e-14 0)
(0.11495216 -5.4714198e-15 0)
(0.11495216 -6.6983923e-15 0)
(0.11495216 -5.8845732e-15 0)
(0.11495216 -5.292458e-15 0)
(0.11495216 -4.9481648e-15 0)
(0.11495216 -4.6346864e-15 0)
(0.11495216 -4.026333e-15 0)
(0.11495216 -3.4217004e-15 0)
(0.11495216 -2.9890942e-15 0)
(0.11495216 -2.5904239e-15 0)
(0.11495216 -2.218462e-15 0)
(0.11495216 -1.8812447e-15 0)
(0.11495216 -1.567065e-15 0)
(0.11495216 -1.2484232e-15 0)
(0.11495216 -1.005466e-15 0)
(0.11495216 -5.9511484e-16 0)
(0.11495216 -7.8812985e-16 0)
(0.11495216 1.2593119e-15 0)
(0.11495216 -3.6597762e-15 0)
(0.11495216 5.7866872e-14 0)
(0.11495216 6.57672e-14 1.5604629e-26)
(1 3.1167643e-12 0)
(0.99999997 6.2035695e-12 0)
(0.99999995 6.6677736e-12 0)
(0.99999992 8.4957566e-12 0)
(0.99999989 1.1790163e-11 0)
(0.99999985 1.6558285e-11 0)
(0.99999981 2.3444053e-11 0)
(0.99999975 3.3495307e-11 0)
(0.99999967 4.8224933e-11 0)
(0.99999958 6.9879517e-11 0)
(0.99999946 1.0186864e-10 0)
(0.9999993 1.4954176e-10 0)
(0.9999991 2.2119177e-10 0)
(0.99999883 3.3114909e-10 0)
(0.99999846 5.0073091e-10 0)
(0.99999797 7.7906318e-10 0)
(0.99999726 1.2161175e-09 0)
(0.99999627 2.0685118e-09 0)
(0.99999463 3.3006495e-09 0)
(0.99999241 6.8663875e-09 0)
(0.99998722 9.2486518e-09 0)
(0.9999829 2.8862377e-08 0)
(0.99996013 3.5672251e-08 0)
(0.99995695 0.0013700816 0)
(0.14489188 0.0013727319 0)
(0.14134352 2.5880083e-06 0)
(0.14141732 -8.4787204e-08 0)
(0.14145503 -3.2648432e-08 0)
(0.14146382 -7.5972655e-09 0)
(0.14146599 -2.2873004e-09 0)
(0.14146711 -1.2307056e-09 0)
(0.14146777 -7.3992138e-10 0)
(0.14146819 -4.407525e-10 0)
(0.14146842 -2.0783322e-10 0)
(0.1414685 -4.4302163e-11 0)
(0.14146848 5.9555543e-11 0)
(0.1414684 1.2954503e-10 0)
(0.14146827 1.8100707e-10 0)
(0.14146811 2.1982849e-10 0)
(0.14146792 2.4899187e-10 0)
(0.14146771 2.7099051e-10 0)
(0.14146747 2.8779111e-10 0)
(0.14146723 3.0068916e-10 0)
(0.14146697 3.105417e-10 6.1115097e-36)
(0.14146669 3.1803847e-10 0)
(0.14146641 3.2359566e-10 0)
(0.14146613 3.2759663e-10 0)
(0.14146583 3.3030955e-10 0)
(0.14146553 3.3193902e-10 0)
(0.14146522 3.3264508e-10 0)
(0.14146491 3.3255388e-10 0)
(0.14146459 3.3177428e-10 0)
(0.14146427 3.3038835e-10 0)
(0.14146395 3.2845727e-10 0)
(0.14146362 3.2604407e-10 0)
(0.14146329 3.232012e-10 0)
(0.14146296 3.1996334e-10 0)
(0.14146263 3.1636657e-10 0)
(0.14146229 3.1244798e-10 0)
(0.14146195 3.0823011e-10 0)
(0.14146161 3.0373952e-10 0)
(0.14146127 2.9900154e-10 0)
(0.14146093 2.9403449e-10 0)
(0.14146058 2.8885752e-10 0)
(0.14146024 2.8348961e-10 0)
(0.1414599 2.7794771e-10 0)
(0.14145955 2.722478e-10 0)
(0.14145921 2.6640521e-10 0)
(0.14145886 2.6043471e-10 0)
(0.14145852 2.5434912e-10 0)
(0.14145818 2.4816395e-10 0)
(0.14145783 2.418921e-10 0)
(0.14145749 2.3554482e-10 0)
(0.14145715 2.2913534e-10 0)
(0.14145681 2.2267552e-10 0)
(0.14145647 2.1617387e-10 0)
(0.14145614 2.0965139e-10 0)
(0.1414558 2.0311482e-10 0)
(0.14145547 1.9656254e-10 0)
(0.14145513 1.9001708e-10 0)
(0.14145481 1.8349518e-10 0)
(0.14145448 1.7698819e-10 0)
(0.14145415 1.7051431e-10 0)
(0.14145383 1.6409265e-10 0)
(0.14145351 1.5771906e-10 0)
(0.14145319 1.5140658e-10 0)
(0.14145288 1.4516357e-10 0)
(0.14145257 1.3899787e-10 0)
(0.14145226 1.3291707e-10 0)
(0.14145196 1.2692854e-10 0)
(0.14145165 1.2103923e-10 0)
(0.14145136 1.1525578e-10 0)
(0.14145106 1.0958448e-10 0)
(0.14145077 1.0403125e-10 0)
(0.14145049 9.8601647e-11 0)
(0.14145021 9.3300854e-11 0)
(0.14144993 8.813371e-11 0)
(0.14144966 8.3104656e-11 0)
(0.14144939 7.8217745e-11 0)
(0.14144912 7.3476662e-11 0)
(0.14144886 6.8884713e-11 0)
(0.14144861 6.4444798e-11 0)
(0.14144836 6.0159057e-11 0)
(0.14144812 5.603e-11 0)
(0.14144788 5.2060085e-11 0)
(0.14144764 4.8249879e-11 0)
(0.14144741 4.4599946e-11 0)
(0.14144719 4.1111128e-11 0)
(0.14144697 3.7783291e-11 0)
(0.14144676 3.4615769e-11 0)
(0.14144656 3.1602527e-11 0)
(0.14144636 2.876744e-11 0)
(0.14144616 1.8568509e-11 0)
(0.14144609 4.9295997e-12 0)
(0.14144609 5.8150167e-14 0)
(0.14144609 -8.9447762e-15 0)
(0.14144609 -1.0556294e-14 0)
(0.14144609 -9.2931792e-15 0)
(0.14144609 -8.3485798e-15 0)
(0.14144609 -7.8049803e-15 0)
(0.14144609 -7.307898e-15 0)
(0.14144609 -6.3504328e-15 0)
(0.14144609 -5.3985437e-15 0)
(0.14144609 -4.7154941e-15 0)
(0.14144609 -4.085842e-15 0)
(0.14144609 -3.4985202e-15 0)
(0.14144609 -2.9661976e-15 0)
(0.14144609 -2.4703636e-15 0)
(0.14144609 -1.9676359e-15 0)
(0.14144609 -1.5854615e-15 0)
(0.14144609 -9.3819817e-16 0)
(0.14144609 -1.2502498e-15 0)
(0.14144609 1.9801023e-15 0)
(0.14144609 -5.8230089e-15 0)
(0.14144609 9.1850393e-14 0)
(0.14144609 1.0384169e-13 -8.9059997e-27)
(1 4.1383197e-12 0)
(0.99999997 8.2589368e-12 0)
(0.99999994 8.9005919e-12 0)
(0.99999991 1.1335963e-11 0)
(0.99999987 1.5722853e-11 0)
(0.99999983 2.2070548e-11 0)
(0.99999977 3.1232613e-11 0)
(0.9999997 4.4599621e-11 0)
(0.99999962 6.4178108e-11 0)
(0.99999951 9.2945752e-11 0)
(0.99999936 1.3541887e-10 0)
(0.99999918 1.9867993e-10 0)
(0.99999894 2.93699e-10 0)
(0.99999862 4.3943042e-10 0)
(0.9999982 6.6401463e-10 0)
(0.99999762 1.0323963e-09 0)
(0.9999968 1.6101787e-09 0)
(0.99999565 2.7366016e-09 0)
(0.99999375 4.3611352e-09 0)
(0.99999117 9.0650324e-09 0)
(0.99998516 1.2205441e-08 0)
(0.99998015 3.7718371e-08 0)
(0.99995422 4.4277253e-08 0)
(0.99995323 0.0016392217 0)
(0.17261303 0.0016431034 0)
(0.16832239 3.8072366e-06 0)
(0.16840551 -1.2309413e-07 0)
(0.16845215 -4.8809144e-08 0)
(0.16846312 -1.1383679e-08 0)
(0.1684658 -3.4077823e-09 0)
(0.16846718 -1.8302096e-09 0)
(0.168468 -1.1012238e-09 0)
(0.16846852 -6.562215e-10 0)
(0.1684688 -3.0932103e-10 0)
(0.1684689 -6.5332354e-11 0)
(0.16846888 8.9857028e-11 0)
(0.16846879 1.9452327e-10 0)
(0.16846863 2.7152516e-10 0)
(0.16846843 3.2964999e-10 0)
(0.16846819 3.7334571e-10 0)
(0.16846793 4.0632821e-10 0)
(0.16846764 4.3153131e-10 0)
(0.16846733 4.5089653e-10 0)
(0.16846701 4.6567982e-10 -6.5925007e-36)
(0.16846667 4.7695973e-10 0)
(0.16846633 4.853123e-10 0)
(0.16846597 4.9133599e-10 0)
(0.1684656 4.9542684e-10 0)
(0.16846523 4.9789155e-10 0)
(0.16846485 4.9896995e-10 0)
(0.16846446 4.9885112e-10 0)
(0.16846407 4.9769818e-10 0)
(0.16846367 4.9563441e-10 0)
(0.16846327 4.9275174e-10 0)
(0.16846286 4.8914458e-10 0)
(0.16846245 4.8489162e-10 0)
(0.16846204 4.8004517e-10 0)
(0.16846162 4.7465933e-10 0)
(0.1684612 4.6878969e-10 0)
(0.16846078 4.6247027e-10 0)
(0.16846036 4.5574091e-10 0)
(0.16845994 4.4863959e-10 0)
(0.16845951 4.4119392e-10 0)
(0.16845909 4.3343268e-10 0)
(0.16845866 4.2538436e-10 0)
(0.16845823 4.1707441e-10 0)
(0.16845781 4.0852687e-10 0)
(0.16845738 3.9976473e-10 0)
(0.16845695 3.9081023e-10 0)
(0.16845652 3.8168261e-10 0)
(0.1684561 3.7240512e-10 0)
(0.16845567 3.6299719e-10 0)
(0.16845525 3.5347573e-10 0)
(0.16845482 3.4386056e-10 0)
(0.1684544 3.3416955e-10 0)
(0.16845398 3.2441543e-10 0)
(0.16845356 3.1462965e-10 0)
(0.16845314 3.0482281e-10 0)
(0.16845273 2.9499209e-10 0)
(0.16845232 2.8517113e-10 0)
(0.16845191 2.7538498e-10 0)
(0.1684515 2.656214e-10 0)
(0.16845109 2.5590762e-10 3.1388547e-26)
(0.16845069 2.4627145e-10 0)
(0.1684503 2.3670746e-10 0)
(0.1684499 2.2723501e-10 0)
(0.16844951 2.1786664e-10 0)
(0.16844912 2.0861414e-10 0)
(0.16844874 1.9948891e-10 0)
(0.16844836 1.9050204e-10 0)
(0.16844799 1.8166394e-10 0)
(0.16844762 1.7298459e-10 0)
(0.16844725 1.6447346e-10 0)
(0.16844689 1.5613942e-10 0)
(0.16844654 1.4799084e-10 0)
(0.16844619 1.4003549e-10 0)
(0.16844584 1.3228065e-10 0)
(0.1684455 1.2473298e-10 0)
(0.16844517 1.1739858e-10 0)
(0.16844484 1.1028299e-10 0)
(0.16844452 1.0339116e-10 0)
(0.1684442 9.6727471e-11 0)
(0.16844389 9.0295152e-11 0)
(0.16844359 8.4097942e-11 0)
(0.16844329 7.8139529e-11 0)
(0.168443 7.2420778e-11 0)
(0.16844272 6.6942574e-11 0)
(0.16844244 6.1706163e-11 0)
(0.16844217 5.6711353e-11 0)
(0.16844191 5.1957152e-11 0)
(0.16844165 4.7434502e-11 0)
(0.1684414 4.3180425e-11 0)
(0.16844116 2.7879108e-11 0)
(0.16844107 7.4093237e-12 0)
(0.16844107 9.005501e-14 0)
(0.16844107 -1.3818838e-14 0)
(0.16844107 -1.563783e-14 0)
(0.16844107 -1.3937752e-14 0)
(0.16844107 -1.2463405e-14 0)
(0.16844107 -1.1653603e-14 0)
(0.16844107 -1.0908774e-14 0)
(0.16844107 -9.4852533e-15 0)
(0.16844107 -8.0691398e-15 0)
(0.16844107 -7.047778e-15 0)
(0.16844107 -6.1056932e-15 0)
(0.16844107 -5.2270765e-15 0)
(0.16844107 -4.4306551e-15 0)
(0.16844107 -3.6888378e-15 0)
(0.16844107 -2.9368791e-15 0)
(0.16844107 -2.3663741e-15 0)
(0.16844107 -1.3978969e-15 0)
(0.16844107 -1.8720733e-15 0)
(0.16844107 2.9552312e-15 0)
(0.16844107 -8.7528532e-15 0)
(0.16844107 1.3754828e-13 0)
(0.16844107 1.5498276e-13 0)
(1 5.4372669e-12 0)
(0.99999996 1.0884007e-11 0)
(0.99999993 1.1764688e-11 0)
(0.99999989 1.4976833e-11 0)
(0.99999985 2.0759541e-11 0)
(0.9999998 2.9124781e-11 0)
(0.99999973 4.1191964e-11 0)
(0.99999965 5.8787171e-11 0)
(0.99999955 8.4543722e-11 0)
(0.99999942 1.2236665e-10 0)
(0.99999925 1.7817463e-10 0)
(0.99999903 2.6124434e-10 0)
(0.99999875 3.8593096e-10 0)
(0.99999838 5.770339e-10 0)
(0.99999788 8.7129331e-10 0)
(0.9999972 1.3536316e-09 0)
(0.99999623 2.1091866e-09 0)
(0.99999488 3.5815217e-09 0)
(0.99999265 5.6997157e-09 0)
(0.99998964 1.1836393e-08 0)
(0.99998263 1.5931685e-08 0)
(0.99997679 4.8722142e-08 0)
(0.99994701 5.398185e-08 0)
(0.99994887 0.001921201 -1.9756354e-55)
(0.20093877 0.0019266985 1.9754703e-55)
(0.19583611 5.3929225e-06 -2.0133839e-20)
(0.19592524 -1.7058855e-07 0)