# Region        : all region0
# Cells         : 13056
# Volume        : 2.33333000e+00
# Time          	max(p)	max(nut)
0.000120005     	1.49669699e-01	6.81102444e-09
0.000264017     	7.64642382e-02	8.00776462e-09
0.000436833     	6.80685275e-02	8.40970757e-09
0.000644211     	6.12062201e-02	8.55592125e-09
0.000893055     	5.48720537e-02	8.64044283e-09
0.00119165      	4.96273489e-02	8.97468838e-09
0.0015499       	4.52921660e-02	1.04919537e-08
0.00197972      	4.16305558e-02	1.40282521e-08
0.00249549      	3.84725768e-02	1.74021124e-08
0.00311429      	3.57362290e-02	1.93351021e-08
0.00385657      	3.33523840e-02	2.60731565e-08
0.00472354      	3.20080930e-02	3.17830196e-08
0.00571288      	3.12614071e-02	3.24189491e-08
0.00682257      	3.08726288e-02	4.68357546e-08
0.00800916      	3.15252403e-02	4.55504186e-08
0.00917896      	3.38087623e-02	6.28921182e-08
0.0103338       	3.57523135e-02	7.05125393e-08
0.0114753       	3.75930041e-02	6.76568827e-08
0.0126024       	3.94237952e-02	8.69314854e-08
0.0137169       	4.11841502e-02	1.03873108e-07
0.0148201       	4.28766842e-02	1.13263089e-07
0.0159135       	4.45002212e-02	1.11127241e-07
0.0169973       	4.60824132e-02	1.03696820e-07
0.0180728       	4.75911001e-02	1.24147031e-07
0.019139        	4.90847766e-02	1.44657894e-07
0.0201959       	5.05298533e-02	1.64851170e-07
0.0212461       	5.18733320e-02	1.83636700e-07
0.0222884       	5.32040036e-02	1.99437100e-07
0.0233241       	5.44620879e-02	2.10719229e-07
0.0243544       	5.56526131e-02	2.16445176e-07
0.0253781       	5.68301840e-02	2.16430157e-07
0.0263966       	5.79384639e-02	2.11345779e-07
0.0274086       	5.90333307e-02	2.02430190e-07
0.0284154       	6.00617053e-02	1.91044123e-07
0.0294181       	6.10294442e-02	1.78386910e-07
0.0304156       	6.19870227e-02	1.80316520e-07
0.0314091       	6.28833418e-02	1.96256620e-07
0.0323984       	6.37466684e-02	2.11205549e-07
0.0333838       	6.45766957e-02	2.25553710e-07
0.0343651       	6.53739972e-02	2.39513667e-07
0.0353434       	6.61179971e-02	2.53215822e-07
0.0363178       	6.68548127e-02	2.66713979e-07
0.0372893       	6.75399406e-02	2.80063727e-07
0.0382569       	6.82179931e-02	2.93281535e-07
0.0392215       	6.88467828e-02	3.06401998e-07
0.0401832       	6.94518554e-02	3.19440875e-07
0.0411421       	7.00290896e-02	3.32408472e-07
0.042099        	7.05653062e-02	3.45320152e-07
0.0430531       	7.10970540e-02	3.58159009e-07
0.0440053       	7.15872888e-02	3.70922150e-07
0.0449556       	7.20568535e-02	3.83582781e-07
0.0459031       	7.25228910e-02	3.96089815e-07
0.0468486       	7.29504203e-02	4.08400242e-07
0.0477924       	7.33596599e-02	4.20442681e-07
0.0487342       	7.37505398e-02	4.32129058e-07
0.0496742       	7.41234996e-02	4.43354479e-07
0.0506123       	7.44795875e-02	4.53998100e-07
0.0515495       	7.48045089e-02	4.63932849e-07
0.0524849       	7.51293191e-02	4.73003446e-07
0.0534184       	7.54382179e-02	4.81058606e-07
0.054351        	7.57187656e-02	4.87950985e-07
0.0552817       	7.59999457e-02	4.93527660e-07
0.0562116       	7.62540639e-02	4.97658561e-07
0.0571405       	7.64964834e-02	5.00227681e-07
0.0580685       	7.67272479e-02	5.01146812e-07
0.0589947       	7.69587282e-02	5.00364017e-07
0.05992         	7.71662623e-02	4.97862098e-07
0.0608444       	7.73639196e-02	4.93662244e-07
0.0617678       	7.75517653e-02	4.87824807e-07
0.0626904       	7.77300970e-02	4.80446369e-07
0.063612        	7.78992917e-02	4.71654998e-07
0.0645336       	7.80492235e-02	4.61593492e-07
0.0654544       	7.82021616e-02	4.50442802e-07
0.0663742       	7.83465844e-02	4.50755275e-07
0.0672931       	7.84831602e-02	4.65582974e-07
0.068212        	7.86027491e-02	4.79542260e-07
0.0691301       	7.87256577e-02	4.92668837e-07
0.0700481       	7.88322125e-02	5.05023869e-07
0.0709652       	7.89420937e-02	5.16643158e-07
0.0718823       	7.90365717e-02	5.27582952e-07
0.0727985       	7.91344894e-02	5.37875911e-07
0.0737147       	7.92179132e-02	5.47571698e-07
0.07463         	7.93048577e-02	5.56698569e-07
0.0755453       	7.93781644e-02	5.65299413e-07
0.0764597       	7.94550553e-02	5.73398083e-07
0.0773741       	7.95191259e-02	5.81031246e-07
0.0782885       	7.95793246e-02	5.88225187e-07
0.079202        	7.96429450e-02	5.94998047e-07
0.0801155       	7.96947635e-02	6.01378454e-07
0.081029        	7.97432268e-02	6.07386568e-07
0.0819416       	7.97951577e-02	6.13036025e-07
0.0828542       	7.98362913e-02	6.18349274e-07
0.0837667       	7.98745276e-02	6.23341985e-07
0.0846793       	7.99098081e-02	6.28028762e-07
0.0855919       	7.99421946e-02	6.32423153e-07
0.0865036       	7.99780250e-02	6.36534334e-07
0.0874152       	8.00045029e-02	6.40378073e-07
0.0883269       	8.00287265e-02	6.43965642e-07
0.0892386       	8.00506242e-02	6.47307975e-07
0.0901503       	8.00702610e-02	6.50415591e-07
0.0910619       	8.00877742e-02	6.53298738e-07
0.0919736       	8.01032229e-02	6.55967937e-07
0.0928853       	8.01166091e-02	6.58431719e-07
0.093797        	8.01281936e-02	6.60699219e-07
0.0947086       	8.01379906e-02	6.62780018e-07
0.0956194       	8.01511107e-02	6.64682056e-07
0.0965301       	8.01571341e-02	6.66415898e-07
0.0974409       	8.01618379e-02	6.67990114e-07
0.0983517       	8.01651503e-02	6.69413161e-07
0.0992624       	8.01671186e-02	6.70693179e-07
0.100173        	8.01678020e-02	6.71837943e-07
0.101084        	8.01672406e-02	6.72854851e-07
0.101995        	8.01654926e-02	6.73750863e-07
0.102905        	8.01626115e-02	6.74532482e-07
0.103816        	8.01586510e-02	6.75205742e-07
0.104728        	8.01495479e-02	6.75776263e-07
0.105639        	8.01479971e-02	6.76249019e-07
0.106548        	8.01448470e-02	6.76629002e-07
0.107457        	8.01404806e-02	6.76920417e-07
0.108366        	8.01312719e-02	6.77126775e-07
0.109274        	8.01252684e-02	6.77251865e-07
0.110181        	8.01181983e-02	6.77299142e-07
0.111087        	8.01102883e-02	6.77271620e-07
0.111994        	8.00981358e-02	6.77171425e-07
0.112899        	8.00891312e-02	6.77001700e-07
0.113803        	8.00792999e-02	6.76765066e-07
0.114707        	8.00655561e-02	6.76462943e-07
0.115611        	8.00548395e-02	6.76098311e-07
0.116514        	8.00402603e-02	6.75672560e-07
0.117416        	8.00285770e-02	6.75188808e-07
0.118318        	8.00162824e-02	6.74649515e-07
0.11922         	8.00004807e-02	6.74055840e-07
0.12012         	7.99875067e-02	6.73411391e-07
0.121021        	7.99710978e-02	6.72717750e-07
0.12192         	7.99574350e-02	6.71978991e-07
0.12282         	7.99404782e-02	6.71196919e-07
0.123719        	7.99261740e-02	6.70376013e-07
0.124618        	7.99087201e-02	6.69518241e-07
0.125515        	7.98938350e-02	6.68628384e-07
0.126413        	7.98759456e-02	6.67708476e-07
0.12731         	7.98605462e-02	6.66763427e-07
0.128207        	7.98422708e-02	6.65795150e-07
0.129103        	7.98264129e-02	6.64808462e-07
0.129999        	7.98077957e-02	6.63804941e-07
0.130894        	7.97915259e-02	6.62789060e-07
0.131789        	7.97726317e-02	6.61761853e-07
0.132683        	7.97560103e-02	6.60727210e-07
0.133577        	7.97368623e-02	6.59685414e-07
0.134471        	7.97199297e-02	6.58639612e-07
0.135364        	7.97005777e-02	6.57589221e-07
0.136256        	7.96833727e-02	6.56536527e-07
0.137148        	7.96638564e-02	6.55480018e-07
0.138041        	7.96444876e-02	6.54419266e-07
0.138932        	7.96270355e-02	6.53355578e-07
0.139823        	7.96073921e-02	6.52286177e-07
0.140714        	7.95897197e-02	6.51211326e-07
0.141604        	7.95699502e-02	6.50127551e-07
0.142495        	7.95503468e-02	6.49032706e-07
0.143384        	7.95325233e-02	6.47926765e-07
0.144274        	7.95127319e-02	6.46805774e-07
0.145162        	7.94947718e-02	6.45669336e-07
0.146051        	7.94749252e-02	6.44513462e-07
0.14694         	7.94553136e-02	6.43335947e-07
0.147827        	7.94373421e-02	6.42137269e-07
0.148715        	7.94176195e-02	6.40914047e-07
0.149602        	7.93996213e-02	6.39667101e-07
0.150489        	7.93799541e-02	6.38393690e-07
0.151375        	7.93605425e-02	6.37093280e-07
0.152261        	7.93426699e-02	6.35768517e-07
0.153147        	7.93232510e-02	6.34418032e-07
0.154033        	7.93040951e-02	6.33042772e-07
0.154918        	7.92864027e-02	6.31647022e-07
0.155803        	7.92672486e-02	6.30230826e-07
0.156688        	7.92483612e-02	6.28796606e-07
0.157571        	7.92308699e-02	6.27350180e-07
0.158455        	7.92120006e-02	6.25892806e-07
0.159339        	7.91934150e-02	6.24428079e-07
0.160222        	7.91761494e-02	6.22962890e-07
0.161106        	7.91575871e-02	6.21499215e-07
0.161989        	7.91393043e-02	6.20041200e-07
0.162871        	7.91222762e-02	6.18596068e-07
0.163753        	7.91040205e-02	6.17165791e-07
0.164635        	7.90860386e-02	6.15754242e-07
0.165516        	7.90692483e-02	6.14368089e-07
0.166397        	7.90512778e-02	6.13008470e-07
0.167278        	7.90335778e-02	6.11678138e-07
0.168159        	7.90169900e-02	6.10382342e-07
0.169039        	7.89992878e-02	6.09120658e-07
0.169919        	7.89818613e-02	6.07894004e-07
0.170799        	7.89654675e-02	6.06705568e-07
0.171678        	7.89480142e-02	6.05552855e-07
0.172557        	7.89308186e-02	6.04434549e-07
0.173436        	7.89145952e-02	6.03351495e-07
0.174314        	7.88973766e-02	6.02299015e-07
0.175192        	7.88803935e-02	6.01273542e-07
0.17607         	7.88643334e-02	6.00273748e-07
0.176947        	7.88473314e-02	5.99293033e-07
0.177825        	7.88305674e-02	5.98326007e-07
0.178702        	7.88139361e-02	5.97367343e-07
0.179579        	7.87981618e-02	5.96413816e-07
0.180455        	7.87815053e-02	5.95457192e-07
0.181332        	7.87650714e-02	5.94490798e-07
0.182207        	7.87494460e-02	5.93510914e-07
0.183083        	7.87330053e-02	5.92509123e-07
0.183959        	7.87168154e-02	5.91478908e-07
0.184834        	7.87007766e-02	5.90414550e-07
0.185709        	7.86855275e-02	5.89313403e-07
0.186583        	7.86695159e-02	5.88168112e-07
0.187458        	7.86537787e-02	5.86973655e-07
0.188332        	7.86387917e-02	5.85729058e-07
0.189205        	7.86230891e-02	5.84428571e-07
0.190079        	7.86077215e-02	5.83069128e-07
0.190953        	7.85925248e-02	5.81649014e-07
0.191826        	7.85780549e-02	5.80170585e-07
0.192698        	7.85629766e-02	5.78630843e-07
0.193571        	7.85481682e-02	5.77029862e-07
0.194443        	7.85340864e-02	5.75372618e-07
0.195315        	7.85194030e-02	5.73658368e-07
0.196187        	7.85050481e-02	5.71889617e-07
0.197058        	7.84909143e-02	5.70070314e-07
0.197929        	7.84774506e-02	5.68209024e-07
0.1988          	7.84633695e-02	5.66307670e-07
0.199671        	7.84497227e-02	5.64371555e-07
0.200542        	7.84362037e-02	5.62407228e-07
0.201412        	7.84233025e-02	5.60425880e-07
0.202282        	7.84098712e-02	5.58431259e-07
0.203152        	7.83967595e-02	5.56430391e-07
0.204021        	7.83841580e-02	5.54435387e-07
0.20489         	7.83711717e-02	5.52450522e-07
0.205759        	7.83583559e-02	5.50483114e-07
0.206627        	7.83458280e-02	5.48541131e-07
0.207496        	7.83336411e-02	5.46636555e-07
0.208364        	7.83211655e-02	5.44772844e-07
0.209232        	7.83089137e-02	5.42956048e-07
0.2101          	7.82966913e-02	5.41192420e-07
0.210967        	7.82849883e-02	5.39491704e-07
0.211834        	7.82727250e-02	5.37854874e-07
0.212701        	7.82608550e-02	5.36285014e-07
0.213568        	7.82489340e-02	5.34785134e-07
0.214434        	7.82374726e-02	5.33361246e-07
0.2153          	7.82255056e-02	5.32010737e-07
0.216166        	7.82137638e-02	5.30732728e-07
0.217032        	7.82021024e-02	5.29526196e-07
0.217897        	7.81907381e-02	5.28392850e-07
0.218763        	7.81789675e-02	5.27326279e-07
0.219628        	7.81673680e-02	5.26321629e-07
0.220493        	7.81558365e-02	5.25374084e-07
0.221357        	7.81445871e-02	5.24481577e-07
0.222221        	7.81328848e-02	5.23634596e-07
0.223086        	7.81214560e-02	5.22825235e-07
0.22395         	7.81100191e-02	5.22045973e-07
0.224813        	7.80988968e-02	5.21292316e-07
0.225676        	7.80872497e-02	5.20552928e-07
0.226539        	7.80759885e-02	5.19818288e-07
0.227403        	7.80646473e-02	5.19079668e-07
0.228265        	7.80536630e-02	5.18331815e-07
0.229127        	7.80421556e-02	5.17562942e-07
0.22999         	7.80310771e-02	5.16763409e-07
0.230852        	7.80199122e-02	5.15924698e-07
0.231713        	7.80091091e-02	5.15042311e-07
0.232574        	7.79978374e-02	5.14105153e-07
0.233436        	7.79869906e-02	5.13104629e-07
0.234297        	7.79761024e-02	5.12033533e-07
0.235158        	7.79654495e-02	5.10885241e-07
0.236019        	7.79549453e-02	5.09657737e-07
0.236879        	7.79441715e-02	5.08341726e-07
0.237739        	7.79337016e-02	5.06930961e-07
0.2386          	7.79233154e-02	5.05420802e-07
0.239459        	7.79131170e-02	5.03812056e-07
0.240318        	7.79028516e-02	5.02097372e-07
0.241178        	7.78927108e-02	5.00272957e-07
0.242037        	7.78828057e-02	4.98336732e-07
0.242896        	7.78730214e-02	4.96292762e-07
0.243754        	7.78632700e-02	4.97021899e-07
0.244612        	7.78536718e-02	4.98406932e-07
0.245471        	7.78442707e-02	4.99831298e-07
0.246328        	7.78350465e-02	5.01288529e-07
0.247186        	7.78258016e-02	5.02780906e-07
0.248043        	7.78167997e-02	5.04307571e-07
0.2489          	7.78079461e-02	5.05866180e-07
0.249758        	7.77993118e-02	5.07454002e-07
0.250614        	7.77908141e-02	5.09063050e-07
0.251471        	7.77822872e-02	5.10694634e-07
0.252327        	7.77739676e-02	5.12346784e-07
0.253184        	7.77658242e-02	5.14016136e-07
0.254039        	7.77577972e-02	5.15693873e-07
0.254895        	7.77497367e-02	5.17380833e-07
0.25575         	7.77419123e-02	5.19074560e-07
0.256605        	7.77342356e-02	5.20771300e-07
0.257461        	7.77267336e-02	5.22467120e-07
0.258315        	7.77192952e-02	5.24152886e-07
0.25917         	7.77117979e-02	5.25829389e-07
0.260024        	7.77044984e-02	5.27494184e-07
0.260879        	7.76973147e-02	5.29143642e-07
0.261732        	7.76901660e-02	5.30768892e-07
0.262586        	7.76829533e-02	5.32371082e-07
0.263439        	7.76759293e-02	5.33948251e-07
0.264293        	7.76690018e-02	5.35497345e-07
0.265146        	7.76621871e-02	5.37015364e-07
0.265999        	7.76553262e-02	5.38494489e-07
0.266851        	7.76483853e-02	5.39936799e-07
0.267704        	7.76415792e-02	5.41341467e-07
0.268556        	7.76348251e-02	5.42706649e-07
0.269409        	7.76281380e-02	5.44030647e-07
0.27026         	7.76213607e-02	5.45307203e-07
0.271112        	7.76144742e-02	5.46539676e-07
0.271963        	7.76076998e-02	5.47728746e-07
0.272815        	7.76009348e-02	5.48874109e-07
0.273665        	7.75940607e-02	5.49970912e-07
0.274516        	7.75870987e-02	5.51023582e-07
0.275366        	7.75802296e-02	5.52034072e-07
0.276217        	7.75733787e-02	5.53003328e-07
0.277067        	7.75665597e-02	5.53932447e-07
0.277917        	7.75595857e-02	5.54818332e-07
0.278766        	7.75525024e-02	5.55666700e-07
0.279616        	7.75455099e-02	5.56480943e-07
0.280465        	7.75384919e-02	5.57263371e-07
0.281315        	7.75315082e-02	5.58016382e-07
0.282163        	7.75243429e-02	5.58738252e-07
0.283012        	7.75170839e-02	5.59435643e-07
0.28386         	7.75099042e-02	5.60112983e-07
0.284709        	7.75027257e-02	5.60773507e-07
0.285557        	7.74955758e-02	5.61420421e-07
0.286405        	7.74882405e-02	5.62052759e-07
0.287252        	7.74808416e-02	5.62677649e-07
0.2881          	7.74735353e-02	5.63299976e-07
0.288947        	7.74662536e-02	5.63923303e-07
0.289795        	7.74590127e-02	5.64551039e-07
0.290641        	7.74515996e-02	5.65182264e-07
0.291488        	7.74441624e-02	5.65824058e-07
0.292334        	7.74368430e-02	5.66481161e-07
0.293181        	7.74295720e-02	5.67156864e-07
0.294027        	7.74223804e-02	5.67854194e-07
0.294873        	7.74150284e-02	5.68571612e-07
0.295718        	7.74076973e-02	5.69315708e-07
0.296564        	7.74005157e-02	5.70090555e-07
0.297409        	7.73934144e-02	5.70898681e-07
0.298255        	7.73864249e-02	5.71742272e-07
0.299099        	7.73792967e-02	5.72618642e-07
0.299944        	7.73722330e-02	5.73533596e-07
0.300788        	7.73653520e-02	5.74490181e-07
0.301633        	7.73585826e-02	5.75489838e-07
0.302477        	7.73519561e-02	5.76533621e-07
0.30332         	7.73452098e-02	5.77617398e-07
0.304164        	7.73385663e-02	5.78746044e-07
0.305007        	7.73321385e-02	5.79921412e-07
0.305851        	7.73258386e-02	5.81143725e-07
0.306694        	7.73197133e-02	5.82412814e-07
0.307537        	7.73134762e-02	5.83723009e-07
0.308379        	7.73073774e-02	5.85078274e-07
0.309221        	7.73015051e-02	5.86479279e-07
0.310064        	7.72957864e-02	5.87925070e-07
0.310906        	7.72902524e-02	5.89414327e-07
0.311749        	7.72848889e-02	5.90945564e-07
0.31259         	7.72793944e-02	5.92511479e-07
0.313431        	7.72740502e-02	5.94115222e-07
0.314273        	7.72689248e-02	5.95756494e-07
0.315114        	7.72638962e-02	5.97432454e-07
0.315956        	7.72591203e-02	5.99140716e-07
0.316796        	7.72542207e-02	6.00872990e-07
0.317636        	7.72494823e-02	6.02631908e-07
0.318477        	7.72449554e-02	6.04416285e-07
0.319317        	7.72405769e-02	6.06223362e-07
0.320157        	7.72363721e-02	6.08050102e-07
0.320997        	7.72320173e-02	6.09887330e-07
0.321836        	7.72278280e-02	6.11737278e-07
0.322675        	7.72238420e-02	6.13598278e-07
0.323515        	7.72199872e-02	6.15467174e-07
0.324354        	7.72162854e-02	6.17340629e-07
0.325193        	7.72127224e-02	6.19215337e-07
0.326031        	7.72089387e-02	6.21081847e-07
0.32687         	7.72053002e-02	6.22942403e-07
0.327708        	7.72018085e-02	6.24795314e-07
0.328546        	7.71984090e-02	6.26637467e-07
0.329385        	7.71951239e-02	6.28465646e-07
0.330222        	7.71916041e-02	6.30270604e-07
0.331059        	7.71882112e-02	6.32054834e-07
0.331896        	7.71849481e-02	6.33816969e-07
0.332733        	7.71817490e-02	6.35554264e-07
0.333571        	7.71786362e-02	6.37263930e-07
0.334408        	7.71755887e-02	6.38943341e-07
0.335244        	7.71722349e-02	6.40584045e-07
0.33608         	7.71689689e-02	6.42189107e-07
0.336916        	7.71657804e-02	6.43757923e-07
0.337753        	7.71626404e-02	6.45288568e-07
0.338589        	7.71594817e-02	6.46779133e-07
0.339424        	7.71560214e-02	6.48222160e-07
0.340259        	7.71526461e-02	6.49621359e-07
0.341094        	7.71493278e-02	6.50977010e-07
0.341929        	7.71460082e-02	6.52288094e-07
0.342764        	7.71427090e-02	6.53553633e-07
0.343599        	7.71394104e-02	6.54772896e-07
0.344433        	7.71357255e-02	6.55939914e-07
0.345268        	7.71320839e-02	6.57059289e-07
0.346102        	7.71284655e-02	6.58132518e-07
0.346936        	7.71248114e-02	6.59159798e-07
0.34777         	7.71211508e-02	6.60141379e-07
0.348604        	7.71174664e-02	6.61077760e-07
0.349437        	7.71133642e-02	6.61964508e-07
0.35027         	7.71092999e-02	6.62807112e-07
0.351103        	7.71052421e-02	6.63608258e-07
0.351936        	7.71011347e-02	6.64369298e-07
0.352769        	7.70970122e-02	6.65091605e-07
0.353602        	7.70928559e-02	6.65776766e-07
0.354434        	7.70882804e-02	6.66421658e-07
0.355266        	7.70837324e-02	6.67032475e-07
0.356097        	7.70792053e-02	6.67612849e-07
0.356929        	7.70746266e-02	6.68165016e-07
0.357761        	7.70700354e-02	6.68691173e-07
0.358593        	7.70654311e-02	6.69193666e-07
0.359424        	7.70604091e-02	6.69670243e-07
0.360255        	7.70554171e-02	6.70127505e-07
0.361086        	7.70504581e-02	6.70569643e-07
0.361917        	7.70454793e-02	6.70999368e-07
0.362747        	7.70405075e-02	6.71419278e-07
0.363578        	7.70355353e-02	6.71832043e-07
0.364408        	7.70301452e-02	6.72235720e-07
0.365238        	7.70248619e-02	6.72636979e-07
0.366067        	7.70196104e-02	6.73040122e-07
0.366897        	7.70143805e-02	6.73447874e-07
0.367727        	7.70091635e-02	6.73862793e-07
0.368557        	7.70039966e-02	6.74287423e-07
0.369385        	7.69984308e-02	6.74719557e-07
0.370214        	7.69930123e-02	6.75165648e-07
0.371043        	7.69876612e-02	6.75629682e-07
0.371871        	7.69823492e-02	6.76114015e-07
0.3727          	7.69771120e-02	6.76620759e-07
0.373529        	7.69719331e-02	6.77151979e-07
0.374356        	7.69664117e-02	6.77704739e-07
0.375184        	7.69610582e-02	6.78285063e-07
0.376011        	7.69558207e-02	6.78896321e-07
0.376839        	7.69506546e-02	6.79540210e-07
0.377667        	7.69455990e-02	6.80218145e-07
0.378494        	7.69406465e-02	6.80931466e-07
0.379322        	7.69357821e-02	6.81681402e-07
0.380148        	7.69305745e-02	6.82463790e-07
0.380975        	7.69255792e-02	6.83284054e-07
0.381801        	7.69207289e-02	6.84144655e-07
0.382628        	7.69159819e-02	6.85046347e-07
0.383454        	7.69113799e-02	6.85989596e-07
0.384281        	7.69069145e-02	6.86974774e-07
0.385106        	7.69021438e-02	6.87996522e-07
0.385931        	7.68976279e-02	6.89059759e-07
0.386757        	7.68932905e-02	6.90166112e-07
0.387582        	7.68890882e-02	6.91315487e-07
0.388407        	7.68851344e-02	6.92507505e-07
0.389233        	7.68811727e-02	6.93741705e-07
0.390058        	7.68774277e-02	6.95017525e-07
0.390882        	7.68733887e-02	6.96328228e-07
0.391707        	7.68696197e-02	6.97678235e-07
0.392531        	7.68660376e-02	6.99068277e-07
0.393355        	7.68625976e-02	7.00497382e-07
0.394179        	7.68593379e-02	7.01964310e-07
0.395004        	7.68562467e-02	7.03467766e-07
0.395828        	7.68533040e-02	7.05006373e-07
0.396651        	7.68500523e-02	7.06572224e-07
0.397474        	7.68470773e-02	7.08169371e-07
0.398297        	7.68442874e-02	7.09797824e-07
0.39912         	7.68416384e-02	7.11455904e-07
0.399943        	7.68391673e-02	7.13141695e-07
0.400767        	7.68368597e-02	7.14853261e-07
0.40159         	7.68346929e-02	7.16588617e-07
0.402412        	7.68322001e-02	7.18338994e-07
0.403234        	7.68299785e-02	7.20108225e-07
0.404056        	7.68279256e-02	7.21895833e-07
0.404878        	7.68259982e-02	7.23699681e-07
0.4057          	7.68242314e-02	7.25517439e-07
0.406522        	7.68226083e-02	7.27346797e-07
0.407344        	7.68211058e-02	7.29185442e-07
0.408164        	7.68192449e-02	7.31024165e-07
0.408985        	7.68176365e-02	7.32866750e-07
0.409806        	7.68161695e-02	7.34712530e-07
0.410627        	7.68147988e-02	7.36559218e-07
0.411448        	7.68135600e-02	7.38404383e-07
0.412269        	7.68124350e-02	7.40245662e-07
0.41309         	7.68113980e-02	7.42080734e-07
0.413909        	7.68099567e-02	7.43900427e-07
0.414729        	7.68087596e-02	7.45708660e-07
0.415549        	7.68076465e-02	7.47504893e-07
0.416368        	7.68066045e-02	7.49287016e-07
0.417188        	7.68056548e-02	7.51052820e-07
0.418008        	7.68047838e-02	7.52800206e-07
0.418828        	7.68039642e-02	7.54527163e-07
0.419646        	7.68027000e-02	7.56225015e-07
0.420465        	7.68016310e-02	7.57897952e-07
0.421283        	7.68006302e-02	7.59545858e-07
0.422102        	7.67996520e-02	7.61167074e-07
0.42292         	7.67987318e-02	7.62759881e-07
0.423739        	7.67978535e-02	7.64322701e-07
0.424557        	7.67969886e-02	7.65854069e-07
0.425375        	7.67956341e-02	7.67346152e-07
0.426192        	7.67944502e-02	7.68803497e-07
0.42701         	7.67932910e-02	7.70226595e-07
0.427827        	7.67921226e-02	7.71614419e-07
0.428644        	7.67909803e-02	7.72965899e-07
0.429462        	7.67898472e-02	7.74280119e-07
0.430279        	7.67887034e-02	7.75556288e-07
0.431097        	7.67876149e-02	7.76793717e-07
0.431913        	7.67857569e-02	7.77985759e-07
0.432729        	7.67841405e-02	7.79137371e-07
0.433545        	7.67825230e-02	7.80249837e-07
0.434361        	7.67808644e-02	7.81322934e-07
0.435178        	7.67792025e-02	7.82356393e-07
0.435994        	7.67775194e-02	7.83350101e-07
0.43681         	7.67757913e-02	7.84304061e-07
0.437626        	7.67740001e-02	7.85218370e-07
0.438441        	7.67716268e-02	7.86087593e-07
0.439256        	7.67693835e-02	7.86917018e-07
0.440071        	7.67670990e-02	7.87708677e-07
0.440886        	7.67647547e-02	7.88463080e-07
0.441701        	7.67623913e-02	7.89180687e-07
0.442516        	7.67599928e-02	7.89862091e-07
0.443331        	7.67575392e-02	7.90507989e-07
0.444147        	7.67550124e-02	7.91119153e-07
0.44496         	7.67518882e-02	7.91691205e-07
0.445774        	7.67488970e-02	7.92229652e-07
0.446588        	7.67458581e-02	7.92737142e-07
0.447402        	7.67427574e-02	7.93214778e-07
0.448216        	7.67396377e-02	7.93663588e-07
0.44903         	7.67364861e-02	7.94084714e-07
0.449843        	7.67332836e-02	7.94479376e-07
0.450657        	7.67300129e-02	7.94848847e-07
0.45147         	7.67261443e-02	7.95189518e-07
0.452283        	7.67224269e-02	7.95507014e-07
0.453095        	7.67190871e-02	7.95804408e-07
0.453908        	7.67143601e-02	7.96083185e-07
0.45472         	7.67115164e-02	7.96344737e-07
0.455533        	7.67067637e-02	7.96590539e-07
0.456346        	7.67038278e-02	7.96822115e-07
0.457158        	7.66990004e-02	7.97041008e-07
0.45797         	7.66950421e-02	7.97244011e-07
0.458781        	7.66906670e-02	7.97436761e-07
0.459593        	7.66867670e-02	7.97622515e-07
0.460404        	7.66814610e-02	7.97802909e-07
0.461215        	7.66780986e-02	7.97979444e-07
0.462027        	7.66729138e-02	7.98153679e-07
0.462838        	7.66694556e-02	7.98327185e-07
0.46365         	7.66642520e-02	7.98501524e-07
0.464461        	7.66607582e-02	7.98678238e-07
0.465271        	7.66549633e-02	7.98854077e-07
0.466082        	7.66512073e-02	7.99034581e-07
0.466892        	7.66454817e-02	7.99222928e-07
0.467702        	7.66417444e-02	7.99420624e-07
0.468512        	7.66362994e-02	7.99629004e-07
0.469322        	7.66325586e-02	7.99849423e-07
0.470133        	7.66271966e-02	8.00083219e-07
0.470943        	7.66235316e-02	8.00331680e-07
0.471752        	7.66176746e-02	8.00591099e-07
0.472561        	7.66138246e-02	8.00866831e-07
0.47337         	7.66081174e-02	8.01161714e-07
0.474179        	7.66043846e-02	8.01476881e-07
0.474987        	7.65994642e-02	8.01813271e-07
0.475796        	7.65949456e-02	8.02171812e-07
0.476605        	7.65905960e-02	8.02553413e-07
0.477414        	7.65862715e-02	8.02958909e-07
0.478223        	7.65820109e-02	8.03389069e-07
0.479031        	7.65768255e-02	8.03839310e-07
0.479839        	7.65732901e-02	8.04314753e-07
0.480646        	7.65679358e-02	8.04817696e-07
0.481454        	7.65645421e-02	8.05348695e-07
0.482262        	7.65600751e-02	8.05908101e-07
0.48307         	7.65559377e-02	8.06496250e-07
0.483877        	7.65520783e-02	8.07113433e-07
0.484685        	7.65482924e-02	8.07759869e-07
0.485493        	7.65445721e-02	8.08435699e-07
0.486299        	7.65399728e-02	8.09135283e-07
0.487106        	7.65370180e-02	8.09863514e-07
0.487912        	7.65327879e-02	8.10622063e-07
0.488718        	7.65291122e-02	8.11410843e-07
0.489525        	7.65257350e-02	8.12229564e-07
0.490331        	7.65224560e-02	8.13077930e-07
0.491138        	7.65192935e-02	8.13955601e-07
0.491944        	7.65162557e-02	8.14862170e-07
0.492751        	7.65133283e-02	8.15797160e-07
0.493557        	7.65105003e-02	8.16760034e-07
0.494362        	7.65068156e-02	8.17744014e-07
0.495167        	7.65047477e-02	8.18753829e-07
0.495973        	7.65014530e-02	8.19790518e-07
0.496778        	7.64987235e-02	8.20853372e-07
0.497583        	7.64962979e-02	8.21941491e-07
0.498388        	7.64939842e-02	8.23053985e-07
0.499193        	7.64917973e-02	8.24189939e-07
0.499998        	7.64897437e-02	8.25348387e-07
0.500803        	7.64878035e-02	8.26528311e-07
0.501607        	7.64850229e-02	8.27722130e-07
0.502411        	7.64838285e-02	8.28934490e-07
0.503215        	7.64814426e-02	8.30165995e-07
0.504019        	7.64796146e-02	8.31415526e-07
0.504823        	7.64780834e-02	8.32681802e-07
0.505627        	7.64766606e-02	8.33963579e-07
0.50643         	7.64753566e-02	8.35259610e-07
0.507234        	7.64741723e-02	8.36568627e-07
0.508038        	7.64731030e-02	8.37889335e-07
0.508842        	7.64721203e-02	8.39220427e-07
0.509645        	7.64702757e-02	8.40553854e-07
0.510447        	7.64699691e-02	8.41894295e-07
0.51125         	7.64684689e-02	8.43242141e-07
0.512052        	7.64675119e-02	8.44596103e-07
0.512855        	7.64668240e-02	8.45954762e-07
0.513657        	7.64662182e-02	8.47316766e-07
0.51446         	7.64657115e-02	8.48680787e-07
0.515262        	7.64653026e-02	8.50045503e-07
0.516065        	7.64649719e-02	8.51409596e-07
0.516867        	7.64647044e-02	8.52771760e-07
0.517669        	7.64635514e-02	8.54123988e-07
0.51847         	7.64638807e-02	8.55471066e-07
0.519271        	7.64630064e-02	8.56813439e-07
0.520072        	7.64626486e-02	8.58149923e-07
0.520874        	7.64625209e-02	8.59479239e-07
0.521675        	7.64624476e-02	8.60800200e-07
0.522476        	7.64624391e-02	8.62111669e-07
0.523277        	7.64624945e-02	8.63412534e-07
0.524078        	7.64625939e-02	8.64701711e-07
0.52488         	7.64627212e-02	8.65978148e-07
0.525679        	7.64619309e-02	8.67234335e-07
0.526479        	7.64625525e-02	8.68475182e-07
0.527279        	7.64619726e-02	8.69701405e-07
0.528079        	7.64618622e-02	8.70912139e-07
0.528879        	7.64619421e-02	8.72106447e-07
0.529679        	7.64620408e-02	8.73283497e-07
0.530479        	7.64621687e-02	8.74442519e-07
0.531279        	7.64623242e-02	8.75582781e-07
0.532078        	7.64624868e-02	8.76703586e-07
0.532878        	7.64626401e-02	8.77804277e-07
0.533678        	7.64627741e-02	8.78884250e-07
0.534477        	7.64619491e-02	8.79936865e-07
0.535275        	7.64624580e-02	8.80967123e-07
0.536074        	7.64617591e-02	8.81976154e-07
0.536872        	7.64614846e-02	8.82963551e-07
0.537671        	7.64613562e-02	8.83928842e-07
0.538469        	7.64612097e-02	8.84871660e-07
0.539268        	7.64610567e-02	8.85791699e-07
0.540066        	7.64608940e-02	8.86688683e-07
0.540865        	7.64607019e-02	8.87562369e-07
0.541663        	7.64604644e-02	8.88412548e-07