# Wall shear stress
# Time          	patch           	min             	max             
2000            	bottom	(-4.69825324e-02 -2.47845233e-03 -2.07535319e-16)	(-9.28485366e-04 -2.59174580e-10 5.23184818e-18)
