/*--------------------------------*- C++ -*----------------------------------*\
| =========                 |                                                 |
| \\      /  F ield         | OpenFOAM: The Open Source CFD Toolbox           |
|  \\    /   O peration     | Version:  2206                                  |
|   \\  /    A nd           | Website:  www.openfoam.com                      |
|    \\/     M anipulation  |                                                 |
\*---------------------------------------------------------------------------*/
FoamFile
{
    version     2.0;
    format      ascii;
    arch        "LSB;label=32;scalar=64";
    class       volScalarField;
    location    "1500";
    object      k;
}
// * * * * * * * * * * * * * * * * * * * * * * * * * * * * * * * * * * * * * //

dimensions      [0 2 -2 0 0 0 0];

internalField   nonuniform List<scalar> 
13056
(
9.1396517e-05
7.0723672e-05
6.9523053e-05
6.9432737e-05
6.9470776e-05
6.9487483e-05
6.9492181e-05
6.9494476e-05
6.9496927e-05
6.9500101e-05
6.950422e-05
6.9509487e-05
6.9516152e-05
6.9524556e-05
6.9535151e-05
6.9548624e-05
6.9565979e-05
6.9588413e-05
6.9621392e-05
6.9652213e-05
6.9784365e-05
6.9571912e-05
7.1178254e-05
1.8689938e-05
3.114823e-07
4.8479365e-08
2.4593826e-08
1.6598683e-08
1.2688873e-08
1.030721e-08
8.6976361e-09
7.5222832e-09
6.6240412e-09
5.9153282e-09
5.3407841e-09
4.8647359e-09
4.463525e-09
4.1206575e-09
3.8241333e-09
3.5650262e-09
3.33661e-09
3.1336567e-09
2.9520416e-09
2.7885937e-09
2.6406334e-09
2.5060373e-09
2.3830421e-09
2.2701834e-09
2.1662357e-09
2.0701661e-09
1.9810936e-09
1.8982634e-09
1.8210268e-09
1.7488222e-09
1.6811632e-09
1.6176256e-09
1.5578351e-09
1.5014615e-09
1.4482137e-09
1.3978332e-09
1.3500898e-09
1.3047795e-09
1.2617211e-09
1.2207507e-09
1.1817195e-09
1.1444943e-09
1.1089558e-09
1.0749972e-09
1.0425219e-09
1.0114437e-09
9.8168711e-10
9.5318562e-10
9.2587997e-10
8.997189e-10
8.746578e-10
8.5065918e-10
8.2769293e-10
8.057396e-10
7.8479693e-10
7.6486992e-10
7.4597186e-10
7.2812643e-10
7.1136606e-10
6.9573697e-10
6.8131325e-10
6.682006e-10
6.5652962e-10
6.4650162e-10
6.3851238e-10
6.322854e-10
6.2975968e-10
6.2959519e-10
6.3343966e-10
6.415597e-10
6.5481173e-10
6.7397625e-10
6.9956677e-10
7.3157618e-10
7.7024475e-10
8.1511693e-10
8.6334964e-10
9.1009273e-10
9.5268069e-10
9.8522997e-10
1.0117842e-09
1.0310554e-09
1.0452678e-09
1.0555746e-09
1.0628105e-09
1.0675427e-09
1.0701634e-09
1.0709677e-09
1.0699791e-09
1.0672316e-09
1.0629568e-09
1.0573606e-09
1.0506859e-09
1.0432316e-09
1.0351898e-09
1.0267233e-09
1.0180403e-09
1.0092746e-09
1.0004805e-09
9.917159e-10
9.8306866e-10
9.745778e-10
9.6624011e-10
9.5803643e-10
9.4997266e-10
9.4204645e-10
9.3428831e-10
9.2633975e-10
9.1878736e-10
9.0944335e-10
9.0189229e-10
8.909678e-10
9.139309e-05
7.0716864e-05
6.9516145e-05
6.9425757e-05
6.9463779e-05
6.9480484e-05
6.9485181e-05
6.9487476e-05
6.9489927e-05
6.94931e-05
6.9497219e-05
6.9502485e-05
6.9509151e-05
6.9517555e-05
6.952815e-05
6.9541623e-05
6.9558979e-05
6.9581412e-05
6.961439e-05
6.964521e-05
6.9777362e-05
6.956489e-05
7.1171235e-05
1.8692355e-05
4.792093e-08
7.4449079e-09
3.7768367e-09
2.549034e-09
1.9486109e-09
1.582863e-09
1.3356835e-09
1.1551865e-09
1.017245e-09
9.0840904e-10
8.2017716e-10
7.4707118e-10
6.8545788e-10
6.3280433e-10
5.8726768e-10
5.4747713e-10
5.1239973e-10
4.8123262e-10
4.5334238e-10
4.2824205e-10
4.0552012e-10
3.8485052e-10
3.6596245e-10
3.4863104e-10
3.3266808e-10
3.1791495e-10
3.0423634e-10
2.9151635e-10
2.7965536e-10
2.685671e-10
2.5817688e-10
2.4841956e-10
2.3923768e-10
2.3058062e-10
2.2240366e-10
2.1466705e-10
2.0733544e-10
2.003775e-10
1.937654e-10
1.8747397e-10
1.8148037e-10
1.7576414e-10
1.7030696e-10
1.6509243e-10
1.6010569e-10
1.5533347e-10
1.5076413e-10
1.4638746e-10
1.421949e-10
1.3817836e-10
1.3433088e-10
1.3064672e-10
1.2712127e-10
1.2375158e-10
1.2053733e-10
1.1747924e-10
1.145791e-10
1.1183974e-10
1.0926881e-10
1.0687319e-10
1.0466356e-10
1.0265636e-10
1.008719e-10
9.9341361e-11
9.8125412e-11
9.7179172e-11
9.6796757e-11
9.6794191e-11
9.741291e-11
9.8694929e-11
1.0077302e-10
1.0376802e-10
1.0775893e-10
1.1274331e-10
1.1875451e-10
1.2571441e-10
1.3317608e-10
1.4039076e-10
1.4695548e-10
1.5197089e-10
1.5606494e-10
1.5904006e-10
1.6123918e-10
1.6283918e-10
1.6396715e-10
1.6470913e-10
1.6512478e-10
1.6525904e-10
1.6511523e-10
1.6469828e-10
1.640438e-10
1.6318387e-10
1.6215631e-10
1.6100749e-10
1.5976736e-10
1.5846122e-10
1.571213e-10
1.5576836e-10
1.5441084e-10
1.5305779e-10
1.5172274e-10
1.5041174e-10
1.4912434e-10
1.4785762e-10
1.4661251e-10
1.4538864e-10
1.4419067e-10
1.4296367e-10
1.4179736e-10
1.4035633e-10
1.3919058e-10
1.3750391e-10
9.1382155e-05
7.0695524e-05
6.9494519e-05
6.9403911e-05
6.9441882e-05
6.9458579e-05
6.9463274e-05
6.9465568e-05
6.9468018e-05
6.9471191e-05
6.9475309e-05
6.9480575e-05
6.9487241e-05
6.9495644e-05
6.9506239e-05
6.9519712e-05
6.9537067e-05
6.9559499e-05
6.9592475e-05
6.9623287e-05
6.9755435e-05
6.9542928e-05
7.1149115e-05
1.8694812e-05
1.4996777e-08
2.3224286e-09
1.1781791e-09
7.9516933e-10
6.0787378e-10
4.9378368e-10
4.1667891e-10
3.6037455e-10
3.1734477e-10
2.8339381e-10
2.5586986e-10
2.3306442e-10
2.1384437e-10
1.974196e-10
1.8321509e-10
1.7080313e-10
1.5986141e-10
1.5013946e-10
1.414397e-10
1.3361026e-10
1.2652277e-10
1.2007553e-10
1.1418407e-10
1.0877824e-10
1.0379934e-10
9.91979e-11
9.4931655e-11
9.0964358e-11
8.726498e-11
8.3806588e-11
8.0565836e-11
7.7522396e-11
7.4658529e-11
7.1958908e-11
6.9409588e-11
6.6997805e-11
6.4712497e-11
6.254391e-11
6.0483375e-11
5.852307e-11
5.6655853e-11
5.4875364e-11
5.3175846e-11
5.1552205e-11
4.9999764e-11
4.8514183e-11
4.7091377e-11
4.5728385e-11
4.4425711e-11
4.3179578e-11
4.198715e-11
4.084682e-11
3.9757266e-11
3.8717844e-11
3.7728617e-11
3.6789709e-11
3.5900293e-11
3.5056717e-11
3.4276659e-11
3.356142e-11
3.291052e-11
3.2330675e-11
3.1830163e-11
3.1420873e-11
3.1122323e-11
3.0908886e-11
3.0854704e-11
3.1016929e-11
3.1414046e-11
3.2067465e-11
3.3028535e-11
3.4343675e-11
3.6041293e-11
3.8116406e-11
4.056386e-11
4.3315316e-11
4.6166003e-11
4.8841414e-11
5.1224786e-11
5.3048916e-11
5.4546174e-11
5.5663168e-11
5.6519951e-11
5.7175605e-11
5.7667518e-11
5.802e-11
5.8250948e-11
5.8373442e-11
5.8386959e-11
5.8291297e-11
5.8098113e-11
5.7820907e-11
5.7475637e-11
5.7080564e-11
5.6648264e-11
5.6189255e-11
5.5715603e-11
5.5235289e-11
5.4752114e-11
5.426973e-11
5.3792947e-11
5.3324067e-11
5.2863262e-11
5.2409792e-11
5.1964025e-11
5.1525993e-11
5.1096778e-11
5.0659888e-11
5.0241179e-11
4.9738243e-11
4.9322314e-11
4.87197e-11
9.1363371e-05
7.0658965e-05
6.9457474e-05
6.9366493e-05
6.9404375e-05
6.942106e-05
6.9425752e-05
6.9428044e-05
6.9430492e-05
6.9433664e-05
6.9437781e-05
6.9443047e-05
6.9449712e-05
6.9458116e-05
6.9468711e-05
6.9482183e-05
6.9499537e-05
6.9521967e-05
6.9554938e-05
6.9585738e-05
6.9717873e-05
6.9505316e-05
7.1111184e-05
1.8697472e-05
6.6923925e-09
1.0242017e-09
5.1958678e-10
3.5068262e-10
2.6810311e-10
2.1780352e-10
1.8380837e-10
1.5898258e-10
1.4000915e-10
1.2503752e-10
1.1289899e-10
1.0284135e-10
9.4365639e-11
8.7123578e-11
8.0861133e-11
7.538941e-11
7.0566009e-11
6.6280409e-11
6.2445555e-11
5.8994532e-11
5.5870787e-11
5.302949e-11
5.0433412e-11
4.8051636e-11
4.585828e-11
4.3831567e-11
4.1952704e-11
4.0205428e-11
3.8576199e-11
3.705307e-11
3.5625633e-11
3.4284896e-11
3.3023568e-11
3.1836255e-11
3.0716832e-11
2.9658614e-11
2.8656639e-11
2.7706656e-11
2.6804904e-11
2.5948005e-11
2.513278e-11
2.4356494e-11
2.3616515e-11
2.2910691e-11
2.2236875e-11
2.1592623e-11
2.0974906e-11
2.0383044e-11
1.9826164e-11
1.9299227e-11
1.8799222e-11
1.832605e-11
1.7879616e-11
1.7460561e-11
1.7069634e-11
1.6706949e-11
1.6368959e-11
1.604246e-11
1.5775127e-11
1.5566486e-11
1.5407526e-11
1.5306635e-11
1.5274302e-11
1.5323993e-11
1.546995e-11
1.5680836e-11
1.5954009e-11
1.6573089e-11
1.7434265e-11
1.8576883e-11
2.0059086e-11
2.1934801e-11
2.4237485e-11
2.6967289e-11
3.0102337e-11
3.3514154e-11
3.6925474e-11
4.0039159e-11
4.2712606e-11
4.4823946e-11
4.6546781e-11
4.7910896e-11
4.902178e-11
4.9936014e-11
5.0680467e-11
5.1273744e-11
5.1732127e-11
5.2063914e-11
5.2265764e-11
5.2332518e-11
5.2272103e-11
5.2103005e-11
5.1847142e-11
5.1526324e-11
5.115766e-11
5.0755191e-11
5.0331677e-11
4.9896148e-11
4.9454402e-11
4.9011046e-11
4.8570457e-11
4.8135173e-11
4.7706321e-11
4.72841e-11
4.6868964e-11
4.6461392e-11
4.6060716e-11
4.5660791e-11
4.5267496e-11
4.4836778e-11
4.4453567e-11
4.3895939e-11
9.1336207e-05
7.0606108e-05
6.9403916e-05
6.9312394e-05
6.9350149e-05
6.9366816e-05
6.9371505e-05
6.9373793e-05
6.9376239e-05
6.9379408e-05
6.9383524e-05
6.938879e-05
6.9395455e-05
6.9403858e-05
6.9414453e-05
6.9427925e-05
6.9445277e-05
6.9467703e-05
6.9500668e-05
6.9531449e-05
6.9663564e-05
6.945094e-05
7.1056326e-05
1.8700637e-05
3.7087133e-09
5.4684358e-10
2.7743065e-10
1.8726077e-10
1.4321458e-10
1.1639375e-10
9.826324e-11
8.5019543e-11
7.4896257e-11
6.6905139e-11
6.042385e-11
5.5053518e-11
5.052934e-11
4.6665765e-11
4.3326246e-11
4.0409373e-11
3.7838525e-11
3.5554553e-11
3.3511146e-11
3.1672744e-11
3.0009266e-11
2.8496839e-11
2.7115635e-11
2.5849188e-11
2.4683705e-11
2.3607642e-11
2.2610623e-11
2.16834e-11
2.0819039e-11
2.0011046e-11
1.9253645e-11
1.854199e-11
1.7873264e-11
1.724736e-11
1.6661087e-11
1.6108773e-11
1.5587616e-11
1.5095469e-11
1.4630473e-11
1.4191e-11
1.3775277e-11
1.338202e-11
1.3009739e-11
1.2657549e-11
1.2324234e-11
1.2007585e-11
1.1703737e-11
1.1413561e-11
1.1158962e-11
1.0931197e-11
1.0725593e-11
1.0543566e-11
1.0386472e-11
1.0256876e-11
1.0157304e-11
1.0089011e-11
1.0046155e-11
1.000311e-11
1.0052186e-11
1.0195061e-11
1.0415788e-11
1.073218e-11
1.1167074e-11
1.175e-11
1.2512202e-11
1.3442678e-11
1.4525942e-11
1.6180556e-11
1.8298152e-11
2.0975285e-11
2.4329688e-11
2.84725e-11
3.3474746e-11
3.9347104e-11
4.6040706e-11
5.3265077e-11
6.0430973e-11
6.694205e-11
7.246353e-11
7.6902203e-11
8.0506863e-11
8.3429424e-11
8.5856205e-11
8.7896716e-11
8.9595948e-11
9.0988056e-11
9.2105526e-11
9.2960735e-11
9.3545002e-11
9.3843491e-11
9.3867522e-11
9.3657714e-11
9.3262271e-11
9.2726644e-11
9.2088327e-11
9.1377882e-11
9.0620448e-11
8.9834403e-11
8.9032934e-11
8.8225865e-11
8.7421105e-11
8.6623765e-11
8.5836999e-11
8.5062178e-11
8.4300258e-11
8.3552629e-11
8.2816173e-11
8.209001e-11
8.1364387e-11
8.0616375e-11
7.9917719e-11
7.8898316e-11
9.1299943e-05
7.0535489e-05
6.9332358e-05
6.9240114e-05
6.9277697e-05
6.929434e-05
6.9299024e-05
6.9301308e-05
6.930375e-05
6.9306918e-05
6.9311032e-05
6.9316297e-05
6.9322961e-05
6.9331364e-05
6.9341958e-05
6.9355429e-05
6.9372779e-05
6.93952e-05
6.9428156e-05
6.9458913e-05
6.9590999e-05
6.9378289e-05
7.098303e-05
1.8704778e-05
2.4568457e-09
3.3031324e-10
1.6760302e-10
1.1316062e-10
8.6645012e-11
7.0515059e-11
5.9604385e-11
5.1627678e-11
4.5527223e-11
4.0706305e-11
3.679209e-11
3.3548535e-11
3.0818605e-11
2.8491002e-11
2.6481737e-11
2.4728657e-11
2.3184369e-11
2.181287e-11
2.0586519e-11
1.9484174e-11
1.8487883e-11
1.7583354e-11
1.6758703e-11
1.600407e-11
1.5311173e-11
1.4673215e-11
1.4083286e-11
1.3534875e-11
1.3024296e-11
1.254748e-11
1.2100626e-11
1.1680748e-11
1.1287895e-11
1.0926512e-11
1.059488e-11
1.028624e-11
9.9986976e-12
9.7312045e-12
9.482934e-12
9.2532567e-12
9.0409597e-12
8.8456248e-12
8.666479e-12
8.5036005e-12
8.3564009e-12
8.2225091e-12
8.0966134e-12
7.9811571e-12
7.9142768e-12
7.8828821e-12
7.8804754e-12
7.9108752e-12
7.97825e-12
8.0886458e-12
8.2486923e-12
8.4640386e-12
8.7321338e-12
9.0228559e-12
9.4585536e-12
1.0053248e-11
1.0798386e-11
1.1731663e-11
1.2901878e-11
1.4372852e-11
1.6215222e-11
1.8456744e-11
2.1095386e-11
2.4773494e-11
2.940614e-11
3.5205953e-11
4.242002e-11
5.1283113e-11
6.1947648e-11
7.4445434e-11
8.8679948e-11
1.0404009e-10
1.1928735e-10
1.3316795e-10
1.4492523e-10
1.5443147e-10
1.6213785e-10
1.6841737e-10
1.7364728e-10
1.7805836e-10
1.8174404e-10
1.8477809e-10
1.8723112e-10
1.8912814e-10
1.9045042e-10
1.9116463e-10
1.9129218e-10
1.9092027e-10
1.9015236e-10
1.8908482e-10
1.8779806e-10
1.8635754e-10
1.8481581e-10
1.832116e-10
1.8157344e-10
1.7992225e-10
1.7827419e-10
1.7664001e-10
1.7502679e-10
1.7343794e-10
1.7187549e-10
1.7034258e-10
1.6883171e-10
1.6734713e-10
1.6585691e-10
1.6434762e-10
1.629176e-10
1.6082947e-10
9.1253681e-05
7.0445267e-05
6.9240931e-05
6.914776e-05
6.9185124e-05
6.9201736e-05
6.9206413e-05
6.9208692e-05
6.921113e-05
6.9214294e-05
6.9218407e-05
6.922367e-05
6.9230334e-05
6.9238736e-05
6.924933e-05
6.9262799e-05
6.9280145e-05
6.930256e-05
6.9335505e-05
6.9366232e-05
6.9498279e-05
6.9285461e-05
7.0889396e-05
1.8710561e-05
1.967556e-09
2.2065841e-10
1.1200878e-10
7.5681689e-11
5.8129686e-11
4.7481621e-11
4.0266559e-11
3.4979526e-11
3.0930524e-11
2.772247e-11
2.5111336e-11
2.2947062e-11
2.1129366e-11
1.9585263e-11
1.825655e-11
1.71005e-11
1.6083598e-11
1.5181322e-11
1.4375787e-11
1.3653466e-11
1.3002752e-11
1.2414321e-11
1.1880399e-11
1.1394553e-11
1.0951341e-11
1.0546539e-11
1.0174488e-11
9.829571e-12
9.5100473e-12
9.2131296e-12
8.9359445e-12
8.676477e-12
8.4370984e-12
8.2268039e-12
8.0448973e-12
7.8826245e-12
7.7385604e-12
7.6124525e-12
7.5042826e-12
7.4142703e-12
7.3413625e-12
7.2859372e-12
7.2483192e-12
7.2298503e-12
7.2310248e-12
7.250111e-12
7.281585e-12
7.3295538e-12
7.4442032e-12
7.6118246e-12
7.8268275e-12
8.0970843e-12
8.4316169e-12
8.8425603e-12
9.3439136e-12
9.9494753e-12
1.0663865e-11
1.1452832e-11
1.248447e-11
1.3794853e-11
1.5392005e-11
1.7349684e-11
1.9763736e-11
2.2760379e-11
2.6483262e-11
3.1031306e-11
3.6448943e-11
4.3748584e-11
5.2905474e-11
6.4341848e-11
7.8541437e-11
9.5965217e-11
1.1691512e-10
1.4146264e-10
1.6943142e-10
1.9964077e-10
2.2967978e-10
2.5708745e-10
2.80321e-10
2.9915038e-10
3.1440295e-10
3.2684337e-10
3.3720373e-10
3.4594032e-10
3.5324001e-10
3.5925271e-10
3.6412099e-10
3.6789486e-10
3.7053796e-10
3.71984e-10
3.7227385e-10
3.7157953e-10
3.7010523e-10
3.6804041e-10
3.6554372e-10
3.6274421e-10
3.5974484e-10
3.5662167e-10
3.5343108e-10
3.5021429e-10
3.4700276e-10
3.4381757e-10
3.4067288e-10
3.375756e-10
3.3452976e-10
3.3154163e-10
3.2859603e-10
3.2570438e-10
3.2279819e-10
3.1986892e-10
3.1708267e-10
3.130133e-10
9.1196347e-05
7.0333227e-05
6.9127382e-05
6.9033056e-05
6.9070148e-05
6.9086721e-05
6.9091389e-05
6.9093662e-05
6.9096094e-05
6.9099254e-05
6.9103364e-05
6.9108626e-05
6.9115289e-05
6.912369e-05
6.9134283e-05
6.9147751e-05
6.9165093e-05
6.91875e-05
6.922043e-05
6.9251121e-05
6.9383117e-05
6.9170166e-05
7.0773141e-05
1.87189e-05
1.9310735e-09
1.6461981e-10
8.3637684e-11
5.6604782e-11
4.3774088e-11
3.6038909e-11
3.077739e-11
2.6902077e-11
2.3925332e-11
2.1555567e-11
1.9618064e-11
1.8011223e-11
1.6666653e-11
1.5532065e-11
1.4561739e-11
1.3722577e-11
1.2986803e-11
1.2335375e-11
1.1755888e-11
1.1239204e-11
1.0777285e-11
1.0363531e-11
9.9924123e-12
9.6593772e-12
9.3605206e-12
9.0932219e-12
8.8517464e-12
8.6306244e-12
8.4294026e-12
8.2462693e-12
8.0790272e-12
7.9263282e-12
7.7921949e-12
7.689004e-12
7.617048e-12
7.5663693e-12
7.5360676e-12
7.5266825e-12
7.539072e-12
7.5744466e-12
7.6316294e-12
7.711984e-12
7.8174532e-12
7.9512638e-12
8.1156046e-12
8.3099415e-12
8.5289375e-12
8.7793689e-12
9.127649e-12
9.5603787e-12
1.0074397e-11
1.0684304e-11
1.1407204e-11
1.2265462e-11
1.3285527e-11
1.4495118e-11
1.5911743e-11
1.7496978e-11
1.9492119e-11
2.1969563e-11
2.4967257e-11
2.8620175e-11
3.3104061e-11
3.8651337e-11
4.5531258e-11
5.3969796e-11
6.4112583e-11
7.7546622e-11
9.4377285e-11
1.1538313e-10
1.4145131e-10
1.7342872e-10
2.1187329e-10
2.5692657e-10
3.0828376e-10
3.6380829e-10
4.191043e-10
4.6964853e-10
5.125363e-10
5.4733861e-10
5.7551778e-10
5.9850338e-10
6.1763507e-10
6.337571e-10
6.4721975e-10
6.5830647e-10
6.6728486e-10
6.7424909e-10
6.7913335e-10
6.8181561e-10
6.8237038e-10
6.8111437e-10
6.7842338e-10
6.7464583e-10
6.7007369e-10
6.6494446e-10
6.5944727e-10
6.537219e-10
6.478722e-10
6.41974e-10
6.3608496e-10
6.3024382e-10
6.2447674e-10
6.1879659e-10
6.1321073e-10
6.0773079e-10
6.0232859e-10
5.9702683e-10
5.9169646e-10
5.8633161e-10
5.8122262e-10
5.7376038e-10
9.1126702e-05
7.0196783e-05
6.8989084e-05
6.8893344e-05
6.8930101e-05
6.8946625e-05
6.8951284e-05
6.8953547e-05
6.8955973e-05
6.8959128e-05
6.8963235e-05
6.8968495e-05
6.8975157e-05
6.8983558e-05
6.8994149e-05
6.9007615e-05
6.9024952e-05
6.904735e-05
6.9080262e-05
6.9110908e-05
6.9242842e-05
6.9029727e-05
7.0631601e-05
1.8731001e-05
2.2571191e-09
1.4172744e-10
7.2118013e-11
4.8945475e-11
3.8289111e-11
3.193917e-11
2.7590065e-11
2.435746e-11
2.18616e-11
1.9862523e-11
1.8218891e-11
1.685439e-11
1.571736e-11
1.4765784e-11
1.3959104e-11
1.3268505e-11
1.2666487e-11
1.2135615e-11
1.1666559e-11
1.1252828e-11
1.0888389e-11
1.0568069e-11
1.028749e-11
1.004309e-11
9.8317304e-12
9.6519354e-12
9.4966568e-12
9.35977e-12
9.2419435e-12
9.1422569e-12
9.059061e-12
8.9915701e-12
8.9456086e-12
8.9375372e-12
8.9687967e-12
9.0279482e-12
9.1147204e-12
9.2306499e-12
9.3777617e-12
9.5586431e-12
9.7717079e-12
1.0019734e-11
1.0307147e-11
1.0640113e-11
1.1023515e-11
1.145884e-11
1.1941411e-11
1.2482468e-11
1.3172652e-11
1.3999568e-11
1.4964471e-11
1.6092852e-11
1.7414934e-11
1.8969729e-11
2.0804027e-11
2.2968517e-11
2.5502985e-11
2.8366408e-11
3.1911662e-11
3.6269615e-11
4.1530138e-11
4.7928195e-11
5.57701e-11
6.546216e-11
7.7480909e-11
9.2270796e-11
1.1016955e-10
1.3362536e-10
1.6299768e-10
1.9964839e-10
2.4512537e-10
3.0090792e-10
3.6797485e-10
4.4658599e-10
5.362352e-10
6.3323718e-10
7.2996034e-10
8.1849927e-10
8.9368981e-10
9.5475639e-10
1.0041875e-09
1.0445035e-09
1.0780407e-09
1.1062828e-09
1.1298521e-09
1.149255e-09
1.1649668e-09
1.1771555e-09
1.1857077e-09
1.1904104e-09
1.1913935e-09
1.1892109e-09
1.1845196e-09
1.1779286e-09
1.1699485e-09
1.1609945e-09
1.151397e-09
1.1414004e-09
1.1311862e-09
1.120887e-09
1.1106035e-09
1.1004035e-09
1.0903326e-09
1.0804135e-09
1.0706591e-09
1.0610896e-09
1.0516558e-09
1.0423982e-09
1.0330895e-09
1.0237254e-09
1.0148042e-09
1.0017734e-09
9.1043349e-05
7.0032977e-05
6.8823024e-05
6.8725579e-05
6.876193e-05
6.8778396e-05
6.8783041e-05
6.8785295e-05
6.8787711e-05
6.8790861e-05
6.8794964e-05
6.8800222e-05
6.8806882e-05
6.8815282e-05
6.8825872e-05
6.8839335e-05
6.8856667e-05
6.8879053e-05
6.8911943e-05
6.8942537e-05
6.9074394e-05
6.8861082e-05
7.0461731e-05
1.8748429e-05
2.9588749e-09
1.450085e-10
7.3931178e-11
5.0351679e-11
3.994913e-11
3.3850096e-11
2.9633295e-11
2.6460287e-11
2.3993907e-11
2.2005632e-11
2.0361433e-11
1.8994752e-11
1.7860432e-11
1.6919152e-11
1.6129343e-11
1.5462119e-11
1.4885092e-11
1.437913e-11
1.39364e-11
1.3552011e-11
1.3220913e-11
1.2938453e-11
1.2700638e-11
1.2504277e-11
1.2346444e-11
1.2226635e-11
1.2135025e-11
1.2063901e-11
1.2015178e-11
1.1988949e-11
1.198412e-11
1.200052e-11
1.2046371e-11
1.2143523e-11
1.2294922e-11
1.2486991e-11
1.272032e-11
1.2997861e-11
1.3323341e-11
1.3701399e-11
1.412968e-11
1.4613099e-11
1.5159964e-11
1.578106e-11
1.6485564e-11
1.7278374e-11
1.8156415e-11
1.9138207e-11
2.0349939e-11
2.1781643e-11
2.3442288e-11
2.5374634e-11
2.7629769e-11
3.0273172e-11
3.3384107e-11
3.7050274e-11
4.1348886e-11
4.6241017e-11
5.2244089e-11
5.9581623e-11
6.8431077e-11
7.9186673e-11
9.2362793e-11
1.0864326e-10
1.2883751e-10
1.5375364e-10
1.8406884e-10
2.2349837e-10
2.7286328e-10
3.3445657e-10
4.1088047e-10
5.0462415e-10
6.1734015e-10
7.4948182e-10
9.002329e-10
1.0634567e-09
1.226376e-09
1.3756823e-09
1.5025679e-09
1.6056831e-09
1.6891335e-09
1.7571855e-09
1.8137672e-09
1.8613871e-09
1.9011071e-09
1.9337948e-09
1.9602601e-09
1.9807911e-09
1.9951989e-09
2.0031256e-09
2.0047898e-09
2.0011241e-09
1.9932347e-09
1.9821471e-09
1.9687207e-09
1.9536546e-09
1.9375051e-09
1.9206833e-09
1.9034952e-09
1.8861638e-09
1.8688586e-09
1.8516936e-09
1.834746e-09
1.8180537e-09
1.8016385e-09
1.7855347e-09
1.7696589e-09
1.7540804e-09
1.7384151e-09
1.7226595e-09
1.7076467e-09
1.6857183e-09
9.0944737e-05
6.9838476e-05
6.8625808e-05
6.8526326e-05
6.8562192e-05
6.8578585e-05
6.8583215e-05
6.8585456e-05
6.8587863e-05
6.8591005e-05
6.8595103e-05
6.8600358e-05
6.8607017e-05
6.8615416e-05
6.8626004e-05
6.8639464e-05
6.8656789e-05
6.8679161e-05
6.8712026e-05
6.8742558e-05
6.8874323e-05
6.8660775e-05
7.0260108e-05
1.8773176e-05
4.1200474e-09
1.7455845e-10
8.915407e-11
6.0909579e-11
4.8929783e-11
4.201987e-11
3.7197309e-11
3.3524555e-11
3.0651421e-11
2.8323548e-11
2.6390257e-11
2.4781546e-11
2.3450042e-11
2.2352176e-11
2.143906e-11
2.0677432e-11
2.0023997e-11
1.9454356e-11
1.8960928e-11
1.8539713e-11
1.8185838e-11
1.7894393e-11
1.7661092e-11
1.7482585e-11
1.7355662e-11
1.7280812e-11
1.7243466e-11
1.7233136e-11
1.7253354e-11
1.7305575e-11
1.7389435e-11
1.7505585e-11
1.7665624e-11
1.7899134e-11
1.821117e-11
1.8585188e-11
1.902307e-11
1.9529872e-11
2.0111889e-11
2.0776877e-11
2.1521214e-11
2.2353088e-11
2.3286886e-11
2.4340607e-11
2.5530238e-11
2.6866373e-11
2.834932e-11
3.0009173e-11
3.2023115e-11
3.4386476e-11
3.7121409e-11
4.0297644e-11
4.3998929e-11
4.8332138e-11
5.3427505e-11
5.9431301e-11
6.6482118e-11
7.4552959e-11
8.4399585e-11
9.6390453e-11
1.1084713e-10
1.2841312e-10
1.4992865e-10
1.7651266e-10
2.0949923e-10
2.5028674e-10
3.0012606e-10
3.6457859e-10
4.4526306e-10
5.459327e-10
6.7084263e-10
8.2406598e-10
1.0083142e-09
1.2243502e-09
1.4708858e-09
1.7379664e-09
2.0047705e-09
2.2495123e-09
2.4576239e-09
2.6268306e-09
2.7637462e-09
2.8753819e-09
2.9681626e-09
3.0462092e-09
3.1112795e-09
3.1648133e-09
3.2081503e-09
3.2417684e-09
3.2653617e-09
3.2783449e-09
3.2810763e-09
3.2750825e-09
3.2621746e-09
3.244031e-09
3.2220587e-09
3.1974022e-09
3.170972e-09
3.1434413e-09
3.1153106e-09
3.0869453e-09
3.0586228e-09
3.0305295e-09
3.0027919e-09
2.9754723e-09
2.948606e-09
2.9222494e-09
2.896266e-09
2.8707695e-09
2.8451304e-09
2.8193456e-09
2.7947749e-09
2.7588855e-09
9.0829172e-05
6.9609567e-05
6.839365e-05
6.8291758e-05
6.8327043e-05
6.834335e-05
6.8347961e-05
6.8350187e-05
6.8352581e-05
6.8355715e-05
6.8359808e-05
6.8365059e-05
6.8371715e-05
6.8380113e-05
6.8390699e-05
6.8404156e-05
6.8421472e-05
6.8443829e-05
6.8476663e-05
6.8507124e-05
6.8638779e-05
6.8424954e-05
7.0022919e-05
1.8807736e-05
5.8924387e-09
2.3585665e-10
1.2060922e-10
8.2575524e-11
6.6891124e-11
5.7955234e-11
5.1674883e-11
4.6849516e-11
4.3057497e-11
3.9976665e-11
3.741255e-11
3.5277522e-11
3.351262e-11
3.2062206e-11
3.086253e-11
2.987094e-11
2.9025251e-11
2.8291274e-11
2.7660473e-11
2.7129179e-11
2.6691922e-11
2.6342701e-11
2.6076206e-11
2.5888367e-11
2.5775138e-11
2.5738209e-11
2.5755456e-11
2.5812e-11
2.5913639e-11
2.6063851e-11
2.6263381e-11
2.6514127e-11
2.6832479e-11
2.7258832e-11
2.7801294e-11
2.8439432e-11
2.917714e-11
3.0022655e-11
3.0986172e-11
3.2080204e-11
3.3299134e-11
3.465616e-11
3.617514e-11
3.7885246e-11
3.9813167e-11
4.1978853e-11
4.4389111e-11
4.7092123e-11
5.0337154e-11
5.4130082e-11
5.8515093e-11
6.3603541e-11
6.9529703e-11
7.6464417e-11
8.4616917e-11
9.4224921e-11
1.055257e-10
1.1852227e-10
1.3431249e-10
1.5348913e-10
1.7660609e-10
2.0469228e-10
2.390918e-10
2.8159729e-10
3.3435846e-10
3.997138e-10
4.7985507e-10
5.8301969e-10
7.1215747e-10
8.7328271e-10
1.073209e-09
1.3184624e-09
1.613397e-09
1.9592629e-09
2.3540597e-09
2.7819552e-09
3.2097044e-09
3.6023907e-09
3.9364676e-09
4.2081986e-09
4.4280444e-09
4.6072754e-09
4.7561824e-09
4.8813902e-09
4.9857414e-09
5.0715703e-09
5.1410417e-09
5.1949309e-09
5.2327514e-09
5.2535666e-09
5.2579508e-09
5.2483508e-09
5.2276696e-09
5.1985969e-09
5.1633879e-09
5.1238768e-09
5.0815228e-09
5.0374048e-09
4.9923251e-09
4.9468693e-09
4.9014818e-09
4.8564617e-09
4.8120114e-09
4.7682308e-09
4.7251769e-09
4.6829395e-09
4.6413003e-09
4.6004416e-09
4.559354e-09
4.5180344e-09
4.4786592e-09
4.4211454e-09
9.0694827e-05
6.9342152e-05
6.8122366e-05
6.801764e-05
6.8052236e-05
6.8068439e-05
6.8073027e-05
6.8075235e-05
6.8077615e-05
6.8080739e-05
6.8084824e-05
6.8090072e-05
6.8096725e-05
6.8105121e-05
6.8115705e-05
6.8129157e-05
6.8146463e-05
6.8168802e-05
6.8201601e-05
6.8231981e-05
6.8363504e-05
6.8149365e-05
6.9745962e-05
1.8855178e-05
8.5094458e-09
3.3998934e-10
1.7398492e-10
1.1926537e-10
9.707239e-11
8.4523916e-11
7.5667263e-11
6.8826469e-11
6.3436427e-11
5.9053199e-11
5.5403226e-11
5.2363198e-11
4.9850652e-11
4.778775e-11
4.6085912e-11
4.4686575e-11
4.3497399e-11
4.2468129e-11
4.1587877e-11
4.0852784e-11
4.0255885e-11
3.9789051e-11
3.9445024e-11
3.9218321e-11
3.9103357e-11
3.9103432e-11
3.9184759e-11
3.9325794e-11
3.9535617e-11
3.9820827e-11
4.0183969e-11
4.06289e-11
4.1178805e-11
4.1889064e-11
4.2772272e-11
4.3803141e-11
4.4988731e-11
4.6342098e-11
4.7879362e-11
4.9620278e-11
5.1556154e-11
5.3707827e-11
5.6113811e-11
5.8820445e-11
6.1871076e-11
6.5300769e-11
6.9128048e-11
7.3428989e-11
7.8553974e-11
8.452841e-11
9.1432545e-11
9.9441424e-11
1.0876679e-10
1.1967745e-10
1.3250393e-10
1.4762526e-10
1.654349e-10
1.8599706e-10
2.1089851e-10
2.4107633e-10
2.7745295e-10
3.2164769e-10
3.7577685e-10
4.4266633e-10
5.2572129e-10
6.2875626e-10
7.5547346e-10
9.1797972e-10
1.1213907e-09
1.3751895e-09
1.690113e-09
2.0764505e-09
2.5410802e-09
3.0860094e-09
3.7081692e-09
4.3827551e-09
5.0575066e-09
5.6773586e-09
6.2049144e-09
6.6341579e-09
6.9814033e-09
7.2644665e-09
7.4995687e-09
7.6971839e-09
7.8618291e-09
7.9972208e-09
8.1067969e-09
8.1917917e-09
8.2514435e-09
8.284277e-09
8.2911982e-09
8.2760661e-09
8.2434585e-09
8.1976172e-09
8.1420987e-09
8.0797957e-09
8.013009e-09
7.9434403e-09
7.8723549e-09
7.8006762e-09
7.729105e-09
7.6581129e-09
7.5880193e-09
7.5189818e-09
7.45109e-09
7.3844859e-09
7.3188249e-09
7.2543951e-09
7.1896038e-09
7.124448e-09
7.0623574e-09
6.9716638e-09
9.0539759e-05
6.9031745e-05
6.7807367e-05
6.7699332e-05
6.7733111e-05
6.7749189e-05
6.7753749e-05
6.7755936e-05
6.7758298e-05
6.776141e-05
6.7765487e-05
6.7770729e-05
6.777738e-05
6.7785774e-05
6.7796355e-05
6.7809801e-05
6.7827096e-05
6.7849414e-05
6.7882172e-05
6.791246e-05
6.8043829e-05
6.7829342e-05
6.9424638e-05
1.8919224e-05
1.2312108e-08
5.051655e-10
2.5861447e-10
1.7739279e-10
1.4474303e-10
1.2635903e-10
1.1335457e-10
1.0328189e-10
9.5334664e-11
8.8872429e-11
8.3493109e-11
7.9012483e-11
7.5307988e-11
7.2265406e-11
6.9757421e-11
6.7700547e-11
6.5955901e-11
6.4448115e-11
6.3162112e-11
6.2093277e-11
6.1231971e-11
6.056652e-11
6.0086453e-11
5.9783927e-11
5.9650842e-11
5.9692801e-11
5.9858274e-11
6.0115781e-11
6.0479236e-11
6.0960094e-11
6.1563856e-11
6.2297485e-11
6.3193781e-11
6.4328761e-11
6.5721662e-11
6.7341408e-11
6.9200023e-11
7.131786e-11
7.3720013e-11
7.6437214e-11
7.9456092e-11
8.2809083e-11
8.6557216e-11
9.0773042e-11
9.5525618e-11
1.0087408e-10
1.0685713e-10
1.1359349e-10
1.2157488e-10
1.3086106e-10
1.4159024e-10
1.540343e-10
1.6852296e-10
1.85474e-10
2.0540295e-10
2.2890536e-10
2.5661901e-10
2.8872109e-10
3.2749594e-10
3.7440565e-10
4.3094994e-10
4.9964645e-10
5.8378675e-10
6.8777053e-10
8.1692073e-10
9.7734434e-10
1.1751307e-09
1.4279764e-09
1.7444569e-09
2.1393392e-09
2.6293355e-09
3.2304678e-09
3.9534648e-09
4.8015005e-09
5.7699095e-09
6.8202773e-09
7.8714312e-09
8.8376064e-09
9.6602086e-09
1.0329701e-08
1.0871253e-08
1.1312666e-08
1.1679195e-08
1.1987189e-08
1.2243729e-08
1.245465e-08
1.2625337e-08
1.2757728e-08
1.2850645e-08
1.2901793e-08
1.2912582e-08
1.2889023e-08
1.2838246e-08
1.2766858e-08
1.2680397e-08
1.2583369e-08
1.2479358e-08
1.2371014e-08
1.2260307e-08
1.2148676e-08
1.2037212e-08
1.192665e-08
1.1817487e-08
1.1709968e-08
1.1604234e-08
1.1500506e-08
1.1398246e-08
1.1297903e-08
1.1196998e-08
1.1095525e-08
1.0998826e-08
1.085758e-08
9.0361924e-05
6.8673468e-05
6.7443654e-05
6.7331772e-05
6.7364587e-05
6.7380515e-05
6.7385042e-05
6.7387203e-05
6.7389545e-05
6.7392642e-05
6.7396709e-05
6.7401945e-05
6.7408592e-05
6.7416983e-05
6.7427561e-05
6.7441001e-05
6.7458283e-05
6.7480577e-05
6.7513288e-05
6.7543471e-05
6.7674659e-05
6.7459803e-05
6.9053956e-05
1.900432e-05
1.7788596e-08
7.5952688e-10
3.8891687e-10
2.6685991e-10
2.1801878e-10
1.9057854e-10
1.7114633e-10
1.5607395e-10
1.441745e-10
1.3450362e-10
1.2645904e-10
1.1975881e-10
1.1421609e-10
1.0965971e-10
1.0590368e-10
1.0282674e-10
1.0021931e-10
9.7967624e-11
9.6049857e-11
9.4459918e-11
9.318385e-11
9.2204412e-11
9.1506097e-11
9.1077349e-11
9.0906158e-11
9.1001505e-11
9.1285095e-11
9.1710779e-11
9.229961e-11
9.3070611e-11
9.4034089e-11
9.5201912e-11
9.6620469e-11
9.8394115e-11
1.0055194e-10
1.0305631e-10
1.0592701e-10
1.0919538e-10
1.1290007e-10
1.1708839e-10
1.2173992e-10
1.269046e-10
1.3267786e-10
1.3917207e-10
1.4649568e-10
1.5474568e-10
1.6399446e-10
1.7442552e-10
1.867279e-10
2.0101959e-10
2.175307e-10
2.3667951e-10
2.5897448e-10
2.8505889e-10
3.1572872e-10
3.5190943e-10
3.9461721e-10
4.4422616e-10
5.0401593e-10
5.7624496e-10
6.6330839e-10
7.6908367e-10
8.9864172e-10
1.0587666e-09
1.2576939e-09
1.5050613e-09
1.8106863e-09
2.2003409e-09
2.6880505e-09
3.2965888e-09
4.0517194e-09
4.9781519e-09
6.0924562e-09
7.3995913e-09
8.892514e-09
1.0512263e-08
1.2133928e-08
1.3625219e-08
1.4895292e-08
1.5929214e-08
1.6765489e-08
1.7447071e-08
1.8012904e-08
1.848825e-08
1.8884093e-08
1.9209494e-08
1.9472802e-08
1.9677029e-08
1.9820364e-08
1.9899269e-08
1.9915924e-08
1.9879598e-08
1.980129e-08
1.9691189e-08
1.955784e-08
1.9408191e-08
1.924777e-08
1.9080665e-08
1.8909915e-08
1.873774e-08
1.8565822e-08
1.8395294e-08
1.8226924e-08
1.8061091e-08
1.789801e-08
1.7738021e-08
1.7580298e-08
1.7425533e-08
1.7269899e-08
1.7113392e-08
1.6964245e-08
1.6746392e-08
9.0159208e-05
6.8262055e-05
6.7025822e-05
6.6909482e-05
6.6941164e-05
6.6956914e-05
6.69614e-05
6.696353e-05
6.6965848e-05
6.6968927e-05
6.6972983e-05
6.6978212e-05
6.6984854e-05
6.6993241e-05
6.7003815e-05
6.7017248e-05
6.7034514e-05
6.7056781e-05
6.7089438e-05
6.7119505e-05
6.7250482e-05
6.7035232e-05
6.862855e-05
1.9115682e-05
2.5630325e-08
1.1456033e-09
5.8667877e-10
4.0262468e-10
3.2914706e-10
2.8791341e-10
2.5869789e-10
2.3602194e-10
2.1811474e-10
2.0357106e-10
1.9148289e-10
1.8141584e-10
1.7308291e-10
1.6622571e-10
1.6057052e-10
1.5593967e-10
1.520172e-10
1.4863123e-10
1.4574949e-10
1.4336343e-10
1.4145242e-10
1.3999068e-10
1.38955e-10
1.3832815e-10
1.3809214e-10
1.38261e-10
1.3871623e-10
1.3939014e-10
1.4031434e-10
1.4151959e-10
1.4302391e-10
1.4484686e-10
1.4705404e-10