/*--------------------------------*- C++ -*----------------------------------*\
| =========                 |                                                 |
| \\      /  F ield         | OpenFOAM: The Open Source CFD Toolbox           |
|  \\    /   O peration     | Version:  2206                                  |
|   \\  /    A nd           | Website:  www.openfoam.com                      |
|    \\/     M anipulation  |                                                 |
\*---------------------------------------------------------------------------*/
FoamFile
{
    version     2.0;
    format      ascii;
    arch        "LSB;label=32;scalar=64";
    class       volScalarField;
    location    "1500";
    object      nut;
}
// * * * * * * * * * * * * * * * * * * * * * * * * * * * * * * * * * * * * * //

dimensions      [0 2 -1 0 0 0 0];

internalField   nonuniform List<scalar> 
13056
(
1.9315538e-07
1.9033529e-07
1.9050579e-07
1.9079802e-07
1.9096797e-07
1.910479e-07
1.9108908e-07
1.9111468e-07
1.9113332e-07
1.9114846e-07
1.9116182e-07
1.9117448e-07
1.9118727e-07
1.9120096e-07
1.9121641e-07
1.9123446e-07
1.9125723e-07
1.91283e-07
1.9133258e-07
1.9132762e-07
1.9165285e-07
1.9098107e-07
1.8919593e-07
9.5586764e-10
2.6077806e-16
4.0587715e-17
2.0590352e-17
1.3896688e-17
1.0623331e-17
8.6293643e-18
7.2818028e-18
6.2977781e-18
5.5457553e-18
4.9524092e-18
4.4713915e-18
4.0728362e-18
3.7369359e-18
3.4498816e-18
3.2016267e-18
2.984698e-18
2.7934643e-18
2.6235485e-18
2.4714974e-18
2.3346561e-18
2.2107813e-18
2.0980953e-18
1.9951217e-18
1.9006346e-18
1.8136079e-18
1.7331768e-18
1.6586038e-18
1.589257e-18
1.5245933e-18
1.4641425e-18
1.4074972e-18
1.3543025e-18
1.3042449e-18
1.257048e-18
1.2124681e-18
1.1702887e-18
1.1303172e-18
1.0923827e-18
1.0563335e-18
1.0220324e-18
9.8935484e-19
9.5818924e-19
9.2843587e-19
9.0000522e-19
8.7281636e-19
8.4679713e-19
8.2188446e-19
7.9802254e-19
7.751618e-19
7.5325933e-19
7.3227777e-19
7.1218574e-19
6.9295801e-19
6.7457833e-19
6.5704478e-19
6.4036157e-19
6.245398e-19
6.0959931e-19
5.9556726e-19
5.8248234e-19
5.7040656e-19
5.5942843e-19
5.496573e-19
5.412617e-19
5.3457297e-19
5.2935965e-19
5.2724507e-19
5.2710736e-19
5.3032601e-19
5.3712424e-19
5.4821906e-19
5.642639e-19
5.856887e-19
6.124875e-19
6.4486146e-19
6.8242918e-19
7.2281039e-19
7.6194447e-19
7.9759981e-19
8.2485059e-19
8.470822e-19
8.6321637e-19
8.7511522e-19
8.8374427e-19
8.8980228e-19
8.9376417e-19
8.9595824e-19
8.9663163e-19
8.9580398e-19
8.9350372e-19
8.8992474e-19
8.8523957e-19
8.7965137e-19
8.7341047e-19
8.6667782e-19
8.5958948e-19
8.5231989e-19
8.4498118e-19
8.3761854e-19
8.3028072e-19
8.2304111e-19
8.1593242e-19
8.0895198e-19
8.0208372e-19
7.953326e-19
7.8869664e-19
7.8220141e-19
7.7554674e-19
7.6922376e-19
7.614008e-19
7.5507893e-19
7.4593277e-19
1.9315488e-07
1.9033393e-07
1.9050452e-07
1.9079682e-07
1.9096682e-07
1.9104676e-07
1.9108795e-07
1.9111356e-07
1.911322e-07
1.9114735e-07
1.9116071e-07
1.9117337e-07
1.9118616e-07
1.9119986e-07
1.9121532e-07
1.9123337e-07
1.9125614e-07
1.9128191e-07
1.9133149e-07
1.9132653e-07
1.9165177e-07
1.9098001e-07
1.8919567e-07
9.7039343e-10
2.446575e-16
3.7932035e-17
1.92431e-17
1.2987408e-17
9.9282325e-18
8.0647356e-18
6.8053479e-18
5.88571e-18
5.1828934e-18
4.6283709e-18
4.1788267e-18
3.8063494e-18
3.4924276e-18
3.2241562e-18
2.9921455e-18
2.7894113e-18
2.6106909e-18
2.4518934e-18
2.3097918e-18
2.1819048e-18
2.0661358e-18
1.9608235e-18
1.8645882e-18
1.7762841e-18
1.6949522e-18
1.6197845e-18
1.5500915e-18
1.4852827e-18
1.4248505e-18
1.3683554e-18
1.3154168e-18
1.2657028e-18
1.2189207e-18
1.1748126e-18
1.1331507e-18
1.0937323e-18
1.0563774e-18
1.0209264e-18
9.8723737e-19
9.5518222e-19
9.2464448e-19
8.955199e-19
8.6771519e-19
8.4114674e-19
8.1573884e-19
7.9142384e-19
7.6814236e-19
7.4584245e-19
7.2448076e-19
7.0401592e-19
6.8441236e-19
6.6564085e-19
6.4767784e-19
6.3050832e-19
6.141305e-19
5.9854803e-19
5.837696e-19
5.6980887e-19
5.5670724e-19
5.4449931e-19
5.3323845e-19
5.2300831e-19
5.1391211e-19
5.0610819e-19
4.9990453e-19
4.9506736e-19
4.9308921e-19
4.9306323e-19
4.9619915e-19
5.0270963e-19
5.1326952e-19
5.2849238e-19
5.4877765e-19
5.7410827e-19
6.0464582e-19
6.3998192e-19
6.7783602e-19
7.1440842e-19
7.4768075e-19
7.7308369e-19
7.9382875e-19
8.0890098e-19
8.2004395e-19
8.2815339e-19
8.338716e-19
8.3763241e-19
8.3973661e-19
8.4041167e-19
8.3967393e-19
8.375485e-19
8.3421646e-19
8.2984077e-19
8.2461343e-19
8.1877017e-19
8.1246304e-19
8.0582052e-19
7.9900651e-19
7.9212647e-19
7.8522329e-19
7.783429e-19
7.7155411e-19
7.6488769e-19
7.5834131e-19
7.5190012e-19
7.4556875e-19
7.3934547e-19
7.3325388e-19
7.270144e-19
7.2108387e-19
7.1375505e-19
7.0782711e-19
6.9925035e-19
1.9315329e-07
1.9032964e-07
1.9050055e-07
1.9079304e-07
1.9096316e-07
1.9104317e-07
1.9108439e-07
1.9111002e-07
1.9112868e-07
1.9114384e-07
1.9115721e-07
1.9116988e-07
1.9118268e-07
1.9119638e-07
1.9121185e-07
1.912299e-07
1.9125268e-07
1.9127846e-07
1.9132805e-07
1.9132307e-07
1.9164836e-07
1.9097669e-07
1.8919283e-07
9.8781766e-10
2.3385759e-16
3.6162854e-17
1.8345591e-17
1.2381692e-17
9.4652847e-18
7.6887698e-18
6.4881593e-18
5.6114353e-18
4.9414117e-18
4.4127548e-18
3.9841733e-18
3.6290649e-18
3.3297858e-18
3.0740335e-18
2.8528536e-18
2.6595857e-18
2.4892111e-18
2.3378296e-18
2.2023648e-18
2.0804517e-18
1.9700916e-18
1.8697009e-18
1.7779642e-18
1.6937894e-18
1.6162622e-18
1.5446124e-18
1.4781819e-18
1.4164058e-18
1.3588013e-18
1.3049487e-18
1.2544843e-18
1.2070915e-18
1.1624948e-18
1.1204573e-18
1.0807617e-18
1.0432078e-18
1.0076232e-18
9.73856e-19
9.4177121e-19
9.1124701e-19
8.8217221e-19
8.5444772e-19
8.2798343e-19
8.0269986e-19
7.7852373e-19
7.5538618e-19
7.3322115e-19
7.1198348e-19
6.9169586e-19
6.7229246e-19
6.5372505e-19
6.3596852e-19
6.1900137e-19
6.028135e-19
5.874044e-19
5.7277231e-19
5.5889163e-19
5.4567409e-19
5.3349347e-19
5.2235418e-19
5.1221411e-19
5.0317626e-19
4.9536611e-19
4.8895948e-19
4.8422735e-19
4.8060318e-19
4.7903498e-19
4.8150842e-19
4.8762185e-19
4.9768762e-19
5.1248316e-19
5.3269127e-19
5.5867969e-19
5.9022512e-19
6.2696379e-19
6.6741551e-19
7.0814395e-19
7.4525045e-19
7.7797642e-19
8.0256717e-19
8.2305428e-19
8.3837198e-19
8.5030525e-19
8.5962175e-19
8.6675127e-19
8.7193463e-19
8.7535966e-19
8.7718229e-19
8.7737716e-19
8.7593507e-19
8.7302921e-19
8.6886174e-19
8.6367214e-19
8.5773464e-19
8.5123808e-19
8.443404e-19
8.3722286e-19
8.3000536e-19
8.2274494e-19
8.1549647e-19
8.0833221e-19
8.0128676e-19
7.9436266e-19
7.875488e-19
7.8085067e-19
7.7426877e-19
7.6781937e-19
7.6125448e-19
7.5496301e-19
7.4740497e-19
7.411551e-19
7.321001e-19
1.9315054e-07
1.9032228e-07
1.9049373e-07
1.9078655e-07
1.9095689e-07
1.91037e-07
1.9107829e-07
1.9110396e-07
1.9112264e-07
1.9113782e-07
1.9115121e-07
1.9116389e-07
1.911767e-07
1.9119041e-07
1.9120589e-07
1.9122396e-07
1.9124675e-07
1.9127253e-07
1.9132214e-07
1.9131713e-07
1.916425e-07
1.9097101e-07
1.8918736e-07
1.0069352e-09
2.2826084e-16
3.4904747e-17
1.7707498e-17
1.1951246e-17
9.1369226e-18
7.4226985e-18
6.2641333e-18
5.4180623e-18
4.7714406e-18
4.2611898e-18
3.8474847e-18
3.5047013e-18
3.2158398e-18
2.9690315e-18
2.755613e-18
2.5691429e-18
2.4047669e-18
2.2587184e-18
2.1280308e-18
2.0104234e-18
1.9039691e-18
1.80714e-18
1.7186674e-18
1.6374977e-18
1.5627488e-18
1.4936784e-18
1.4296452e-18
1.3700913e-18
1.3145569e-18
1.2626331e-18
1.2139631e-18
1.1682398e-18
1.125222e-18
1.0847448e-18
1.0465989e-18
1.0105401e-18
9.7639739e-19
9.4402594e-19
9.1329747e-19
8.840968e-19
8.5631545e-19
8.2986006e-19
8.0463552e-19
7.805669e-19
7.5757593e-19
7.3556541e-19
7.1440513e-19
6.9408208e-19
6.7507146e-19
6.5712401e-19
6.400926e-19
6.239732e-19
6.0875289e-19
5.9445286e-19
5.8108232e-19
5.6860421e-19
5.5675534e-19
5.4473284e-19
5.3526105e-19
5.281517e-19
5.227125e-19
5.1921357e-19
5.1797507e-19
5.1934884e-19
5.2342389e-19
5.2708263e-19
5.2771654e-19
5.4804947e-19
5.7648366e-19
6.1419741e-19
6.63091e-19
7.2490231e-19
8.0064842e-19
8.9015001e-19
9.9231429e-19
1.1023216e-18
1.2106018e-18
1.3077335e-18
1.390385e-18
1.4550664e-18
1.5081491e-18
1.5503102e-18
1.5849588e-18
1.6137809e-18
1.6374788e-18
1.6564916e-18
1.671238e-18
1.6819316e-18
1.688441e-18
1.6905911e-18
1.6886354e-18
1.6831701e-18
1.6749027e-18
1.6645376e-18
1.6526274e-18
1.6396254e-18
1.6259438e-18
1.6118743e-18
1.597604e-18
1.5832818e-18
1.5690491e-18
1.5549878e-18
1.5411344e-18
1.5274951e-18
1.5140847e-18
1.5009186e-18
1.4879754e-18
1.4750562e-18
1.4623514e-18
1.4484365e-18
1.4360572e-18
1.4180437e-18
1.9314657e-07
1.9031162e-07
1.9048386e-07
1.9077717e-07
1.9094781e-07
1.9102808e-07
1.9106945e-07
1.9109517e-07
1.9111389e-07
1.911291e-07
1.9114251e-07
1.9115521e-07
1.9116804e-07
1.9118177e-07
1.9119726e-07
1.9121535e-07
1.9123815e-07
1.9126394e-07
1.9131358e-07
1.9130853e-07
1.91634e-07
1.9096279e-07
1.8917921e-07
1.0276985e-09
2.3079534e-16
3.4053844e-17
1.7276566e-17
1.1661347e-17
8.9183418e-18
7.2480243e-18
6.1189056e-18
5.2941212e-18
4.663662e-18
4.1659152e-18
3.7621541e-18
3.4276045e-18
3.1458103e-18
2.9052179e-18
2.6972879e-18
2.5156813e-18
2.3556191e-18
2.2134173e-18
2.0861921e-18
1.9717295e-18
1.8681565e-18
1.7739866e-18
1.687985e-18
1.6091263e-18
1.5365514e-18
1.4695412e-18
1.407444e-18
1.349661e-18
1.2957707e-18
1.2453581e-18
1.1980501e-18
1.1535406e-18
1.1116996e-18
1.0726383e-18
1.0361534e-18
1.0017915e-18
9.6936598e-19
9.3874293e-19
9.0980617e-19
8.8245376e-19
8.5657479e-19
8.3208817e-19
8.0886683e-19
7.8684548e-19
7.6591547e-19
7.4584984e-19
7.2623567e-19
7.0718934e-19
6.9111776e-19
6.7698735e-19
6.64224e-19
6.5291135e-19
6.4306958e-19
6.3485105e-19
6.2831189e-19
6.2324147e-19
6.1826852e-19
6.0931832e-19
6.0965908e-19
6.1829744e-19
6.3164138e-19
6.5075514e-19
6.7698345e-19
7.1199534e-19
7.5721569e-19
8.0944178e-19
8.6398726e-19
9.6220803e-19
1.0880719e-18
1.2471577e-18
1.4464191e-18
1.6923665e-18
1.9890229e-18
2.3365998e-18
2.7313212e-18
3.154519e-18
3.5700746e-18
3.9433374e-18
4.2576867e-18
4.508921e-18
4.7134909e-18
4.8797103e-18
5.0185172e-18
5.1360026e-18
5.2344136e-18
5.3153624e-18
5.3804895e-18
5.4303865e-18
5.464489e-18
5.4819097e-18
5.4833035e-18
5.4710408e-18
5.4479364e-18
5.4166447e-18
5.3793556e-18
5.3378538e-18
5.2936079e-18
5.247691e-18
5.2008735e-18
5.1537291e-18
5.1067196e-18
5.0601439e-18
5.0141859e-18
4.9689256e-18
4.9244189e-18
4.880747e-18
4.8377278e-18
4.7953093e-18
4.7529232e-18
4.709226e-18
4.6684145e-18
4.608867e-18
1.9314127e-07
1.9029737e-07
1.9047066e-07
1.9076461e-07
1.9093567e-07
1.9101615e-07
1.9105763e-07
1.9108342e-07
1.9110219e-07
1.9111744e-07
1.9113089e-07
1.9114361e-07
1.9115647e-07
1.9117022e-07
1.9118573e-07
1.9120383e-07
1.9122666e-07
1.9125247e-07
1.9130214e-07
1.9129704e-07
1.9162263e-07
1.9095181e-07
1.8916832e-07
1.050352e-09
2.4955772e-16
3.374066e-17
1.7120171e-17
1.1558914e-17
8.8500163e-18
7.2019993e-18
6.0872087e-18
5.2721776e-18
4.6488267e-18
4.1558832e-18
3.7553923e-18
3.4235326e-18
3.1444176e-18
2.9066841e-18
2.7015918e-18
2.5226851e-18
2.3650892e-18
2.2251236e-18
2.0999661e-18
1.9874585e-18
1.8857681e-18
1.7934357e-18
1.7092477e-18
1.6321966e-18
1.5614356e-18
1.4962687e-18
1.4359657e-18
1.3797556e-18
1.3273089e-18
1.2781606e-18
1.2318602e-18
1.1880818e-18
1.1470385e-18
1.109725e-18
1.0759478e-18
1.0445573e-18
1.0153036e-18
9.8807856e-19
9.6279579e-19
9.3938813e-19
9.1772887e-19
8.9776963e-19
8.7926509e-19
8.6216899e-19
8.4625322e-19
8.3082426e-19
8.1446713e-19
7.9771717e-19
7.8961794e-19
7.8646288e-19
7.8619446e-19
7.8918869e-19
7.9579765e-19
8.0661155e-19
8.2217854e-19
8.4272948e-19
8.6682008e-19
8.8835638e-19
9.2804186e-19
9.8635704e-19
1.0594082e-18
1.1508671e-18
1.2654528e-18
1.4092142e-18
1.5882385e-18
1.8005513e-18
2.0379256e-18
2.3928671e-18
2.8402024e-18
3.4001498e-18
4.0964563e-18
4.95155e-18
5.9796414e-18
7.1827158e-18
8.5491962e-18
1.0016398e-17
1.1461771e-17
1.276617e-17
1.3865058e-17
1.4749653e-17
1.5468006e-17
1.6054289e-17
1.6544619e-17
1.6960203e-17
1.7308958e-17
1.7596911e-17
1.7830115e-17
1.8010607e-17
1.8136454e-17
1.8204426e-17
1.8216546e-17
1.8181111e-17
1.8107973e-17
1.8006304e-17
1.7883763e-17
1.7746582e-17
1.7599764e-17
1.7446998e-17
1.7290999e-17
1.713376e-17
1.697682e-17
1.6821201e-17
1.666758e-17
1.6516278e-17
1.636749e-17
1.6221515e-17
1.6077641e-17
1.5936267e-17
1.5794359e-17
1.5650626e-17
1.5514449e-17
1.5315602e-17
1.931345e-07
1.9027913e-07
1.9045377e-07
1.9074855e-07
1.9092014e-07
1.9100088e-07
1.9104251e-07
1.9106839e-07
1.9108723e-07
1.9110253e-07
1.9111601e-07
1.9112877e-07
1.9114166e-07
1.9115544e-07
1.9117098e-07
1.9118911e-07
1.9121196e-07
1.9123778e-07
1.912875e-07
1.9128234e-07
1.9160809e-07
1.9093774e-07
1.8915465e-07
1.0752775e-09
3.0134099e-16
3.4456594e-17
1.749033e-17
1.1817392e-17
9.0752438e-18
7.4111821e-18
6.2834851e-18
5.4570606e-18
4.8240407e-18
4.321223e-18
3.910988e-18
3.5709931e-18
3.2861608e-18
3.0451199e-18
2.8381801e-18
2.6582688e-18
2.500025e-18
2.3596073e-18
2.2342283e-18
2.1217802e-18
2.0204545e-18
1.9287974e-18
1.8455959e-18
1.7698435e-18
1.7006875e-18
1.6374607e-18
1.579182e-18
1.524552e-18
1.4734796e-18
1.4253264e-18
1.3793891e-18
1.335262e-18
1.2941436e-18
1.2596051e-18
1.2314917e-18
1.2066065e-18
1.1845026e-18
1.165139e-18
1.1485103e-18
1.1346461e-18
1.1233811e-18
1.114766e-18
1.1086761e-18
1.1052496e-18
1.1043662e-18
1.105238e-18
1.105982e-18
1.1074197e-18
1.1230934e-18
1.1483549e-18
1.1807563e-18
1.2214783e-18
1.2717966e-18
1.3335138e-18
1.4085684e-18
1.4985224e-18
1.6021732e-18
1.7091656e-18
1.8578588e-18
2.0528032e-18
2.2903738e-18
2.5814925e-18
2.9402813e-18
3.385081e-18
3.9354958e-18
4.5962153e-18
5.3555799e-18
6.427303e-18
7.7722898e-18
9.4518735e-18
1.1536838e-17
1.4094315e-17
1.7167438e-17
2.0764101e-17
2.485297e-17
2.9251735e-17
3.359904e-17
3.7537899e-17
4.0862263e-17
4.3546981e-17
4.5724559e-17
4.7502883e-17
4.8988772e-17
5.0246658e-17
5.1301317e-17
5.2172114e-17
5.2878125e-17
5.3425778e-17
5.3809431e-17
5.4019325e-17
5.4061351e-17
5.3960481e-17
5.3746355e-17
5.3446486e-17
5.3083907e-17
5.2677359e-17
5.2241791e-17
5.1788248e-17
5.1324916e-17
5.0857782e-17
5.0391412e-17
4.9928867e-17
4.9472204e-17
4.9022428e-17
4.858012e-17
4.8146193e-17
4.7718443e-17
4.7298522e-17
4.6876497e-17
4.6451098e-17
4.6046486e-17
4.5455543e-17
1.9312611e-07
1.9025643e-07
1.9043276e-07
1.9072857e-07
1.9090082e-07
1.909819e-07
1.9102371e-07
1.910497e-07
1.9106862e-07
1.9108398e-07
1.9109752e-07
1.9111032e-07
1.9112324e-07
1.9113706e-07
1.9115263e-07
1.9117079e-07
1.9119368e-07
1.9121953e-07
1.912693e-07
1.9126405e-07
1.9159e-07
1.9092024e-07
1.8913821e-07
1.102962e-09
4.2725804e-16
3.7359494e-17
1.8980319e-17
1.2844424e-17
9.9286642e-18
8.1691899e-18
6.9718516e-18
6.0896567e-18
5.411588e-18
4.8673124e-18
4.4188772e-18
4.0470517e-18
3.7383737e-18
3.4810968e-18
3.2627636e-18
3.0744663e-18
2.9094479e-18
2.7633418e-18
2.6333525e-18
2.517427e-18
2.4137601e-18
2.3208681e-18
2.2375069e-18
2.1626496e-18
2.0954134e-18
2.0351985e-18
1.9806119e-18
1.9299727e-18
1.883353e-18
1.8401112e-18
1.7994529e-18
1.7609417e-18
1.7263644e-18
1.700926e-18
1.6847094e-18
1.6734484e-18
1.6666856e-18
1.6645372e-18
1.6671889e-18
1.6749029e-18
1.6874122e-18
1.7050078e-18
1.7278893e-18
1.7566648e-18
1.7915288e-18
1.8315946e-18
1.8741153e-18
1.9206645e-18
1.9944135e-18
2.0889245e-18
2.2011822e-18
2.3343639e-18
2.4920655e-18
2.6791136e-18
2.9009721e-18
3.1627409e-18
3.4647049e-18
3.7885038e-18
4.2105436e-18
4.74559e-18
5.3929165e-18
6.1815661e-18
7.1492062e-18
8.3451135e-18
9.8237037e-18
1.1612445e-17
1.3702897e-17
1.6572373e-17
2.0168594e-17
2.4656442e-17
3.0224888e-17
3.7053603e-17
4.5259119e-17
5.4865901e-17
6.5796773e-17
7.757546e-17
8.9246511e-17
9.9853242e-17
1.0882066e-16
1.1607638e-16
1.2195743e-16
1.2675948e-16
1.3076724e-16
1.3415534e-16
1.3699269e-16
1.3933392e-16
1.4123206e-16
1.4270518e-16
1.4373854e-16
1.4430602e-16
1.4442329e-16
1.4415736e-16
1.4358775e-16
1.4278819e-16
1.4182048e-16
1.4073487e-16
1.3957139e-16
1.3835962e-16
1.3712154e-16
1.358732e-16
1.3462681e-16
1.3339055e-16
1.3216997e-16
1.3096778e-16
1.2978555e-16
1.2862574e-16
1.2748239e-16
1.2636028e-16
1.2523213e-16
1.2409664e-16
1.2301534e-16
1.2143597e-16
1.9311593e-07
1.9022872e-07
1.9040712e-07
1.9070419e-07
1.9087725e-07
1.9095874e-07
1.9100077e-07
1.910269e-07
1.9104592e-07
1.9106135e-07
1.9107495e-07
1.9108781e-07
1.9110078e-07
1.9111464e-07
1.9113025e-07
1.9114845e-07
1.9117138e-07
1.9119725e-07
1.9124709e-07
1.9124175e-07
1.9156794e-07
1.9089886e-07
1.8911908e-07
1.1339978e-09
7.0015804e-16
4.4925942e-17
2.2859958e-17
1.5513526e-17
1.2131478e-17
1.0114296e-17
8.7320739e-18
7.7043099e-18
6.9102614e-18
6.2693306e-18
5.7384715e-18
5.2976917e-18
4.9329497e-18
4.6311468e-18
4.377159e-18
4.1602959e-18
3.9713355e-18
3.8046967e-18
3.6574353e-18
3.5275095e-18
3.4130219e-18
3.3123437e-18
3.2240949e-18
3.1471493e-18
3.0805109e-18
3.0236996e-18
2.9743643e-18
2.9299923e-18
2.8909919e-18
2.8567432e-18
2.826293e-18
2.7991643e-18
2.7783334e-18
2.7722684e-18
2.7815473e-18
2.7998184e-18
2.8266411e-18
2.8624867e-18
2.9079764e-18
2.9639031e-18
3.0297633e-18
3.1063999e-18
3.1948211e-18
3.2967529e-18
3.4132126e-18
3.5433495e-18
3.6829894e-18
3.8355102e-18
4.0433901e-18
4.2971425e-18
4.5932217e-18
4.9394281e-18
5.3447799e-18
5.8211284e-18
6.3822332e-18
7.0418117e-18
7.8052159e-18
8.640263e-18
9.7007225e-18
1.102526e-17
1.2623965e-17
1.4568033e-17
1.694998e-17
1.9891425e-17
2.3529586e-17
2.7955889e-17
3.3190399e-17
4.0253149e-17
4.9099924e-17
6.0137899e-17
7.3832058e-17
9.06253e-17
1.1080686e-16
1.3444298e-16
1.6135618e-16
1.9039533e-16
2.1922801e-16
2.4549335e-16
2.6773089e-16
2.857473e-16
3.0034349e-16
3.1225827e-16
3.221922e-16
3.3058015e-16
3.3759718e-16
3.4338343e-16
3.4807337e-16
3.5171334e-16
3.5426775e-16
3.5567236e-16
3.559658e-16
3.5531346e-16
3.5391165e-16
3.5194231e-16
3.4955796e-16
3.4688264e-16
3.4401509e-16
3.410283e-16
3.3797651e-16
3.3489934e-16
3.3182686e-16
3.2877931e-16
3.2577036e-16
3.2280676e-16
3.1989235e-16
3.1703321e-16
3.1421459e-16
3.1144863e-16
3.0866741e-16
3.0586952e-16
3.0320405e-16
2.9931075e-16
1.9310374e-07
1.9019534e-07
1.9037625e-07
1.9067485e-07
1.9084889e-07
1.9093087e-07
1.9097317e-07
1.9099947e-07
1.9101861e-07
1.9103414e-07
1.9104781e-07
1.9106073e-07
1.9107376e-07
1.9108767e-07
1.9110333e-07
1.9112157e-07
1.9114455e-07
1.9117046e-07
1.9122037e-07
1.9121492e-07
1.9154139e-07
1.9087311e-07
1.8909743e-07
1.1690993e-09
1.2590966e-15
6.2868769e-17
3.2052655e-17
2.18284e-17
1.7313246e-17
1.4663473e-17
1.283053e-17
1.1450739e-17
1.0377477e-17
9.5057889e-18
8.7797036e-18
8.1758433e-18
7.6777926e-18
7.2689211e-18
6.9282672e-18
6.641238e-18
6.39312e-18
6.1755401e-18
5.9851087e-18
5.819715e-18
5.6771811e-18
5.5554988e-18
5.4529406e-18
5.3681211e-18
5.2997644e-18
5.2476252e-18
5.207268e-18
5.174477e-18
5.1503454e-18
5.1343761e-18
5.1253819e-18
5.1228676e-18
5.1321177e-18
5.1678316e-18
5.2315912e-18
5.3131979e-18
5.4123352e-18
5.5302494e-18
5.6685144e-18
5.8290864e-18
6.0109427e-18
6.2161408e-18
6.4475818e-18
6.7095115e-18
7.0049334e-18
7.3335546e-18
7.689083e-18
8.0789772e-18
8.5828858e-18
9.1865957e-18
9.8868097e-18
1.0701517e-17
1.165178e-17
1.2764973e-17
1.4073375e-17
1.5610447e-17
1.7395575e-17
1.9374423e-17
2.1852266e-17
2.4920925e-17
2.8621583e-17
3.3118683e-17
3.8626201e-17
4.542645e-17
5.3842992e-17
6.412793e-17
7.6401081e-17
9.2759743e-17
1.1324535e-16
1.3880352e-16
1.7051173e-16
2.0939767e-16
2.5613606e-16
3.1089128e-16
3.7327499e-16
4.4065904e-16
5.0767386e-16
5.6883632e-16
6.2067955e-16
6.6272337e-16
6.967738e-16
7.2456109e-16
7.4770927e-16
7.6723557e-16
7.8355605e-16
7.970061e-16
8.0790467e-16
8.1636273e-16
8.2229912e-16
8.2556508e-16
8.2625037e-16
8.2473919e-16
8.2148743e-16
8.1691763e-16
8.11384e-16
8.0517464e-16
7.9851878e-16
7.9158591e-16
7.8450205e-16
7.7735918e-16
7.7022711e-16
7.6315283e-16
7.5616813e-16
7.4928868e-16
7.4252341e-16
7.3588646e-16
7.2934353e-16
7.2292307e-16
7.1646687e-16
7.0997327e-16
7.03786e-16
6.9474852e-16
1.9308931e-07
1.9015555e-07
1.9033947e-07
1.9063992e-07
1.9081511e-07
1.9089769e-07
1.9094032e-07
1.9096682e-07
1.909861e-07
1.9100173e-07
1.910155e-07
1.910285e-07
1.9104159e-07
1.9105556e-07
1.9107128e-07
1.9108958e-07
1.9111261e-07
1.9113856e-07
1.9118857e-07
1.9118298e-07
1.915098e-07
1.908424e-07
1.8907358e-07
1.2091316e-09
2.366497e-15
1.019079e-16
5.2048826e-17
3.5557524e-17
2.8556253e-17
2.4514036e-17
2.169143e-17
1.9540903e-17
1.7857377e-17
1.6483579e-17
1.5334549e-17
1.4377661e-17
1.3590153e-17
1.2947381e-17
1.2416404e-17
1.1974643e-17
1.1595797e-17
1.1265494e-17
1.0979307e-17
1.0734902e-17
1.0529442e-17
1.0360067e-17
1.0224275e-17
1.0120098e-17
1.0045646e-17
1.0001152e-17
9.9778172e-18
9.9680594e-18
9.9743421e-18
9.9965804e-18
1.0033307e-17
1.0084123e-17
1.0158675e-17
1.028322e-17
1.0461334e-17
1.0675979e-17
1.0927262e-17
1.1218072e-17
1.1552002e-17
1.1933476e-17
1.2360374e-17
1.2837337e-17
1.3371492e-17
1.3972544e-17
1.4648027e-17
1.5399668e-17
1.6218463e-17
1.7120727e-17
1.8255772e-17
1.9602836e-17
2.1161622e-17
2.2971799e-17
2.5080205e-17
2.754731e-17
3.0445195e-17
3.385062e-17
3.7817784e-17
4.2259637e-17
4.777073e-17
5.455683e-17
6.2737844e-17
7.2677151e-17
8.4848082e-17
9.9876929e-17
1.1849027e-16
1.4131616e-16
1.6875056e-16
2.0497619e-16
2.5033432e-16
3.0692363e-16
3.7713158e-16
4.6323791e-16
5.6674585e-16
6.8803887e-16
8.2629812e-16
9.7577171e-16
1.1246258e-15
1.2606883e-15
1.376129e-15
1.4698223e-15
1.545682e-15
1.607573e-15
1.6590954e-15
1.7025207e-15
1.7387899e-15
1.7686653e-15
1.792867e-15
1.8116475e-15
1.8248293e-15
1.8320832e-15
1.8336085e-15
1.8302581e-15
1.8230441e-15
1.8129043e-15
1.8006251e-15
1.7868459e-15
1.7720755e-15
1.7566901e-15
1.7409696e-15
1.7251179e-15
1.7092901e-15
1.6935905e-15
1.6780897e-15
1.6628224e-15
1.6478085e-15
1.6330794e-15
1.6185589e-15
1.6043104e-15
1.5899823e-15
1.5755724e-15
1.5618413e-15
1.5417849e-15
1.9307241e-07
1.9010851e-07
1.9029602e-07
1.9059868e-07
1.9077523e-07
1.9085852e-07
1.9090153e-07
1.9092827e-07
1.9094772e-07
1.9096349e-07
1.9097736e-07
1.9099045e-07
1.9100362e-07
1.9101767e-07
1.9103346e-07
1.9105182e-07
1.9107492e-07
1.9110092e-07
1.9115103e-07
1.9114528e-07
1.9147251e-07
1.9080608e-07
1.8904806e-07
1.2551479e-09
4.5131236e-15
1.8324746e-16
9.3709452e-17
6.4155604e-17
5.1957664e-17
4.5001614e-17
4.0110268e-17
3.6350607e-17
3.3394035e-17
3.0975944e-17
2.8949929e-17
2.7261407e-17
2.5872736e-17
2.4742152e-17
2.3812941e-17
2.3046738e-17
2.2393528e-17
2.1826535e-17
2.1339106e-17
2.0928383e-17
2.0590119e-17
2.0319656e-17
2.0112859e-17
1.9966544e-17
1.9877531e-17
1.9847034e-17
1.9857352e-17
1.989439e-17
1.9963314e-17
2.0065165e-17
2.019828e-17
2.0362704e-17
2.0576184e-17
2.0885985e-17
2.1299594e-17
2.1788126e-17
2.2352855e-17
2.3000063e-17
2.3737519e-17
2.4574752e-17
2.5507387e-17
2.6545423e-17
2.7705087e-17
2.9007573e-17
3.0470323e-17
3.210069e-17
3.3887134e-17
3.5864612e-17
3.8310635e-17
4.1196914e-17
4.4533627e-17
4.8405366e-17
5.2912673e-17
5.8184722e-17
6.4376777e-17
7.1657562e-17
8.0161927e-17
8.9759762e-17
1.0158841e-16
1.1609133e-16
1.3357316e-16
1.5481054e-16
1.8081597e-16
2.1293227e-16
2.527326e-16
3.0168275e-16
3.608609e-16
4.384173e-16
5.3551678e-16
6.5666077e-16
8.0696382e-16
9.9131427e-16
1.212947e-15
1.4727175e-15
1.7689459e-15
2.0894384e-15
2.4089585e-15
2.7013912e-15
2.9496991e-15
3.1513578e-15
3.314597e-15
3.4477492e-15
3.5585305e-15
3.6518381e-15
3.7297216e-15
3.7938485e-15
3.8457854e-15
3.8860846e-15
3.9143705e-15
3.9299381e-15
3.9332156e-15
3.9260329e-15
3.9105614e-15
3.8888129e-15
3.8624745e-15
3.832918e-15
3.801235e-15
3.7682325e-15
3.7345107e-15
3.7005076e-15
3.6665557e-15
3.6328785e-15
3.5996277e-15
3.5668778e-15
3.5346715e-15
3.503076e-15
3.471928e-15
3.4413638e-15
3.4106284e-15
3.3797189e-15
3.3502644e-15
3.3072414e-15
1.9305276e-07
1.9005326e-07
1.9024501e-07
1.905503e-07
1.9072846e-07
1.9081258e-07
1.9085604e-07
1.9088307e-07
1.9090272e-07
1.9091864e-07
1.9093264e-07
1.9094584e-07
1.9095911e-07
1.9097324e-07
1.9098911e-07
1.9100755e-07
1.9103072e-07
1.9105678e-07
1.9110702e-07
1.9110107e-07
1.914288e-07
1.9076339e-07
1.8902161e-07
1.3084406e-09
8.6103123e-15
3.484073e-16
1.7830374e-16
1.2222155e-16
9.9458204e-17
8.657602e-17
7.7479549e-17
7.0450926e-17
6.4909348e-17
6.0375595e-17
5.6577033e-17
5.3410326e-17
5.0805038e-17
4.868407e-17
4.6944413e-17
4.5517097e-17
4.4304572e-17
4.3254966e-17
4.2357071e-17
4.1606912e-17
4.0997347e-17
4.0520045e-17
4.016755e-17
3.9934194e-17
3.9814187e-17
3.9810732e-17
3.9888299e-17
4.0020352e-17
4.021733e-17
4.0483035e-17
4.0816078e-17
4.1217829e-17
4.1720881e-17
4.2410182e-17
4.3300792e-17
4.4343744e-17
4.5543174e-17
4.6912245e-17
4.8467202e-17
5.0227941e-17
5.2185535e-17
5.4360875e-17
5.6789274e-17
5.9515575e-17
6.2578247e-17
6.5998528e-17
6.9764976e-17
7.3950934e-17
7.9066852e-17
8.5079496e-17
9.2027564e-17
1.0008696e-16
1.0946784e-16
1.2043921e-16
1.3332657e-16
1.4848935e-16
1.662408e-16
1.8640551e-16
2.1112712e-16
2.4133494e-16
2.7774577e-16
3.2197781e-16
3.7614217e-16
4.4304414e-16
5.2599676e-16
6.282685e-16
7.525117e-16
9.1433467e-16
1.1169214e-15
1.3696788e-15
1.6832849e-15
2.0679531e-15
2.5304628e-15
3.0726601e-15
3.6911684e-15
4.3607577e-15
5.0289427e-15
5.6411333e-15
6.1612982e-15
6.5839649e-15
6.9260451e-15
7.2050247e-15
7.4370206e-15
7.6323111e-15
7.7952354e-15
7.9293354e-15
8.0379228e-15
8.1221722e-15
8.1813063e-15
8.2138547e-15
8.2207133e-15
8.2057073e-15
8.1733751e-15
8.1279225e-15
8.0728754e-15
8.0111016e-15
7.9448827e-15
7.8759055e-15
7.8054247e-15
7.7343556e-15
7.6633932e-15
7.5930051e-15
7.5235078e-15
7.4550576e-15
7.3877434e-15
7.321706e-15
7.2566036e-15
7.1927218e-15
7.1284818e-15
7.0638792e-15
7.0023167e-15
6.9123947e-15
1.9303007e-07
1.8998873e-07
1.9018548e-07
1.9049389e-07
1.9067391e-07
1.9075901e-07
1.9080301e-07
1.9083037e-07
1.9085026e-07
1.9086636e-07
1.9088051e-07
1.9089383e-07
1.9090722e-07
1.9092145e-07
1.9093741e-07
1.9095595e-07
1.9097921e-07
1.9100533e-07
1.9105572e-07
1.9104955e-07
1.9137786e-07
1.9071348e-07
1.8899531e-07
1.3706072e-09
1.6340427e-14
6.7809648e-16
3.471817e-16
2.3813815e-16
1.9427374e-16
1.6955558e-16
1.5206296e-16
1.3850941e-16
1.2780963e-16
1.1906203e-16
1.1173981e-16
1.0563554e-16
1.0060917e-16
9.6512155e-17
9.3152445e-17
9.0402425e-17
8.8070585e-17
8.6055097e-17
8.4335627e-17
8.290593e-17
8.1753055e-17
8.0861324e-17
8.0216643e-17
7.9808392e-17
7.9625576e-17
7.9675401e-17
7.988708e-17
8.0210543e-17
8.0666418e-17
8.126485e-17
8.2006142e-17
8.2895036e-17
8.3991128e-17
8.5446296e-17
8.7290155e-17
8.9440312e-17
9.1907457e-17
9.4718522e-17
9.7906707e-17
1.0151265e-16
1.0551836e-16
1.0996656e-16
1.1493178e-16
1.2050672e-16
1.2677347e-16
1.3378523e-16
1.4153968e-16
1.5018785e-16
1.6065977e-16
1.7292992e-16
1.8710638e-16
2.0354791e-16
2.2268492e-16
2.4506679e-16
2.7136193e-16
3.0231804e-16
3.3863027e-16
3.8010413e-16
4.3073379e-16
4.9242619e-16
5.6678583e-16
6.571189e-16
7.6774117e-16
9.04397e-16
1.0739162e-15
1.2833474e-15
1.5388144e-15
1.8698294e-15
2.2842075e-15
2.8012167e-15
3.4427107e-15
4.2296073e-15
5.1758264e-15
6.2852503e-15
7.5511979e-15
8.9224302e-15
1.0291883e-14
1.1547712e-14
1.2615368e-14
1.3483295e-14
1.4185636e-14
1.4758333e-14
1.5234385e-14
1.5634923e-14
1.5968931e-14
1.6243766e-14
1.6466276e-14
1.6638903e-14
1.6760069e-14
1.6826765e-14
1.684083e-14
1.6810099e-14
1.6743872e-14
1.6650764e-14
1.6537999e-14
1.6411454e-14
1.62758e-14
1.6134496e-14
1.599011e-14
1.584452e-14
1.5699147e-14
1.555495e-14
1.5412579e-14
1.5272352e-14
1.5134452e-14
1.4999168e-14
1.48658e-14
1.4734932e-14
1.460333e-14
1.4470986e-14
1.434487e-14
1.4160655e-14
1.9300405e-07
1.899137e-07
1.9011632e-07
1.9042839e-07
1.9061059e-07
1.9069684e-07
1.9074148e-07
1.9076923e-07
1.907894e-07
1.9080572e-07
1.9082004e-07
1.9083351e-07
1.9084702e-07
1.9086137e-07
1.9087745e-07
1.9089608e-07
1.9091945e-07
1.9094564e-07
1.909962e-07
1.9098977e-07
1.9131878e-07
1.9065537e-07
1.8897062e-07
1.4436384e-09
3.0792949e-14
1.3283407e-15
6.8029381e-16
4.6678536e-16
3.812958e-16
3.3323122e-16
2.9918038e-16
2.7276127e-16
2.5189291e-16
2.3485125e-16
2.2060475e-16
2.0872948e-16
1.9894121e-16
1.9094901e-16
1.8439093e-16
1.7902785e-16
1.744844e-16
1.7056044e-16
1.6721761e-16
1.6444516e-16
1.6221866e-16
1.6050793e-16
1.5928579e-16
1.5853184e-16
1.5822488e-16
1.5838005e-16
1.5885755e-16
1.5956306e-16
1.6053674e-16
1.618027e-16
1.6336653e-16
1.6524086e-16
1.6753414e-16
1.7051631e-16
1.7424483e-16
1.785826e-16
1.8355467e-16
1.8921522e-16
1.9563098e-16
2.0288362e-16
2.1093732e-16
2.1987804e-16
2.2985966e-16
2.4107045e-16
2.5368145e-16
2.6781614e-16
2.8350537e-16
3.0105536e-16
3.2214746e-16
3.4680134e-16
3.7528312e-16
4.0831357e-16
4.4676053e-16
4.91729e-16
5.4456963e-16
6.0680974e-16
6.7994219e-16
7.6385631e-16
8.6593061e-16
9.9001602e-16
1.13958e-15
1.3212751e-15
1.5437899e-15
1.8187054e-15
2.1598689e-15
2.5821023e-15
3.0989438e-15
3.765683e-15
4.6003013e-15
5.6416532e-15
6.9337791e-15
8.5188572e-15
1.0425019e-14
1.2660267e-14
1.5211538e-14
1.7976267e-14
2.0739313e-14
2.3275078e-14
2.5431936e-14
2.7185978e-14
2.8605198e-14
2.9762292e-14
3.0723783e-14
3.153242e-14
3.220649e-14
3.2760997e-14
3.3209873e-14
3.3558097e-14
3.3802513e-14
3.3937063e-14
3.3965454e-14
3.3903495e-14
3.3769939e-14
3.3582165e-14
3.3354744e-14
3.3099525e-14
3.2825937e-14
3.2540949e-14
3.2249746e-14
3.1956112e-14
3.1662917e-14
3.1372093e-14
3.108495e-14
3.0802132e-14
3.0524008e-14
3.0251159e-14
2.9982173e-14
2.9718231e-14
2.9452807e-14
2.9185891e-14
2.8931532e-14
2.8559997e-14
1.9297438e-07
1.898268e-07
1.9003632e-07
1.9035268e-07
1.9053741e-07
1.9062501e-07
1.9067038e-07
1.906986e-07
1.9071908e-07
1.9073566e-07
1.9075018e-07
1.9076383e-07
1.9077749e-07
1.9079198e-07
1.9080818e-07
1.9082694e-07
1.9085043e-07
1.908767e-07
1.9092746e-07
1.9092072e-07
1.9125057e-07
1.9058788e-07
1.8894957e-07
1.5300338e-09
5.7613625e-14
2.5994803e-15
1.3315722e-15
9.1382975e-16
7.4696322e-16
6.5326201e-16
5.8684805e-16
5.3528611e-16
4.945488e-16
4.6132228e-16
4.3358289e-16
4.104646e-16
3.9138989e-16
3.7578713e-16
3.6297174e-16
3.5249377e-16
3.4362077e-16
3.359607e-16
3.2943998e-16
3.2403907e-16
3.1971106e-16
3.1639741e-16
3.1404533e-16
3.1261542e-16
3.1206649e-16
3.1242938e-16
3.1343019e-16
3.1489164e-16
3.1689128e-16
3.1948291e-16