/*--------------------------------*- C++ -*----------------------------------*\
| =========                 |                                                 |
| \\      /  F ield         | OpenFOAM: The Open Source CFD Toolbox           |
|  \\    /   O peration     | Version:  2206                                  |
|   \\  /    A nd           | Website:  www.openfoam.com                      |
|    \\/     M anipulation  |                                                 |
\*---------------------------------------------------------------------------*/
FoamFile
{
    version     2.0;
    format      ascii;
    arch        "LSB;label=32;scalar=64";
    class       volScalarField;
    location    "1500";
    object      omega;
}
// * * * * * * * * * * * * * * * * * * * * * * * * * * * * * * * * * * * * * //

dimensions      [0 0 -1 0 0 0 0];

internalField   nonuniform List<scalar> 
13056
(
473.17615
371.57414
364.93932
363.90701
363.78234
363.71761
363.6638
363.6271
363.60446
363.59226
363.58839
363.59188
363.60242
363.62033
363.64635
363.68248
363.72993
363.79821
363.8763
364.04683
364.1186
364.28695
376.21451
19552.851
1.1944345e+09
1.1944345e+09
1.1944345e+09
1.1944345e+09
1.1944345e+09
1.1944345e+09
1.1944345e+09
1.1944345e+09
1.1944345e+09
1.1944345e+09
1.1944345e+09
1.1944345e+09
1.1944345e+09
1.1944345e+09
1.1944345e+09
1.1944345e+09
1.1944345e+09
1.1944345e+09
1.1944345e+09
1.1944345e+09
1.1944345e+09
1.1944345e+09
1.1944345e+09
1.1944345e+09
1.1944345e+09
1.1944345e+09
1.1944345e+09
1.1944345e+09
1.1944345e+09
1.1944345e+09
1.1944345e+09
1.1944345e+09
1.1944345e+09
1.1944345e+09
1.1944345e+09
1.1944345e+09
1.1944345e+09
1.1944345e+09
1.1944345e+09
1.1944345e+09
1.1944345e+09
1.1944345e+09
1.1944345e+09
1.1944345e+09
1.1944345e+09
1.1944345e+09
1.1944345e+09
1.1944345e+09
1.1944345e+09
1.1944345e+09
1.1944345e+09
1.1944345e+09
1.1944345e+09
1.1944345e+09
1.1944345e+09
1.1944345e+09
1.1944345e+09
1.1944345e+09
1.1944345e+09
1.1944345e+09
1.1944345e+09
1.1944345e+09
1.1944345e+09
1.1944345e+09
1.1944345e+09
1.1944345e+09
1.1944345e+09
1.1944345e+09
1.1944345e+09
1.1944345e+09
1.1944345e+09
1.1944345e+09
1.1944345e+09
1.1944345e+09
1.1944345e+09
1.1944345e+09
1.1944345e+09
1.1944345e+09
1.1944345e+09
1.1944345e+09
1.1944345e+09
1.1944345e+09
1.1944345e+09
1.1944345e+09
1.1944345e+09
1.1944345e+09
1.1944345e+09
1.1944345e+09
1.1944345e+09
1.1944345e+09
1.1944345e+09
1.1944345e+09
1.1944345e+09
1.1944345e+09
1.1944345e+09
1.1944345e+09
1.1944345e+09
1.1944345e+09
1.1944345e+09
1.1944345e+09
1.1944345e+09
1.1944345e+09
1.1944345e+09
1.1944345e+09
1.1944345e+09
1.1944345e+09
1.1944345e+09
1.1944345e+09
1.1944345e+09
1.1944345e+09
1.1944345e+09
1.1944345e+09
473.15962
371.54103
364.90548
363.87271
363.74791
363.68313
363.62931
363.5926
363.56996
363.55775
363.55388
363.55736
363.56789
363.58581
363.61182
363.64795
363.6954
363.76368
363.84177
364.0123
364.08409
364.25221
376.17793
19262.656
1.9586945e+08
1.9626967e+08
1.9626966e+08
1.9626966e+08
1.9626966e+08
1.9626968e+08
1.9626969e+08
1.962697e+08
1.962697e+08
1.9626971e+08
1.9626972e+08
1.9626973e+08
1.9626974e+08
1.9626975e+08
1.9626976e+08
1.9626977e+08
1.9626978e+08
1.9626979e+08
1.962698e+08
1.9626981e+08
1.9626983e+08
1.9626984e+08
1.9626985e+08
1.9626987e+08
1.9626988e+08
1.962699e+08
1.9626992e+08
1.9626994e+08
1.9626996e+08
1.9626999e+08
1.9627002e+08
1.9627005e+08
1.9627009e+08
1.9627012e+08
1.9627016e+08
1.9627019e+08
1.9627023e+08
1.9627027e+08
1.9627032e+08
1.9627038e+08
1.9627043e+08
1.962705e+08
1.9627058e+08
1.9627067e+08
1.9627077e+08
1.962709e+08
1.9627108e+08
1.9627129e+08
1.9627147e+08
1.9627164e+08
1.9627184e+08
1.9627208e+08
1.9627237e+08
1.9627272e+08
1.9627314e+08
1.962737e+08
1.9627452e+08
1.9627588e+08
1.9627697e+08
1.9627792e+08
1.962791e+08
1.9628056e+08
1.962824e+08
1.9628483e+08
1.962883e+08
1.9629485e+08
1.9630679e+08
1.9631192e+08
1.9631817e+08
1.9632592e+08
1.9633548e+08
1.9634725e+08
1.9636173e+08
1.9637987e+08
1.9640342e+08
1.9643432e+08
1.9647241e+08
1.965133e+08
1.9654843e+08
1.9657754e+08
1.9659774e+08
1.9661252e+08
1.9662261e+08
1.9662926e+08
1.9663357e+08
1.9663653e+08
1.9663877e+08
1.9664058e+08
1.9664208e+08
1.9664328e+08
1.9664417e+08
1.966448e+08
1.9664524e+08
1.9664553e+08
1.966457e+08
1.966458e+08
1.9664584e+08
1.9664582e+08
1.9664578e+08
1.9664571e+08
1.9664563e+08
1.9664553e+08
1.9664541e+08
1.966453e+08
1.9664519e+08
1.9664507e+08
1.9664495e+08
1.966449e+08
1.9664475e+08
1.9664496e+08
1.9664488e+08
1.9664475e+08
473.10691
371.43729
364.79957
363.76542
363.6402
363.57531
363.52144
363.48469
363.46202
363.4498
363.44591
363.44939
363.45992
363.47783
363.50384
363.53997
363.58741
363.65569
363.73378
363.9043
363.97616
364.14354
376.06666
18925.367
64127816
64221387
64221377
64221379
64221395
64221415
64221436
64221457
64221479
64221516
64221568
64221619
64221658
64221681
64221694
64221706
64221717
64221729
64221741
64221755
64221770
64221786
64221804
64221824
64221846
64221872
64221904
64221959
64222032
64222134
64222276
64222468
64222676
64222802
64222842
64222875
64222912
64222955
64223003
64223058
64223122
64223197
64223322
64223513
64223815
64224346
64225339
64226751
64227232
64227371
64227537
64227740
64228075
64228562
64229374
64230950
64234802
64244788
64249446
64250313
64251491
64253181
64255836
64260689
64272129
64312696
64410127
64416172
64422966
64432916
64448040
64472006
64511550
64579438
64698889
64900074
65192965
65536914
65843623
66099035
66272876
66394357
66470190
66512516
66532949
66541686
66545159
66546535
66547160
66547509
66547731
66547880
66547981
66548045
66548084
66548106
66548114
66548111
66548101
66548087
66548068
66548045
66548019
66547994
66547968
66547942
66547914
66547902
66547868
66547916
66547898
66547867
473.01639
371.25956
364.61816
363.58167
363.45572
363.39064
363.33669
363.29988
363.27717
363.26492
363.26101
363.26446
363.27498
363.29288
363.31889
363.35501
363.40245
363.47074
363.54882
363.71933
363.7913
363.95742
375.87703
18568.693
29319057
29342764
29342755
29342767
29342824
29342903
29342985
29343070
29343161
29343336
29343583
29343829
29344011
29344107
29344155
29344188
29344220
29344254
29344292
29344332
29344377
29344428
29344486
29344551
29344627
29344716
29344836
29345073
29345401
29345872
29346553
29347482
29348492
29349073
29349193
29349271
29349360
29349464
29349587
29349733
29349909
29350122
29350575
29351348
29352668
29355137
29359959
29366907
29368986
29369231
29369535
29369932
29370892
29372491
29375586
29382387
29400632
29450142
29471838
29473514
29476100
29480422
29488489
29506166
29555300
29750243
30232156
30240134
30242427
30245786
30250879
30258975
30272320
30295218
30335487
30403246
30501751
30617215
30719985
30805429
30863514
30904070
30929372
30943490
30950304
30953217
30954375
30954834
30955043
30955159
30955233
30955283
30955316
30955338
30955351
30955358
30955361
30955360
30955357
30955352
30955345
30955338
30955329
30955321
30955312
30955304
30955294
30955290
30955279
30955295
30955289
30955278
472.88547
371.0026
364.35588
363.31599
363.18902
363.12366
363.06958
363.03269
363.00992
362.99762
362.99368
362.99711
363.00761
363.0255
363.05149
363.08762
363.13505
363.20334
363.2814
363.45189
363.52403
363.68833
375.60325
18196.619
16069273
16058204
16058206
16058245
16058431
16058687
16058957
16059236
16059538
16060130
16060971
16061806
16062424
16062742
16062893
16062994
16063091
16063195
16063308
16063432
16063572
16063729
16063908
16064114
16064353
16064634
16065024
16065812
16066916
16068507
16070817
16073981
16077422
16079381
16079750
16079966
16080218
16080515
16080869
16081296
16081815
16082454
16083907
16086448
16090854
16099198
16115618
16139329
16146253
16146825
16147554
16148542
16151396
16156351
16166023
16187965
16248854
16416887
16488208
16488926
16490034
16491886
16495343
16502916
16523961
16607343
16812681
16816069
16817043
16818470
16820635
16824075
16829744
16839471
16856570
16885325
16927090
16975988
17019460
17055567
17080093
17097209
17107883
17113838
17116712
17117940
17118429
17118622
17118710
17118759
17118790
17118811
17118825
17118834
17118840
17118843
17118844
17118844
17118842
17118840
17118838
17118834
17118831
17118827
17118824
17118820
17118816
17118814
17118810
17118816
17118814
17118809
472.7107
370.65929
364.00545
362.961
362.83266
362.76692
362.71267
362.67567
362.65282
362.64047
362.63648
362.63988
362.65036
362.66823
362.69421
362.73033
362.77776
362.84604
362.92409
363.09455
363.1669
363.3288
375.23741
17808.104
9844799.5
9789768.3
9789798.1
9789900.5
9790378.8
9791039.4
9791743.2
9792477
9793271.6
9794862.7
9797136.2
9799390.9
9801053.2
9801891.4
9802271.8
9802514.4
9802745.9
9802992.5
9803262.5
9803562.7
9803900.6
9804284.4
9804724.7
9805234.6
9805830.5
9806537
9807536.4
9809618.1
9812558
9816825.7
9823051
9831602.6
9840903.5
9846144.1
9847020.8
9847464.1
9847987.9
9848614.2
9849372.1
9850301.8
9851449.6
9852889.3
9856503
9863032.2
9874586.8
9896809.1
9940994.7
10004996
10022919
10023209
10023570
10024061
10025476
10027932
10032726
10043601
10073756
10156798
10191947
10192301
10192847
10193760
10195463
10199196
10209563
10250607
10351401
10353059
10353536
10354236
10355296
10356982
10359760
10364525
10372899
10386976
10407411
10431316
10452551
10470176
10482143
10490490
10495695
10498598
10499999
10500598
10500836
10500931
10500974
10500998
10501013
10501023
10501030
10501034
10501037
10501038
10501039
10501039
10501038
10501037
10501036
10501034
10501033
10501031
10501029
10501027
10501025
10501024
10501022
10501025
10501024
10501022
472.48772
370.22067
363.55768
362.5074
362.3773
362.31108
362.25661
362.21947
362.19652
362.18409
362.18005
362.18341
362.19385
362.2117
362.23767
362.27378
362.3212
362.38948
362.46751
362.63794
362.71056
362.86939
374.76952
17400.682
6529334.1
6403953.2
6404040.2
6404263.1
6405303
6406754.2
6408316.1
6409957.3
6411746.2
6415422.3
6420714.1
6425960.8
6429802.8
6431688.8
6432484.7
6432946.1
6433374.9
6433834
6434341.3
6434910.7
6435557.9
6436300.8
6437161.8
6438169.8
6439360.9
6440789.1
6442885.1
6447514.4
6454142.6
6463873.3
6478189.7
6497958.7
6519445.2
6531256.5
6532644.5
6532887.3
6533172.8
6533514.2
6533927.3
6534434.1
6535059.7
6535844.4
6537814.7
6541373.2
6547669.4
6559773.5
6583819
6618587.4
6628302.7
6628460.1
6628656
6628922.1
6629690
6631022.9
6633624.3
6639523.8
6655875.1
6700832.4
6719816.4
6720007.6
6720302.7
6720795.8
6721716.1
6723732.4
6729332.9
6751490.9
6805788.3
6806678.4
6806935.3
6807311.6
6807882.3
6808789.1
6810283.6
6812846.8
6817351.1
6824920.7
6835903.2
6848743.8
6860143.9
6869600.8
6876019.2
6880495.5
6883286
6884842.4
6885593.3
6885914.4
6886042
6886092.6
6886115.5
6886128.4
6886136.5
6886142
6886145.7
6886148.1
6886149.5
6886150.3
6886150.6
6886150.5
6886150.1
6886149.6
6886148.9
6886148
6886147.1
6886146.2
6886145.2
6886144.3
6886143.2
6886142.8
6886141.6
6886143.3
6886142.7
6886141.5
472.21137
369.67595
363.00152
361.94398
361.81168
361.74486
361.69012
361.6528
361.62973
361.6172
361.61309
361.6164
361.62681
361.64463
361.67058
361.70667
361.75408
361.82236
361.90038
362.07076
362.14372
362.29876
374.18743
16971.481
4519689.2
4406371.5
4406547.8
4406953.8
4408859.7
4411564.7
4414521.7
4417667.3
4421129.5
4428638.4
4439603.7
4450455.3
4458262.9
4461830.8
4463007.6
4463401.6
4463665.8
4463933.8
4464228.8
4464559.9
4464936.2
4465368.2
4465868.9
4466454.9
4467147.5
4467977.9
4469197.7
4471889.3
4475742.3
4481397.2
4489713
4501187.3
4513644.2
4520481.1
4521283
4521423.7
4521589.1
4521786.9
4522026.3
4522319.9
4522682.4
4523137
4524279
4526340.8
4529988.3
4536998.1
4550913.9
4571006
4576608.1
4576699
4576812.1
4576965.9
4577409.3
4578179
4579681.1
4583087.3
4592524.8
4618440.1
4629359.2
4629469.3
4629639.1
4629923
4630452.6
4631613.1
4634836.2
4647582.6
4678761.4
4679270.8
4679418.2
4679634.1
4679961.5
4680481.8
4681339.2
4682809.7
4685393.3
4689734.2
4696030
4703387.8
4709917.3
4715331.6
4719005.4
4721567
4723163.8
4724054.2
4724483.8
4724667.5
4724740.5
4724769.5
4724782.6
4724789.9
4724794.6
4724797.7
4724799.8
4724801.2
4724802
4724802.5
4724802.7
4724802.6
4724802.4
4724802.1
4724801.7
4724801.2
4724800.7
4724800.1
4724799.6
4724799
4724798.5
4724798.2
4724797.5
4724798.5
4724798.1
4724797.5
471.87564
369.01255
362.32408
361.25764
361.12266
361.0551
361.00003
360.96249
360.93926
360.92662
360.92242
360.92566
360.93603
360.95382
360.97974
361.01582
361.06322
361.1315
361.20948
361.37982
361.45319
361.60366
373.47687
16517.67
3223728
3154690.4
3154774.5
3155019.3
3156178.5
3157824.3
3159623.4
3161537
3163642.9
3168204.7
3174868.2
3181459.2
3186199.1
3188364.5
3189078.6
3189317.6
3189478
3189640.6
3189819.6
3190020.6
3190248.9
3190511.1
3190814.9
3191170.6
3191590.8
3192094.7
3192835.8
3194469.2
3196807.1
3200237.5
3205280.3
3212233.8
3219775.1
3223907.6
3224391.3
3224476.4
3224576.5
3224696.2
3224841.1
3225018.8
3225238.1
3225513.2
3226204.6
3227452.4
3229659.6
3233900.5
3242314.7
3254447.8
3257823.6
3257878.4
3257946.7
3258039.5
3258307.1
3258771.7
3259678.3
3261734.1
3267428.6
3283049.1
3289617.1
3289683.3
3289785.6
3289956.4
3290275.3
3290974
3292914.3
3300585.2
3319319.9
3319625
3319713.5
3319843.2
3320039.8
3320352.2
3320867.1
3321750.1
3323301.3
3325907.2
3329685.5
3334099.6
3338015.4
3341261.3
3343463.4
3344998.6
3345955.4
3346488.9
3346746.4
3346856.4
3346900.2
3346917.5
3346925.4
3346929.8
3346932.6
3346934.5
3346935.7
3346936.5
3346937
3346937.3
3346937.4
3346937.4
3346937.2
3346937.1
3346936.8
3346936.5
3346936.2
3346935.9
3346935.6
3346935.2
3346934.9
3346934.7
3346934.3
3346934.9
3346934.7
3346934.3
471.47378
368.21606
361.51056
360.43337
360.29516
360.22669
360.17122
360.13342
360.11
360.09722
360.09292
360.09609
360.10639
360.12414
360.15004
360.1861
360.23349
360.30176
360.37972
360.54999
360.62385
360.7689
372.62131
16036.644
2349998.4
2306526.8
2306553.9
2306705
2307431.5
2308463.9
2309592.5
2310792.9
2312113.9
2314971.6
2319148.1
2323277.4
2326245.8
2327601.6
2328048.6
2328198.2
2328298.6
2328400.4
2328512.5
2328638.3
2328781.3
2328945.4
2329135.6
2329358.3
2329621.4
2329936.8
2330401.4
2331424.1
2332887.8
2335035.2
2338190.7
2342539.5
2347251.4
2349829.5
2350130.5
2350183.7
2350246.2
2350321
2350411.5
2350522.5
2350659.5
2350831.4
2351263.5
2352043.1
2353421.9
2356070.8
2361323.8
2368889.8
2370990.3
2371024.5
2371067
2371124.9
2371291.7
2371581.4
2372146.6
2373428.1
2376977.2
2386704.2
2390785.9
2390827.1
2390890.7
2390997
2391195.4
2391630
2392837.1
2397608.1
2409244
2409432.8
2409487.8
2409568.3
2409690.4
2409884.3
2410204
2410752.1
2411715
2413332.3
2415676.8
2418414.9
2420843.3
2422855.7
2424220.8
2425172.3
2425765.3
2426095.9
2426255.4
2426323.6
2426350.8
2426361.5
2426366.4
2426369.1
2426370.8
2426372
2426372.8
2426373.3
2426373.6
2426373.8
2426373.8
2426373.8
2426373.7
2426373.6
2426373.5
2426373.3
2426373.1
2426372.9
2426372.7
2426372.5
2426372.3
2426372.2
2426371.9
2426372.3
2426372.1
2426371.9
470.99829
367.27025
360.54428
359.45423
359.31216
359.24261
359.18666
359.14855
359.1249
359.11195
359.10753
359.1106
359.12084
359.13854
359.16441
359.20045
359.24782
359.31609
359.39401
359.56422
359.63864
359.77735
371.60193
15526.165
1740989.9
1712904
1712893
1712987.1
1713452.5
1714114.7
1714839
1715609.3
1716457
1718288.8
1720967.3
1723614.6
1725517.1
1726385.9
1726672.3
1726768.1
1726832.4
1726897.6
1726969.4
1727050
1727141.6
1727246.8
1727368.7
1727511.4
1727679.9
1727882.1
1728180.2
1728835.6
1729773.6
1731149.5
1733170.9
1735955.2
1738969.3
1740615.8
1740807.6
1740841.6
1740881.6
1740929.4
1740987.3
1741058.3
1741145.9
1741255.9
1741532.4
1742031.1
1742913.1
1744607.3
1747965.8
1752797.9
1754136.4
1754158.2
1754185.4
1754222.4
1754328.9
1754513.9
1754874.8
1755693.1
1757959.1
1764164.7
1766763.6
1766789.8
1766830.4
1766898.1
1767024.6
1767301.6
1768071.1
1771112
1778518.9
1778638.7
1778673.7
1778724.9
1778802.6
1778926
1779129.4
1779478.2
1780090.9
1781119.9
1782611.2
1784352.5
1785896.4
1787175.6
1788043.2
1788647.9
1789024.7
1789234.8
1789336.1
1789379.5
1789396.7
1789403.5
1789406.6
1789408.4
1789409.5
1789410.2
1789410.7
1789411
1789411.2
1789411.3
1789411.4
1789411.3
1789411.3
1789411.2
1789411.1
1789411
1789410.9
1789410.8
1789410.6
1789410.5
1789410.4
1789410.3
1789410.1
1789410.4
1789410.3
1789410.1
470.44097
366.15703
359.40663
358.30132
358.15468
358.08384
358.02731
357.98882
357.9649
357.95176
357.94719
357.95015
357.96031
357.97795
358.00378
358.0398
358.08714
358.15542
358.23329
358.40344
358.4785
358.60993
370.39745
14984.478
1305623.1
1287093.6
1287055.1
1287113.2
1287415.9
1287847.9
1288320.6
1288823.5
1289376.9
1290571.3
1292319.2
1294046.3
1295287.1
1295853.5
1296040.3
1296102.7
1296144.6
1296187.1
1296233.9
1296286.5
1296346.2
1296414.8
1296494.2
1296587.3
1296697.2
1296829
1297023.7
1297451.2
1298063
1298960.2
1300278.1
1302092.6
1304055.1
1305125.5
1305249.9
1305272.1
1305298.1
1305329.3
1305366.9
1305413.1
1305470.2
1305541.8
1305722
1306046.7
1306621.1
1307724.3
1309910.5
1313052.6
1313921.2
1313935.3
1313953
1313977.1
1314046.3
1314166.6
1314401.3
1314933.4
1316406.8
1320438.8
1322124.1
1322141.2
1322167.5
1322211.5
1322293.6
1322473.5
1322973.2
1324947.5
1329750.8
1329828.2
1329850.9
1329884.1
1329934.5
1330014.5
1330146.4
1330372.5
1330769.8
1331436.8
1332403.3
1333531.7
1334531.9
1335360.5
1335922.4
1336314
1336558
1336694.1
1336759.7
1336787.8
1336798.9
1336803.3
1336805.3
1336806.5
1336807.2
1336807.6
1336808
1336808.2
1336808.3
1336808.4
1336808.4
1336808.4
1336808.4
1336808.3
1336808.2
1336808.2
1336808.1
1336808
1336807.9
1336807.8
1336807.7
1336807.7
1336807.6
1336807.7
1336807.7
1336807.6
469.79297
364.85642
358.07701
356.95372
356.80169
356.72931
356.67211
356.63317
356.60893
356.59555
356.59081
356.59364
356.60371
356.62129
356.64706
356.68306
356.73038
356.79866
356.87648
357.04656
357.12236
357.24552
368.98406
14410.419
988285.39
975838.73
975778.28
975812.96
976011.89
976297.09
976609.49
976942.01
977308.03
978097.18
979252.94
980394.64
981214.73
981589.05
981712.39
981753.63
981781.28
981809.34
981840.24
981874.94
981914.39
981959.69
982012.2
982073.67
982146.31
982233.42
982362.26
982644.87
983049.28
983642.34
984513.23
985711.79
987007.08
987712.43
987794.21
987808.81
987825.99
987846.53
987871.4
987901.9
987939.56
987986.8
988105.8
988320.2
988699.41
989427.66
990870.37
992942.01
993513.36
993522.7
993534.34
993550.21
993595.88
993675.16
993829.9
994180.76
995152.16
997808.84
998917.18
998928.41
998945.74
998974.7
999028.77
999147.24
999476.29
1000776.4
1003935.8
1003986.6
1004001.5
1004023.3
1004056.4
1004109.1
1004195.8
1004344.5
1004605.8
1005044.4
1005679.9
1006421.6
1007079.1
1007623.5
1007992.8
1008250
1008410.4
1008499.7
1008542.9
1008561.3
1008568.6
1008571.5
1008572.9
1008573.6
1008574.1
1008574.4
1008574.6
1008574.7
1008574.8
1008574.9
1008574.9
1008574.9
1008574.8
1008574.8
1008574.8
1008574.7
1008574.7
1008574.6
1008574.6
1008574.5
1008574.4
1008574.4
1008574.3
1008574.4
1008574.4
1008574.3
469.04485
363.34652
356.53283
355.38848
355.2301
355.15591
355.0979
355.05845
355.03383
355.02017
355.01522
355.01791
355.02786
355.04536
355.07108
355.10704
355.15434
355.22263
355.3004
355.47041
355.54702
355.66097
367.33524
13803.535
753475.26
744975.85
744896.6
744915.44
745046.79
745236.64
745445.01
745666.98
745911.42
746438.04
747210.05
747972.53
748520.11
748769.99
748852.28
748879.77
748898.18
748916.88
748937.48
748960.62
748986.94
749017.17
749052.21
749093.24
749141.74
749199.89
749286.04
749474.8
749744.9
750140.98
750722.5
751522.51
752386.38
752856.05
752910.36
752920.09
752931.55
752945.24
752961.82
752982.16
753007.28
753038.78
753118.21
753261.25
753514.24
754000.08
754962.31
756342.74
756722.62
756728.83
756736.58
756747.16
756777.59
756830.42
756933.55
757167.38
757814.74
759584.19
760321
760328.47
760340
760359.28
760395.27
760474.14
760693.21
761558.7
763659.81
763693.43
763703.34
763717.86
763739.88
763774.88
763832.56
763931.47
764105.18
764396.82
764819.32
765312.33
765749.26
766111.06
766356.4
766527.35
766633.86
766693.24
766721.89
766734.14
766739.01
766740.94
766741.82
766742.31
766742.62
766742.83
766742.97
766743.06
766743.11
766743.14
766743.15
766743.14
766743.13
766743.11
766743.08
766743.04
766743.01
766742.97
766742.93
766742.89
766742.85
766742.83
766742.79
766742.85
766742.83
766742.78
468.18668
361.60355
354.74941
353.58052
353.41471
353.33839
353.27944
353.23937
353.21431
353.20033
353.19514
353.19764
353.20746
353.22487
353.25053
353.28646
353.33373
353.40202
353.47974
353.64968
353.72721
353.83111
365.42164
13164.183
577684.09
571786.21
571689.57
571697.26
571783.85
571910.82
572050.65
572199.83
572364.25
572718.36
573238.07
573751.31
574119.82
574287.93
574343.24
574361.67
574374.01
574386.55
574400.38
574415.92
574433.6
574453.92
574477.48
574505.08
574537.7
574576.83
574634.9
574761.98
574943.83
575210.49
575601.93
576140.24
576721.08
577036.37
577072.73
577079.26
577086.96
577096.16
577107.3
577120.97
577137.85
577159.04
577212.48
577308.69
577478.87
577805.66
578452.73
579380.21
579634.87
579639.04
579644.24
579651.35
579671.79
579707.29
579776.59
579933.73
580368.77
581557.23
582051.18
582056.19
582063.93
582076.87
582101.03
582153.98
582301.07
582882.16
584291.42
584313.89
584320.53
584330.27
584345.04
584368.51
584407.2
584473.54
584590.05
584785.64
585068.96
585399.51
585692.43
585934.94
586099.38
586213.96
586285.34
586325.14
586344.34
586352.55
586355.82
586357.11
586357.7
586358.03
586358.24
586358.37
586358.47
586358.53
586358.56
586358.58
586358.59
586358.58
586358.57
586358.56
586358.54
586358.51
586358.49
586358.46
586358.43
586358.41
586358.38
586358.37
586358.33
586358.38
586358.36
586358.32
467.20818
359.60177
352.70006
351.50271
351.32819
351.24937
351.18931
351.14852
351.12295
351.10859
351.10312
351.10541
351.11508
351.13238
351.15797
351.19385
351.2411
351.3094
351.38705
351.55695
351.63546
351.72872
363.21093
12493.633
444865.69
440704.74
440591.02
440590.47
440646.95
440731.91
440826.03
440926.71
441037.84
441277.32
441629.27
441976.83
442226.32
442340.08
442377.45
442389.86
442398.16
442406.59
442415.91
442426.39
442438.32
442452.05
442467.98
442486.65
442508.72
442535.2
442574.57
442660.66
442783.86
442964.51
443229.66
443594.19
443987.21
444200.2
444224.69
444229.1
444234.29
444240.51
444248.04
444257.29
444268.71
444283.03
444319.22
444384.35
444499.55
444720.77
445158.72
445785.92
445957.74
445960.56
445964.07
445968.87
445982.7
446006.7
446053.57
446159.86
446454.13
447257.63
447590.97
447594.35
447599.58
447608.32
447624.64
447660.42
447759.84
448152.59
449104.17
449119.29
449123.77
449130.34
449140.31
449156.16
449182.28
449227.08
449305.76
449437.83
449629.1
449852.25
450049.96
450213.63
450324.61
450401.93
450450.11
450476.96
450489.92
450495.46
450497.67
450498.54
450498.94
450499.16
450499.3
450499.39
450499.45
450499.49
450499.52
450499.53
450499.53
450499.53
450499.52
450499.51
450499.49
450499.47
450499.45
450499.44
450499.42
450499.4
450499.38
450499.37
450499.35
450499.37
450499.36
450499.33
466.09885
357.31361
350.35605
349.12578
348.9411
348.85935
348.798
348.75638
348.7302
348.71539
348.70959
348.71165
348.72114
348.73831
348.76382
348.79965
348.84686
348.91519
348.99278
349.16264
349.2422
349.32465
360.66773
11794.147
343789.46
340801.44
340670.23
340663.17
340699.06
340755.62
340818.93
340886.98
340962.29
341124.9
341364.3
341600.73
341770.42
341847.72
341873.05
341881.4
341886.97
341892.64
341898.92
341906
341914.08
341923.38
341934.18
341946.85
341961.84
341979.84
342006.66
342065.26
342149.12
342272.1
342452.6
342700.66
342967.92
343112.52
343129.09
343132.08
343135.6
343139.81
343144.92
343151.2
343158.95
343168.69
343193.31
343237.62
343316
343466.51
343764.42
344190.72
344307.25
344309.15
344311.53
344314.79
344324.19
344340.5
344372.36
344444.63
344644.7
345190.76
345416.88
345419.17
345422.72
345428.65
345439.74
345464.04
345531.59
345798.44
346444.38
346454.6
346457.64
346462.1
346468.87
346479.63
346497.36
346527.77
346581.19
346670.84
346800.68
346952.13
347086.31
347197.37
347272.68
347325.14
347357.83
347376.06
347384.85
347388.61
347390.11
347390.7
347390.97
347391.12
347391.21
347391.28
347391.32
347391.34
347391.36
347391.37
347391.37
347391.36
347391.35
347391.34
347391.33
347391.32
347391.3
347391.29
347391.28
347391.26
347391.25
347391.24
347391.22
347391.24
347391.23
347391.21
464.84825
354.70975
347.6867
346.41846
346.22196
346.13678
346.07392
346.03132
346.00445
345.98912
345.98294
345.98471
345.99399
346.01102
346.03643
346.07222
346.11939
346.18775
346.26527
346.43513
346.51578
346.58794
357.7535
11069.027
266430.86
264243.49
264093.85
264081.25
264102.77
264139.89
264182.23
264228.12
264279.15
264389.83
264553.18
264714.54
264830.32
264882.98
264900.16
264905.76
264909.46
264913.25
264917.47
264922.24
264927.7
264934
264941.34
264949.95
264960.16
264972.42
264990.75
265030.77
265088.07
265172.11
265295.45
265464.92
265647.36
265745.92
265757.16
265759.18
265761.57
265764.43
265767.91
265772.18
265777.46
265784.1
265800.92
265831.17
265884.7
265987.51
266190.98
266481.9
266561.24
266562.53
266564.15
266566.37
266572.77
266583.9
266605.64
266654.97
266791.56
267164.19
267318.2
267319.76
267322.18
267326.22
267333.77
267350.35
267396.43
267578.5
268018.81
268025.75
268027.82
268030.86
268035.47
268042.8
268054.89
268075.63
268112.05
268173.17
268261.69
268364.92
268456.38
268532.07
268583.4
268619.16
268641.43
268653.86
268659.85
268662.42
268663.44
268663.84
268664.03
268664.13
268664.19
268664.23
268664.26
268664.28
268664.28
268664.29
268664.29
268664.28
268664.27
268664.26
268664.25
268664.24
268664.23
268664.22
268664.21
268664.2
268664.18
268664.18
268664.16
268664.17
268664.16
268664.15
463.44622
351.75931
344.65953
343.3476
343.13736
343.04818
342.98356
342.93983
342.91213
342.89621
342.88958
342.89102
342.90007
342.91693
342.94222
342.97795
343.02509
343.09349
343.17094
343.34085
343.42259
343.48579
354.42686
10322.63
206957.62
205323.06
205153.64
205135.94
205147.15
205170.77
205198.68
205229.38
205263.82
205339.2
205450.85
205561.2
205640.33
205676.25
205687.87
205691.57
205693.99
205696.48
205699.28
205702.47
205706.14
205710.39
205715.36
205721.22
205728.16
205736.52
205749.07
205776.47
205815.73
205873.32
205957.85
206073.97
206198.91
206266.27
206273.92
206275.28
206276.9
206278.84
206281.2
206284.11
206287.71
206292.24
206303.76
206324.48
206361.15
206431.59
206570.99
206770.16
206824.35
206825.22
206826.32
206827.83
206832.2
206839.82
206854.7
206888.48
206982.02
207237.14
207342.38
207343.45
207345.09
207347.85
207353.01
207364.35
207395.89
207520.52
207821.67
207826.4
207827.81
207829.88
207833.03
207838.05
207846.32
207860.51
207885.43
207927.25
207987.81
208058.43
208120.99
208172.76
208207.87
208232.33
208247.56
208256.06
208260.16
208261.92
208262.62
208262.9
208263.02
208263.09
208263.14
208263.16
208263.18
208263.19
208263.19
208263.19
208263.19
208263.18
208263.18
208263.17
208263.16
208263.15
208263.14
208263.13
208263.12
208263.1
208263.09
208263.09
208263.08
208263.08
208263.07
208263.05
461.88336
348.43014
341.2405
339.87837
339.6522
339.55834
339.49168
339.44663
339.41799
339.40136
339.39421
339.39527
339.40404
339.42071
339.44587
339.48153
339.52863
339.5971
339.67447
339.8445
339.92729
339.98374
350.64383
9560.3341
161071.14
159823.53
159632.69
159609.92
159613.46
159627.51
159645.35
159665.54
159688.54
159739.77
159816.1
159891.6
159945.71
159970.16
159977.95
159980.33
159981.85
159983.44
159985.25
159987.34
159989.78
159992.62
159995.96
159999.92
160004.63
160010.32
160018.9
160037.7
160064.64
160104.19
160162.25
160242
160327.75
160373.9
160379.1
160380.01
160381.09
160382.4
160384
160385.97
160388.43
160391.52
160399.42
160413.63
160438.81
160487.19
160582.94
160719.63
160756.73
160757.32
160758.06
160759.08
160762.08
160767.29
160777.5
160800.68
160864.91
161040.02
161112.13
161112.85
161113.97
161115.86
161119.39
161127.17
161148.81
161234.35
161440.87
161444.09
161445.05
161446.47
161448.63
161452.07
161457.75
161467.49
161484.59
161513.29
161554.84
161603.29
161646.22
161681.73
161705.82
161722.6
161733.05
161738.89
161741.7
161742.91
161743.39
161743.59
161743.67
161743.72
161743.75
161743.77
161743.78
161743.78
161743.78
161743.77
161743.77
161743.76
161743.75
161743.74
161743.73
161743.72
161743.71
161743.7
161743.69
161743.68
161743.67
161743.66
161743.65
161743.65
161743.64
161743.63
460.15141
344.68921
337.39435
335.97464
335.73001
335.6307
335.56164
335.51506
335.48531
335.46788
335.46013
335.46074
335.46918
335.48563
335.51064
335.54623
335.59329
335.66183
335.73914
335.90937
335.99308
336.04616
346.35804
8788.4454
125566.82
124595.08
124380.94
124352.78
124350.31
124357.39
124368.05
124380.85
124395.88
124430.5
124482.56
124534.15
124571.08
124587.64
124592.77
124594.21
124595.08
124596.02
124597.13
124598.45
124600.01
124601.87
124604.09
124606.73
124609.9
124613.75
124619.61
124632.49
124651
124678.18
124718.12
124772.99
124831.94
124863.6
124867.13
124867.72
124868.44
124869.31
124870.38
124871.71
124873.38
124875.48
124880.89
124890.66
124907.97
124941.26
125007.15
125101.15
125126.6
125126.98
125127.47
125128.16
125130.21
125133.78
125140.79
125156.73
125200.92
125321.36
125370.87
125371.35
125372.11
125373.4
125375.82
125381.16
125396.03
125454.86
125596.79
125599
125599.65
125600.62
125602.1
125604.47
125608.38
125615.08
125626.85
125646.6
125675.19
125708.51
125738.04
125762.47
125779.04
125790.59
125797.78
125801.8
125803.74
125804.57
125804.91
125805.04
125805.1
125805.13
125805.15
125805.16
125805.17
125805.16
125805.16
125805.15
125805.15
125805.14
125805.13
125805.11
125805.1
125805.09
125805.08
125805.07
125805.06
125805.05
125805.04
125805.03
125805.02
125805.01
125805
125804.98
458.24389
340.5032
333.08506
331.59938
331.33339
331.22771
331.15587
331.10751
331.07648
331.05811
331.04966
331.04975
331.05782
331.074
331.09885
331.13435
331.18137
331.25001
331.32726
331.49781
331.58221
331.63674
341.52114
8014.0546
98033.136
97263.342
97023.862
96989.737
96982.218
96984.002
96989.411
96996.909
97006.296
97029.383