/*--------------------------------*- C++ -*----------------------------------*\
| =========                 |                                                 |
| \\      /  F ield         | OpenFOAM: The Open Source CFD Toolbox           |
|  \\    /   O peration     | Version:  2206                                  |
|   \\  /    A nd           | Website:  www.openfoam.com                      |
|    \\/     M anipulation  |                                                 |
\*---------------------------------------------------------------------------*/
FoamFile
{
    version     2.0;
    format      ascii;
    arch        "LSB;label=32;scalar=64";
    class       volScalarField;
    location    "1500";
    object      p;
}
// * * * * * * * * * * * * * * * * * * * * * * * * * * * * * * * * * * * * * //

dimensions      [0 2 -2 0 0 0 0];

internalField   nonuniform List<scalar> 
13056
(
0.012026614
0.012130706
0.012350906
0.012631813
0.012972191
0.013372306
0.01383028
0.014345316
0.014918756
0.015553842
0.016255597
0.017031173
0.017890455
0.018847435
0.019921074
0.02114081
0.022543253
0.024205189
0.026185622
0.028781418
0.031901631
0.037376669
0.042453463
0.080638475
0.051038759
0.0023285089
0.00099720109
0.0018697406
0.0024191243
0.0028658807
0.0031394351
0.0033311906
0.0034772791
0.0035831214
0.003658007
0.0037118107
0.0037508754
0.0037788002
0.0037979848
0.0038104478
0.003817603
0.0038203873
0.0038196109
0.0038159269
0.0038097579
0.00380143
0.0037912341
0.0037793927
0.0037660919
0.0037514579
0.00373558
0.003718543
0.0037004079
0.0036812287
0.0036610485
0.0036398716
0.003617695
0.0035945223
0.0035703452
0.0035451456
0.0035189023
0.0034915888
0.0034631491
0.0034335133
0.003402612
0.0033703705
0.0033367145
0.0033015599
0.003264819
0.0032264084
0.0031862274
0.0031441547
0.0031000715
0.003053866
0.0030054212
0.0029546591
0.0029015175
0.002846019
0.0027882005
0.002728046
0.0026657481
0.0026015184
0.0025356605
0.0024689553
0.002402601
0.0023383576
0.002278722
0.0022277321
0.0021900298
0.0021651769
0.0021711495
0.0022116375
0.0022821672
0.0023989399
0.0025666686
0.0027870509
0.0030557845
0.0033643344
0.0037073269
0.0040432137
0.00431945
0.0044936599
0.0045772237
0.0045606078
0.0044606052
0.0043389005
0.0041979523
0.0040478002
0.0038949342
0.0037388869
0.0035826473
0.0034245999
0.00326096
0.0030958928
0.0029311412
0.0027678547
0.0026080764
0.0024509554
0.0022950429
0.0021432812
0.0019956171
0.0018504174
0.0017080266
0.0015700535
0.0014365367
0.0013059636
0.0011789816
0.0010562529
0.00094001059
0.00082989805
0.00072834172
0.00063183624
0.00056947962
0.00048248744
0.00066777553
-0.00051346664
0.012026614
0.012130706
0.012350906
0.012631813
0.012972191
0.013372307
0.01383028
0.014345316
0.014918756
0.015553843
0.016255597
0.017031173
0.017890455
0.018847436
0.019921075
0.021140811
0.022543254
0.024205192
0.026185626
0.028781423
0.031901637
0.037376681
0.042453493
0.080633682
0.051050007
0.0023357117
0.00099904496
0.0018705754
0.0024196358
0.0028662404
0.003139707
0.0033314067
0.0034774561
0.0035832696
0.0036581335
0.0037119203
0.0037509714
0.0037788851
0.0037980605
0.0038105159
0.0038176645
0.0038204432
0.0038196619
0.0038159737
0.003809801
0.0038014698
0.0037912709
0.0037794268
0.0037661237
0.0037514876
0.0037356078
0.003718569
0.0037004323
0.0036812517
0.0036610701
0.003639892
0.0036177142
0.0035945404
0.0035703623
0.0035451618
0.0035189177
0.0034916033
0.0034631629
0.0034335264
0.0034026244
0.0033703823
0.0033367257
0.0033015705
0.0032648291
0.003226418
0.0031862365
0.0031441634
0.0031000797
0.0030538738
0.0030054286
0.0029546661
0.0029015241
0.0028460253
0.0027882064
0.0027280514
0.0026657533
0.0026015231
0.0025356649
0.0024689593
0.0024026046
0.0023383608
0.0022787247
0.0022277343
0.0021900315
0.0021651779
0.0021711498
0.0022116371
0.002282166
0.0023989378
0.0025666656
0.002787047
0.0030557798
0.0033643289
0.0037073209
0.0040432074
0.0043194441
0.0044936547
0.0045772194
0.0045606049
0.0044606031
0.004338899
0.0041979512
0.0040477995
0.0038949337
0.0037388867
0.0035826471
0.0034245999
0.0032609601
0.003095893
0.0029311415
0.0027678551
0.0026080768
0.0024509558
0.0022950434
0.0021432817
0.0019956176
0.0018504179
0.0017080271
0.001570054
0.0014365372
0.001305964
0.0011789821
0.0010562534
0.00094001106
0.00082989851
0.00072834218
0.0006318367
0.00056948012
0.00048248797
0.00066777608
-0.00051346629
0.012026614
0.012130706
0.012350907
0.012631813
0.012972191
0.013372307
0.01383028
0.014345316
0.014918756
0.015553843
0.016255598
0.017031174
0.017890456
0.018847437
0.019921077
0.021140813
0.022543257
0.024205195
0.026185629
0.028781428
0.031901643
0.037376695
0.042453515
0.080628844
0.051065459
0.0023427036
0.0010012317
0.0018715736
0.0024202474
0.0028666705
0.0031400322
0.0033316652
0.0034776677
0.0035834469
0.0036582848
0.0037120513
0.0037510862
0.0037789867
0.0037981511
0.0038105972
0.003817738
0.00382051
0.003819723
0.0038160296
0.0038098525
0.0038015173
0.0037913149
0.0037794677
0.0037661618
0.0037515231
0.003735641
0.0037186001
0.0037004615
0.0036812791
0.0036610959
0.0036399163
0.0036177372
0.0035945621
0.0035703828
0.0035451812
0.003518936
0.0034916207
0.0034631794
0.0034335421
0.0034026393
0.0033703965
0.0033367391
0.0033015833
0.0032648412
0.0032264295
0.0031862474
0.0031441738
0.0031000896
0.0030538832
0.0030054375
0.0029546745
0.002901532
0.0028460327
0.0027882134
0.002728058
0.0026657594
0.0026015288
0.0025356701
0.002468964
0.0024026088
0.0023383645
0.0022787279
0.0022277369
0.0021900335
0.0021651792
0.0021711502
0.0022116366
0.0022821646
0.0023989353
0.0025666621
0.0027870423
0.0030557741
0.0033643224
0.0037073137
0.0040432
0.004319437
0.0044936485
0.0045772143
0.0045606013
0.0044606005
0.0043388972
0.00419795
0.0040477986
0.0038949332
0.0037388864
0.003582647
0.0034245999
0.0032609602
0.0030958932
0.0029311418
0.0027678555
0.0026080773
0.0024509563
0.0022950439
0.0021432823
0.0019956182
0.0018504185
0.0017080277
0.0015700546
0.0014365378
0.0013059646
0.0011789826
0.001056254
0.00094001162
0.00082989907
0.00072834274
0.00063183725
0.00056948072
0.00048248861
0.00066777675
-0.00051346587
0.012026614
0.012130706
0.012350907
0.012631813
0.012972191
0.013372307
0.01383028
0.014345317
0.014918757
0.015553843
0.016255598
0.017031175
0.017890457
0.018847438
0.019921078
0.021140814
0.022543259
0.024205198
0.026185633
0.028781433
0.03190165
0.037376706
0.042453536
0.080624128
0.051082701
0.0023478702
0.001003289
0.0018725514
0.0024208467
0.0028670919
0.0031403507
0.0033319184
0.0034778751
0.0035836206
0.003658433
0.0037121797
0.0037511987
0.0037790861
0.0037982399
0.003810677
0.0038178101
0.0038205755
0.0038197828
0.0038160844
0.0038099029
0.0038015639
0.0037913581
0.0037795078
0.0037661991
0.0037515579
0.0037356735
0.0037186306
0.0037004901
0.003681306
0.0036611212
0.0036399401
0.0036177596
0.0035945833
0.0035704029
0.0035452002
0.003518954
0.0034916378
0.0034631956
0.0034335574
0.0034026539
0.0033704103
0.0033367523
0.0033015958
0.0032648531
0.0032264408
0.0031862581
0.003144184
0.0031000992
0.0030538923
0.0030054461
0.0029546827
0.0029015398
0.00284604
0.0027882203
0.0027280644
0.0026657653
0.0026015343
0.0025356752
0.0024689686
0.002402613
0.0023383682
0.002278731
0.0022277394
0.0021900354
0.0021651804
0.0021711505
0.0022116362
0.0022821632
0.0023989329
0.0025666586
0.0027870378
0.0030557686
0.0033643161
0.0037073067
0.0040431927
0.0043194301
0.0044936425
0.0045772095
0.0045605978
0.0044605979
0.0043388955
0.0041979488
0.0040477978
0.0038949327
0.0037388861
0.0035826469
0.0034246
0.0032609603
0.0030958934
0.0029311421
0.0027678559
0.0026080777
0.0024509568
0.0022950445
0.0021432829
0.0019956188
0.0018504191
0.0017080283
0.0015700552
0.0014365384
0.0013059652
0.0011789832
0.0010562545
0.00094001217
0.00082989961
0.00072834328
0.00063183779
0.00056948131
0.00048248921
0.0006677774
-0.00051346548
0.012026614
0.012130706
0.012350907
0.012631813
0.012972191
0.013372307
0.013830281
0.014345317
0.014918757
0.015553844
0.016255599
0.017031175
0.017890458
0.018847439
0.019921079
0.021140816
0.022543261
0.0242052
0.026185636
0.028781438
0.031901656
0.037376717
0.042453561
0.080619078
0.051101045
0.0023536045
0.0010053697
0.0018735525
0.0024214603
0.0028675234
0.003140677
0.0033321777
0.0034780875
0.0035837984
0.0036585847
0.0037123111
0.0037513139
0.003779188
0.0037983308
0.0038107586
0.0038178839
0.0038206425
0.003819844
0.0038161405
0.0038099545
0.0038016115
0.0037914022
0.0037795488
0.0037662373
0.0037515935
0.0037357068
0.0037186618
0.0037005194
0.0036813335
0.0036611471
0.0036399645
0.0036177827
0.0035946051
0.0035704235
0.0035452196
0.0035189724
0.0034916552
0.0034632121
0.0034335731
0.0034026688
0.0033704245
0.0033367657
0.0033016086
0.0032648652
0.0032264523
0.0031862691
0.0031441944
0.0031001091
0.0030539017
0.003005455
0.0029546911
0.0029015477
0.0028460475
0.0027882273
0.002728071
0.0026657715
0.00260154
0.0025356804
0.0024689734
0.0024026172
0.0023383719
0.0022787342
0.002227742
0.0021900374
0.0021651816
0.0021711509
0.0022116357
0.0022821617
0.0023989304
0.002566655
0.0027870331
0.0030557629
0.0033643095
0.0037072995
0.0040431852
0.004319423
0.0044936363
0.0045772046
0.0045605942
0.0044605953
0.0043388937
0.0041979476
0.004047797
0.0038949321
0.0037388858
0.0035826467
0.0034246
0.0032609605
0.0030958937
0.0029311425
0.0027678563
0.0026080782
0.0024509574
0.002295045
0.0021432834
0.0019956194
0.0018504197
0.0017080289
0.0015700558
0.0014365389
0.0013059658
0.0011789838
0.0010562551
0.00094001274
0.00082990016
0.00072834384
0.00063183834
0.00056948192
0.00048248981
0.00066777807
-0.00051346509
0.012026614
0.012130706
0.012350907
0.012631813
0.012972192
0.013372307
0.013830281
0.014345317
0.014918758
0.015553844
0.016255599
0.017031176
0.017890459
0.01884744
0.019921081
0.021140818
0.022543263
0.024205203
0.02618564
0.028781443
0.031901663
0.037376727
0.04245359
0.080613472
0.05112017
0.0023607537
0.0010075824
0.0018746157
0.0024221121
0.0028679818
0.0031410235
0.0033324531
0.003478313
0.0035839873
0.0036587459
0.0037124507
0.0037514362
0.0037792962
0.0037984273
0.0038108453
0.0038179622
0.0038207138
0.003819909
0.0038162001
0.0038100094
0.0038016622
0.0037914491
0.0037795923
0.0037662778
0.0037516314
0.0037357422
0.0037186949
0.0037005505
0.0036813627
0.0036611746
0.0036399904
0.0036178071
0.0035946282
0.0035704453
0.0035452403
0.003518992
0.0034916738
0.0034632297
0.0034335898
0.0034026846
0.0033704395
0.00333678
0.0033016221
0.0032648781
0.0032264646
0.0031862808
0.0031442054
0.0031001196
0.0030539116
0.0030054645
0.0029547
0.0029015561
0.0028460555
0.0027882347
0.002728078
0.002665778
0.002601546
0.0025356859
0.0024689784
0.0024026218
0.0023383759
0.0022787376
0.0022277448
0.0021900395
0.0021651828
0.0021711513
0.0022116352
0.0022821602
0.0023989278
0.0025666512
0.0027870282
0.0030557569
0.0033643026
0.0037072918
0.0040431773
0.0043194155
0.0044936297
0.0045771994
0.0045605904
0.0044605926
0.0043388918
0.0041979463
0.0040477961
0.0038949316
0.0037388855
0.0035826466
0.0034246
0.0032609606
0.0030958939
0.0029311428
0.0027678567
0.0026080787
0.0024509579
0.0022950456
0.0021432841
0.00199562
0.0018504204
0.0017080295
0.0015700564
0.0014365396
0.0013059664
0.0011789844
0.0010562557
0.00094001333
0.00082990075
0.00072834443
0.00063183893
0.00056948256
0.00048249046
0.00066777878
-0.00051346467
0.012026614
0.012130706
0.012350907
0.012631814
0.012972192
0.013372307
0.013830281
0.014345317
0.014918758
0.015553845
0.0162556
0.017031177
0.01789046
0.018847442
0.019921082
0.02114082
0.022543266
0.024205207
0.026185644
0.028781449
0.03190167
0.037376738
0.042453624
0.080607198
0.0511403
0.0023686551
0.0010099666
0.00187576
0.0024228137
0.0028684752
0.0031413965
0.0033327496
0.0034785558
0.0035841906
0.0036589194
0.0037126009
0.0037515678
0.0037794127
0.0037985312
0.0038109386
0.0038180466
0.0038207904
0.003819979
0.0038162643
0.0038100684
0.0038017167
0.0037914996
0.0037796392
0.0037663214
0.0037516721
0.0037357803
0.0037187306
0.0037005839
0.0036813941
0.0036612042
0.0036400183
0.0036178334
0.003594653
0.0035704688
0.0035452625
0.0035190131
0.0034916938
0.0034632487
0.0034336078
0.0034027017
0.0033704557
0.0033367954
0.0033016367
0.003264892
0.0032264778
0.0031862933
0.0031442174
0.0031001309
0.0030539224
0.0030054746
0.0029547096
0.0029015652
0.002846064
0.0027882428
0.0027280855
0.002665785
0.0026015525
0.0025356919
0.0024689839
0.0024026266
0.0023383802
0.0022787413
0.0022277477
0.0021900418
0.0021651842
0.0021711517
0.0022116347
0.0022821585
0.002398925
0.0025666471
0.0027870228
0.0030557504
0.0033642952
0.0037072836
0.0040431688
0.0043194074
0.0044936226
0.0045771939
0.0045605863
0.0044605896
0.0043388897
0.0041979449
0.0040477952
0.003894931
0.0037388851
0.0035826464
0.0034246
0.0032609607
0.0030958942
0.0029311432
0.0027678572
0.0026080792
0.0024509585
0.0022950463
0.0021432847
0.0019956207
0.001850421
0.0017080302
0.0015700571
0.0014365403
0.0013059671
0.0011789851
0.0010562563
0.00094001398
0.00082990138
0.00072834507
0.00063183956
0.00056948325
0.00048249115
0.00066777954
-0.00051346421
0.012026614
0.012130706
0.012350907
0.012631814
0.012972192
0.013372308
0.013830281
0.014345318
0.014918758
0.015553845
0.016255601
0.017031178
0.017890461
0.018847443
0.019921084
0.021140822
0.022543269
0.024205211
0.026185649
0.028781455
0.031901678
0.037376749
0.042453665
0.080600124
0.051161707
0.0023771397
0.0010125516
0.0018770007
0.0024235746
0.0028690103
0.003141801
0.0033330711
0.003478819
0.003584411
0.0036591075
0.0037127639
0.0037517106
0.003779539
0.0037986438
0.0038110398
0.0038181381
0.0038208735
0.0038200548
0.0038163338
0.0038101324
0.0038017758
0.0037915543
0.0037796901
0.0037663688
0.0037517162
0.0037358215
0.0037187692
0.0037006202
0.0036814282
0.0036612363
0.0036400486
0.0036178619
0.00359468
0.0035704943
0.0035452867
0.0035190359
0.0034917154
0.0034632692
0.0034336273
0.0034027202
0.0033704733
0.0033368121
0.0033016526
0.0032649071
0.0032264921
0.0031863069
0.0031442303
0.0031001432
0.003053934
0.0030054856
0.00295472
0.002901575
0.0028460733
0.0027882515
0.0027280937
0.0026657926
0.0026015595
0.0025356984
0.0024689897
0.0024026319
0.0023383849
0.0022787453
0.002227751
0.0021900443
0.0021651857
0.0021711521
0.0022116341
0.0022821567
0.0023989219
0.0025666427
0.002787017
0.0030557434
0.0033642871
0.0037072747
0.0040431595
0.0043193986
0.0044936149
0.0045771878
0.0045605819
0.0044605864
0.0043388875
0.0041979433
0.0040477942
0.0038949303
0.0037388847
0.0035826463
0.0034246
0.0032609609
0.0030958945
0.0029311436
0.0027678577
0.0026080798
0.0024509591
0.002295047
0.0021432854
0.0019956214
0.0018504218
0.001708031
0.0015700579
0.001436541
0.0013059678
0.0011789858
0.0010562571
0.00094001467
0.00082990207
0.00072834576
0.00063184024
0.000569484
0.0004824919
0.00066778037
-0.00051346372
0.012026614
0.012130706
0.012350907
0.012631814
0.012972192
0.013372308
0.013830282
0.014345318
0.014918759
0.015553846
0.016255602
0.017031179
0.017890462
0.018847445
0.019921086
0.021140825
0.022543272
0.024205215
0.026185654
0.028781462
0.031901688
0.03737676
0.042453714
0.080592076
0.05118462
0.0023863401
0.0010153736
0.0018783556
0.0024244057
0.0028695948
0.0031422429
0.0033334222
0.0034791066
0.0035846518
0.003659313
0.0037129418
0.0037518665
0.0037796769
0.0037987669
0.0038111504
0.003818238
0.0038209643
0.0038201377
0.0038164098
0.0038102024
0.0038018404
0.0037916141
0.0037797456
0.0037664205
0.0037517645
0.0037358666
0.0037188115
0.0037006598
0.0036814655
0.0036612713
0.0036400816
0.0036178931
0.0035947094
0.0035705221
0.003545313
0.0035190608
0.003491739
0.0034632916
0.0034336485
0.0034027403
0.0033704924
0.0033368303
0.0033016699
0.0032649235
0.0032265077
0.0031863217
0.0031442444
0.0031001565
0.0030539467
0.0030054977
0.0029547314
0.0029015858
0.0028460834
0.002788261
0.0027281026
0.0026658009
0.0026015672
0.0025357054
0.0024689962
0.0024026377
0.0023383899
0.0022787496
0.0022277545
0.002190047
0.0021651873
0.0021711526
0.0022116335
0.0022821548
0.0023989186
0.0025666379
0.0027870107
0.0030557357
0.0033642783
0.003707265
0.0040431494
0.004319389
0.0044936066
0.0045771813
0.0045605771
0.0044605828
0.0043388851
0.0041979417
0.004047793
0.0038949296
0.0037388843
0.0035826461
0.0034246
0.0032609611
0.0030958948
0.002931144
0.0027678582
0.0026080805
0.0024509598
0.0022950477
0.0021432862
0.0019956222
0.0018504226
0.0017080318
0.0015700587
0.0014365418
0.0013059686
0.0011789866
0.0010562578
0.00094001543
0.00082990282
0.00072834651
0.00063184099
0.00056948481
0.00048249272
0.00066778127
-0.00051346319
0.012026614
0.012130706
0.012350907
0.012631814
0.012972192
0.013372308
0.013830282
0.014345319
0.01491876
0.015553847
0.016255603
0.01703118
0.017890464
0.018847447
0.019921089
0.021140828
0.022543276
0.02420522
0.02618566
0.02878147
0.031901698
0.037376772
0.042453773
0.080582844
0.051209247
0.0023964188
0.0010184744
0.0018798448
0.0024253194
0.0028702373
0.0031427286
0.0033338082
0.0034794227
0.0035849166
0.0036595389
0.0037131374
0.0037520379
0.0037798286
0.0037989021
0.0038112719
0.0038183478
0.0038210641
0.0038202288
0.0038164933
0.0038102792
0.0038019113
0.0037916799
0.0037798066
0.0037664773
0.0037518175
0.0037359162
0.0037188579
0.0037007034
0.0036815064
0.0036613098
0.0036401179
0.0036179274
0.0035947417
0.0035705527
0.0035453419
0.0035190883
0.003491765
0.0034633162
0.0034336719
0.0034027625
0.0033705135
0.0033368503
0.0033016889
0.0032649416
0.0032265249
0.0031863381
0.0031442599
0.0031001712
0.0030539606
0.0030055109
0.0029547439
0.0029015976
0.0028460945
0.0027882715
0.0027281124
0.00266581
0.0026015757
0.0025357132
0.0024690032
0.002402644
0.0023383955
0.0022787544
0.0022277583
0.0021900499
0.0021651891
0.0021711531
0.0022116328
0.0022821526
0.0023989149
0.0025666325
0.0027870037
0.0030557273
0.0033642686
0.0037072543
0.0040431383
0.0043193785
0.0044935973
0.004577174
0.0045605718
0.004460579
0.0043388824
0.0041979399
0.0040477918
0.0038949288
0.0037388838
0.0035826459
0.0034246
0.0032609613
0.0030958951
0.0029311445
0.0027678588
0.0026080812
0.0024509606
0.0022950485
0.0021432871
0.0019956231
0.0018504235
0.0017080327
0.0015700596
0.0014365427
0.0013059695
0.0011789874
0.0010562587
0.00094001627
0.00082990364
0.00072834734
0.00063184181
0.00056948571
0.00048249362
0.00066778226
-0.0005134626
0.012026614
0.012130707
0.012350907
0.012631814
0.012972193
0.013372309
0.013830283
0.014345319
0.01491876
0.015553848
0.016255604
0.017031182
0.017890466
0.018847449
0.019921092
0.021140832
0.02254328
0.024205225
0.026185666
0.028781479
0.031901709
0.037376783
0.042453842
0.080572179
0.051235788
0.0024075268
0.0010219001
0.0018814906
0.0024263294
0.0028709476
0.0031432656
0.0033342349
0.0034797721
0.0035852092
0.0036597885
0.0037133537
0.0037522274
0.0037799962
0.0037990516
0.0038114062
0.0038184691
0.0038211744
0.0038203295
0.0038165857
0.0038103642
0.0038019898
0.0037917525
0.0037798741
0.0037665401
0.0037518761
0.003735971
0.0037189092
0.0037007515
0.0036815516
0.0036613524
0.003640158
0.0036179652
0.0035947775
0.0035705865
0.0035453739
0.0035191186
0.0034917937
0.0034633435
0.0034336978
0.0034027871
0.0033705368
0.0033368725
0.00330171
0.0032649616
0.0032265439
0.0031863561
0.003144277
0.0031001875
0.003053976
0.0030055255
0.0029547577
0.0029016107
0.0028461069
0.002788283
0.0027281232
0.0026658201
0.002601585
0.0025357218
0.002469011
0.002402651
0.0023384017
0.0022787597
0.0022277626
0.0021900532
0.002165191
0.0021711537
0.0022116321
0.0022821502
0.0023989108
0.0025666267
0.002786996
0.003055718
0.0033642578
0.0037072425
0.0040431261
0.0043193669
0.0044935872
0.004577166
0.0045605659
0.0044605747
0.0043388795
0.0041979378
0.0040477904
0.0038949279
0.0037388833
0.0035826457
0.0034246
0.0032609615
0.0030958955
0.0029311451
0.0027678595
0.0026080819
0.0024509615
0.0022950494
0.002143288
0.0019956241
0.0018504245
0.0017080337
0.0015700605
0.0014365436
0.0013059704
0.0011789884
0.0010562596
0.00094001719
0.00082990455
0.00072834825
0.00063184272
0.0005694867
0.00048249462
0.00066778336
-0.00051346194
0.012026614
0.012130707
0.012350908
0.012631815
0.012972193
0.013372309
0.013830283
0.01434532
0.014918761
0.015553849
0.016255605
0.017031183
0.017890468
0.018847452
0.019921095
0.021140836
0.022543285
0.024205231
0.026185674
0.028781488
0.031901722
0.037376794
0.042453926
0.080559782
0.051264425
0.002419823
0.0010257013
0.0018833174
0.0024274508
0.0028717363
0.0031438618
0.0033347087
0.0034801601
0.003585534
0.0036600657
0.0037135937
0.0037524377
0.0037801822
0.0037992176
0.0038115552
0.0038186039
0.0038212969
0.0038204413
0.0038166881
0.0038104585
0.0038020768
0.0037918331
0.0037799489
0.0037666098
0.0037519411
0.0037360318
0.0037189662
0.003700805
0.0036816019
0.0036613997
0.0036402026
0.0036180073
0.0035948172
0.003570624
0.0035454095
0.0035191522
0.0034918256
0.0034633737
0.0034337265
0.0034028143
0.0033705627
0.003336897
0.0033017333
0.0032649838
0.003226565
0.0031863761
0.003144296
0.0031002056
0.0030539932
0.0030055417
0.0029547731
0.0029016252
0.0028461205
0.0027882959
0.0027281352
0.0026658313
0.0026015954
0.0025357313
0.0024690197
0.0024026588
0.0023384085
0.0022787655
0.0022277674
0.0021900568
0.0021651932
0.0021711543
0.0022116312
0.0022821476
0.0023989063
0.0025666201
0.0027869875
0.0030557076
0.0033642459
0.0037072293
0.0040431125
0.0043193539
0.0044935759
0.0045771571
0.0045605594
0.0044605699
0.0043388762
0.0041979356
0.0040477889
0.003894927
0.0037388828
0.0035826454
0.0034246
0.0032609617
0.0030958959
0.0029311457
0.0027678603
0.0026080828
0.0024509624
0.0022950505
0.0021432891
0.0019956252
0.0018504256
0.0017080348
0.0015700616
0.0014365447
0.0013059715
0.0011789894
0.0010562606
0.00094001822
0.00082990556
0.00072834927
0.00063184372
0.00056948781
0.00048249573
0.00066778458
-0.00051346122
0.012026614
0.012130707
0.012350908
0.012631815
0.012972193
0.01337231
0.013830284
0.014345321
0.014918762
0.01555385
0.016255607
0.017031185
0.01789047
0.018847455
0.019921099
0.02114084
0.022543291
0.024205239
0.026185682
0.028781498
0.031901736
0.037376803
0.042454025
0.080545295
0.051295319
0.0024334854
0.0010299342
0.0018853524
0.0024287004
0.002872615
0.0031445261
0.0033352365
0.0034805923
0.003585896
0.0036603746
0.0037138612
0.0037526721
0.0037803896
0.0037994025
0.0038117214
0.003818754
0.0038214333
0.0038205659
0.0038168023
0.0038105635
0.0038021738
0.003791923
0.0037800324
0.0037666874
0.0037520136
0.0037360995
0.0037190296
0.0037008645
0.0036816578
0.0036614524
0.0036402522
0.0036180541
0.0035948614
0.0035706658
0.003545449
0.0035191897
0.0034918612
0.0034634074
0.0034337584
0.0034028447
0.0033705915
0.0033369244
0.0033017593
0.0032650085
0.0032265885
0.0031863985
0.0031443172
0.0031002257
0.0030540122
0.0030055598
0.0029547902
0.0029016413
0.0028461357
0.0027883102
0.0027281486
0.0026658437
0.0026016069
0.0025357419
0.0024690294
0.0024026675
0.0023384162
0.002278772
0.0022277726
0.0021900609
0.0021651956
0.0021711551
0.0022116303
0.0022821446
0.0023989012
0.0025666128
0.002786978
0.0030556961
0.0033642327
0.0037072147
0.0040430973
0.0043193396
0.0044935633
0.0045771472
0.0045605521
0.0044605646
0.0043388726
0.0041979331
0.0040477872
0.0038949259
0.0037388822
0.0035826451
0.0034246
0.003260962
0.0030958964
0.0029311463
0.0027678611
0.0026080838
0.0024509635
0.0022950516
0.0021432903
0.0019956264
0.0018504268
0.001708036
0.0015700629
0.0014365459
0.0013059727
0.0011789906
0.0010562618
0.00094001936
0.00082990669
0.0007283504
0.00063184484
0.00056948903
0.00048249696
0.00066778593
-0.00051346041
0.012026614
0.012130707
0.012350908
0.012631815
0.012972194
0.01337231
0.013830285
0.014345322
0.014918763
0.015553852
0.016255608
0.017031188
0.017890473
0.018847458
0.019921103
0.021140846
0.022543297
0.024205247
0.026185691
0.028781509
0.031901752
0.03737681
0.042454144
0.080528285
0.051328595
0.0024487154
0.0010346612
0.0018876258
0.0024300968
0.0028735971
0.0031452685
0.0033358264
0.0034810753
0.0035863005
0.0036607197
0.0037141601
0.0037529339
0.0037806212
0.0037996091
0.003811907
0.0038189218
0.0038215857
0.003820705
0.0038169299
0.0038106809
0.0038022822
0.0037920234
0.0037801256
0.0037667742
0.0037520945
0.0037361752
0.0037191005
0.0037009311
0.0036817204
0.0036615112
0.0036403077
0.0036181064
0.0035949109
0.0035707126
0.0035454933
0.0035192316
0.0034919008
0.0034634451
0.0034337941
0.0034028786
0.0033706237
0.003336955
0.0033017884
0.0032650362
0.0032266147
0.0031864234
0.0031443409
0.0031002481
0.0030540336
0.00300558
0.0029548093
0.0029016594
0.0028461528
0.0027883262
0.0027281635
0.0026658577
0.0026016198
0.0025357538
0.0024690402
0.0024026772
0.0023384247
0.0022787793
0.0022277785
0.0021900654
0.0021651983
0.0021711559
0.0022116292
0.0022821413
0.0023988956
0.0025666047
0.0027869674
0.0030556832
0.0033642179
0.0037071984
0.0040430804
0.0043193235
0.0044935492
0.0045771362
0.004560544
0.0044605587
0.0043388686
0.0041979303
0.0040477854
0.0038949247
0.0037388815
0.0035826448
0.0034246
0.0032609623
0.0030958969
0.0029311471
0.002767862
0.0026080848
0.0024509647
0.0022950529
0.0021432916
0.0019956277
0.0018504281
0.0017080374
0.0015700642
0.0014365473
0.001305974
0.0011789919
0.0010562631
0.00094002064
0.00082990795
0.00072835167
0.0006318461
0.0005694904
0.00048249833
0.00066778745
-0.00051345951
0.012026614
0.012130707
0.012350908
0.012631816
0.012972194
0.013372311
0.013830286
0.014345323
0.014918765
0.015553853
0.016255611
0.01703119
0.017890476
0.018847462
0.019921108
0.021140852
0.022543304
0.024205255
0.026185702
0.028781521
0.031901768
0.037376812
0.042454285
0.080508233
0.051364326
0.0024657417
0.001039952
0.0018901714
0.002431661
0.0028746972
0.0031461001
0.003336487
0.0034816163
0.0035867535
0.0036611062
0.0037144948
0.0037532272
0.0037808806
0.0037998405
0.0038121148
0.0038191096
0.0038217564
0.0038208609
0.0038170728
0.0038108124
0.0038024036
0.0037921358
0.00378023
0.0037668714
0.0037521852
0.00373626
0.0037191799
0.0037010056
0.0036817904
0.0036615771
0.0036403698
0.003618165
0.0035949662
0.0035707649
0.0035455428
0.0035192785
0.0034919453
0.0034634872
0.0034338341
0.0034029166
0.0033706598
0.0033369893
0.003301821
0.0032650671
0.0032266441
0.0031864513
0.0031443674
0.0031002733
0.0030540574
0.0030056026
0.0029548307
0.0029016796
0.0028461718
0.0027883441
0.0027281803
0.0026658733
0.0026016343
0.002535767
0.0024690523
0.002402688
0.0023384342
0.0022787875
0.0022277851
0.0021900704
0.0021652014
0.0021711567
0.002211628
0.0022821376
0.0023988892
0.0025665956
0.0027869554
0.0030556688
0.0033642013
0.0037071801
0.0040430614
0.0043193055
0.0044935335
0.0045771238
0.0045605349
0.0044605521
0.004338864
0.0041979272
0.0040477833
0.0038949233
0.0037388807
0.0035826445
0.0034246
0.0032609626
0.0030958975
0.0029311479
0.0027678631
0.002608086
0.002450966
0.0022950543
0.0021432931
0.0019956292
0.0018504297
0.0017080389
0.0015700657
0.0014365488
0.0013059755
0.0011789934
0.0010562645
0.00094002207
0.00082990936
0.00072835308
0.0006318475
0.00056949194
0.00048249988
0.00066778914
-0.0005134585
0.012026614
0.012130707
0.012350909
0.012631816
0.012972195
0.013372312
0.013830287
0.014345324
0.014918766
0.015553855
0.016255613
0.017031193
0.01789048
0.018847467
0.019921113
0.021140858
0.022543312
0.024205265
0.026185713
0.028781533
0.031901786
0.037376808
0.042454452
0.080484514
0.051402517
0.0024848267
0.0010458845
0.001893027
0.0024334164
0.0028759317
0.0031470333
0.0033372284
0.0034822233
0.0035872618
0.0036615399
0.0037148704
0.0037535563
0.0037811717
0.0038001002
0.003812348
0.0038193204
0.003821948
0.0038210358
0.0038172331
0.0038109599
0.0038025398
0.0037922619
0.0037803471
0.0037669805
0.0037522869
0.0037363551
0.003719269
0.0037010892
0.003681869
0.0036616511
0.0036404394
0.0036182307
0.0035950283
0.0035708236
0.0035455983
0.0035193311
0.0034919952
0.0034635345
0.003433879
0.0034029592
0.0033707003
0.0033370277
0.0033018575
0.0032651018
0.0032266771
0.0031864827
0.0031443972
0.0031003016
0.0030540842
0.003005628
0.0029548547
0.0029017023
0.0028461932
0.0027883641
0.0027281991
0.0026658908
0.0026016505
0.0025357819
0.0024690658
0.0024027002
0.0023384449
0.0022787966
0.0022277925
0.0021900761
0.0021652048
0.0021711577
0.0022116267
0.0022821334
0.0023988822
0.0025665854
0.0027869421
0.0030556526
0.0033641826
0.0037071595
0.0040430401
0.0043192853
0.0044935158
0.0045771099
0.0045605247
0.0044605447
0.0043388589
0.0041979236
0.0040477809
0.0038949218
0.0037388798
0.0035826441
0.0034246
0.0032609629
0.0030958982
0.0029311488
0.0027678642
0.0026080874
0.0024509675
0.0022950559
0.0021432947
0.0019956309
0.0018504314
0.0017080406
0.0015700675
0.0014365505
0.0013059772
0.001178995
0.0010562662
0.00094002368
0.00082991094
0.00072835467
0.00063184908
0.00056949366
0.0004825016
0.00066779104
-0.00051345736
0.012026614
0.012130707
0.012350909
0.012631817
0.012972196
0.013372313
0.013830288
0.014345326
0.014918768
0.015553857
0.016255616
0.017031196
0.017890484
0.018847472
0.019921119
0.021140866
0.022543321
0.024205276
0.026185724
0.028781545
0.031901804
0.037376792
0.042454652
0.080456376
0.051443077
0.0025062741
0.0010525461
0.0018962351
0.0024353893
0.0028773192
0.0031480821
0.0033380616
0.0034829055
0.003587833
0.0036620273
0.0037152924
0.003753926
0.0037814988
0.0038003919
0.0038126101
0.0038195573
0.0038221632
0.0038212323
0.0038174132
0.0038111257
0.0038026929
0.0037924037
0.0037804788
0.003767103
0.0037524013
0.003736462
0.0037193692
0.0037011831
0.0036819573
0.0036617342
0.0036405177
0.0036183046
0.0035950981
0.0035708896
0.0035456608
0.0035193902
0.0034920512
0.0034635877
0.0034339294
0.003403007
0.0033707457
0.0033370709
0.0033018985
0.0032651408
0.0032267142
0.0031865179
0.0031444306
0.0031003333
0.0030541143
0.0030056565
0.0029548817
0.0029017278
0.0028462172
0.0027883867
0.0027282202
0.0026659104
0.0026016687
0.0025357987
0.002469081
0.0024027139
0.002338457
0.0022788069
0.0022278009
0.0021900825
0.0021652086
0.0021711589
0.0022116251
0.0022821288
0.0023988742
0.0025665738
0.0027869271
0.0030556344
0.0033641617
0.0037071365
0.0040430162
0.0043192626
0.004493496
0.0045770943
0.0045605132
0.0044605363