/*--------------------------------*- C++ -*----------------------------------*\
| =========                 |                                                 |
| \\      /  F ield         | OpenFOAM: The Open Source CFD Toolbox           |
|  \\    /   O peration     | Version:  2206                                  |
|   \\  /    A nd           | Website:  www.openfoam.com                      |
|    \\/     M anipulation  |                                                 |
\*---------------------------------------------------------------------------*/
FoamFile
{
    version     2.0;
    format      ascii;
    arch        "LSB;label=32;scalar=64";
    class       surfaceScalarField;
    location    "1500";
    object      phi;
}
// * * * * * * * * * * * * * * * * * * * * * * * * * * * * * * * * * * * * * //

dimensions      [0 3 -1 0 0 0 0];

oriented        oriented;

internalField   nonuniform List<scalar> 
25880
(
2.004587e-06
6.7173591e-11
2.0044108e-06
1.7614023e-10
2.0041723e-06
2.3853123e-10
2.003898e-06
2.7434315e-10
2.0035837e-06
3.1426307e-10
2.0032247e-06
3.5899378e-10
2.0028167e-06
4.0795922e-10
2.002354e-06
4.6272769e-10
2.0018286e-06
5.253688e-10
2.0012307e-06
5.9799687e-10
2.0005476e-06
6.83096e-10
1.9997633e-06
7.842772e-10
1.9988571e-06
9.0616432e-10
1.9977997e-06
1.0574433e-09
1.9965539e-06
1.2458166e-09
1.9950531e-06
1.500787e-09
1.993234e-06
1.8190816e-09
1.99088e-06
2.3539973e-09
1.9879643e-06
2.9157228e-09
1.9834669e-06
4.4974096e-09
1.9779239e-06
5.5429722e-09
1.9646606e-06
1.3263313e-08
1.9556728e-06
8.9877946e-09
9.8180814e-07
9.7386464e-07
4.3332008e-09
9.7747494e-07
2.0974804e-09
2.2357204e-09
1.5888213e-09
5.0865913e-10
1.3429537e-09
2.4586763e-10
1.1909926e-09
1.519611e-10
1.0831611e-09
1.078315e-10
1.0008746e-09
8.2286473e-11
9.3483742e-10
6.6037213e-11
8.8022168e-10
5.461574e-11
8.3401927e-10
4.6202406e-11
7.9418071e-10
3.9838565e-11
7.593063e-10
3.4874407e-11
7.284129e-10
3.0893407e-11
7.0077471e-10
2.7638184e-11
6.7583695e-10
2.4937763e-11
6.5317014e-10
2.2666807e-11
6.3243548e-10
2.0734665e-11
6.133585e-10
1.9076979e-11
5.9572058e-10
1.7637918e-11
5.7934138e-10
1.6379201e-11
5.6406774e-10
1.527364e-11
5.4977352e-10
1.4294221e-11
5.363512e-10
1.3422317e-11
5.237092e-10
1.2641999e-11
5.1176906e-10
1.1940143e-11
5.0046288e-10
1.1306177e-11
4.897314e-10
1.0731479e-11
4.795228e-10
1.0208605e-11
4.6979156e-10
9.7312409e-12
4.6049763e-10
9.2939304e-12
4.5160572e-10
8.8919137e-12
4.4308434e-10
8.5213719e-12
4.3490524e-10
8.1791044e-12
4.2704311e-10
7.8621298e-12
4.1947529e-10
7.5678187e-12
4.1218136e-10
7.2939314e-12
4.0514299e-10
7.0383672e-12
3.9834385e-10
6.7991467e-12
3.9176915e-10
6.5746949e-12
3.8540533e-10
6.3638238e-12
3.7924e-10
6.1653262e-12
3.7326211e-10
5.9778908e-12
3.6746179e-10
5.8003174e-12
3.618302e-10
5.6315932e-12
3.5635947e-10
5.4707297e-12
3.510429e-10
5.3165678e-12
3.4587492e-10
5.1679861e-12
3.4085085e-10
5.0240635e-12
3.35967e-10
4.8838528e-12
3.3122061e-10
4.746386e-12
3.2660991e-10
4.6106983e-12
3.2213424e-10
4.4756764e-12
3.1779446e-10
4.3397769e-12
3.1359407e-10
4.2003883e-12
3.0953901e-10
4.0550609e-12
3.056369e-10
3.9021121e-12
3.0189744e-10
3.7394558e-12
2.9833255e-10
3.5648981e-12
2.9495673e-10
3.3758151e-12
2.9178926e-10
3.1674667e-12
2.8885618e-10
2.9330828e-12
2.8619014e-10
2.6660408e-12
2.8383465e-10
2.3554929e-12
2.8186262e-10
1.9720274e-12
2.8029623e-10
1.5663866e-12
2.7932239e-10
9.7384061e-13
2.7901932e-10
3.0306979e-13
2.7941717e-10
-3.9785344e-13
2.8072612e-10
-1.3089508e-12
2.8305451e-10
-2.3283874e-12
2.8655373e-10
-3.4992222e-12
2.9131935e-10
-4.7656156e-12
2.9734474e-10
-6.0253956e-12
3.0457812e-10
-7.2333788e-12
3.1291737e-10
-8.339254e-12
3.2196947e-10
-9.0520976e-12
3.30966e-10
-8.9965252e-12
3.3921924e-10
-8.2532416e-12
3.4602834e-10
-6.8090999e-12
3.5128488e-10
-5.2565415e-12
3.5531367e-10
-4.0287841e-12
3.582276e-10
-2.9139347e-12
3.6034683e-10
-2.1192205e-12
3.6185613e-10
-1.5093021e-12
3.6288334e-10
-1.0272095e-12
3.635146e-10
-6.312656e-13
3.6381067e-10
-2.9606193e-13
3.6380018e-10
1.0482688e-14
3.6348283e-10
3.1735506e-13
3.6288219e-10
6.0064306e-13
3.620404e-10
8.4178771e-13
3.609912e-10
1.0491964e-12
3.5977935e-10
1.2118497e-12
3.5844557e-10
1.3337872e-12
3.5701918e-10
1.426385e-12
3.5553135e-10
1.4878336e-12
3.5401117e-10
1.5201776e-12
3.5247469e-10
1.5364749e-12
3.5093159e-10
1.5431042e-12
3.4939468e-10
1.5369085e-12
3.4787531e-10
1.5193743e-12
3.4637689e-10
1.4984197e-12
3.4489769e-10
1.4791962e-12
3.4343677e-10
1.4609202e-12
3.4199469e-10
1.4420815e-12
3.4057424e-10
1.4204519e-12
3.3914576e-10
1.4284729e-12
3.3773008e-10
1.4156851e-12
3.3618002e-10
1.5500617e-12
3.3462253e-10
1.5574852e-12
3.3291591e-10
1.7066258e-12
1.0225794e-12
2.0344598e-06
1.3541049e-10
2.0342809e-06
3.5510317e-10
2.0340385e-06
4.8092197e-10
2.0337597e-06
5.531382e-10
2.0334403e-06
6.3362536e-10
2.0330755e-06
7.238086e-10
2.0326609e-06
8.2252743e-10
2.0321907e-06
9.329428e-10
2.0316569e-06
1.0592266e-09
2.0310492e-06
1.2056409e-09
2.0303551e-06
1.3771928e-09
2.0295582e-06
1.5811608e-09
2.0286375e-06
1.8268645e-09
2.0275632e-06
2.1318118e-09
2.0262975e-06
2.5115257e-09
2.0247728e-06
3.0254747e-09
2.0229248e-06
3.6670515e-09
2.0205335e-06
4.7452489e-09
2.0175718e-06
5.8774513e-09
2.0130038e-06
9.0653937e-09
2.007374e-06
1.1172765e-08
1.9939034e-06
2.6733914e-08
1.9847681e-06
1.8123153e-08
1.0027166e-06
1.9559161e-06
1.322138e-08
1.9669701e-06
6.4177086e-09
9.0393917e-09
4.8615994e-09
2.0647683e-09
4.1092862e-09
9.9818085e-10
3.6442918e-09
6.1695554e-10
3.3143257e-09
4.3779754e-10
3.0625313e-09
3.3408089e-10
2.8604621e-09
2.6810639e-10
2.6933421e-09
2.2173575e-10
2.5519667e-09
1.8757785e-10
2.4300647e-09
1.6174053e-10
2.3233531e-09
1.4158605e-10
2.2288231e-09
1.2542337e-10
2.1442539e-09
1.1220739e-10
2.0679478e-09
1.0124389e-10
1.9985906e-09
9.2024009e-11
1.9351455e-09
8.4179744e-11
1.8767728e-09
7.7449671e-11
1.8228035e-09
7.1607239e-11
1.7726857e-09
6.6497054e-11
1.7259507e-09
6.2008601e-11
1.6822126e-09
5.803229e-11
1.6411425e-09
5.4492481e-11
1.60246e-09
5.1324497e-11
1.565925e-09
4.8475066e-11
1.53133e-09
4.5901256e-11
1.4984934e-09
4.356807e-11
1.4672567e-09
4.1445279e-11
1.4374807e-09
3.9507256e-11
1.4090428e-09
3.7731842e-11
1.381835e-09
3.609972e-11
1.355761e-09
3.459538e-11
1.3307342e-09
3.3205829e-11
1.3066774e-09
3.1918964e-11
1.2835211e-09
3.072411e-11
1.2612029e-09
2.9612173e-11
1.2396666e-09
2.8574625e-11
1.2188623e-09
2.7603432e-11
1.1987448e-09
2.6692198e-11
1.1792725e-09
2.5836099e-11
1.1604076e-09
2.5030235e-11
1.1421162e-09
2.4269281e-11
1.1243682e-09
2.3548365e-11
1.1071364e-09
2.2863376e-11
1.0903968e-09
2.2210299e-11
1.074129e-09
2.1584431e-11
1.0583158e-09
2.0981217e-11
1.0429429e-09
2.0396919e-11
1.0279991e-09
1.982769e-11
1.0134758e-09
1.9269599e-11
9.9936781e-10
1.871873e-11
9.8567293e-10
1.8170562e-11
9.7239388e-10
1.7618827e-11
9.5954134e-10
1.7052927e-11
9.4713348e-10
1.6462916e-11
9.3519364e-10
1.5841957e-11
9.2375151e-10
1.5181586e-11
9.1284351e-10
1.4472893e-11
9.0251412e-10
1.370521e-11
8.9282229e-10
1.2859296e-11
8.8384771e-10
1.1907662e-11
8.7569033e-10
1.0823414e-11
8.6848333e-10
9.5624975e-12
8.624498e-10
8.005558e-12
8.576576e-10
6.3585851e-12
8.5467877e-10
3.9526721e-12
8.5375248e-10
1.2293543e-12
8.5497098e-10
-1.6163483e-12
8.5897747e-10
-5.3154467e-12
8.6610334e-10
-9.4542544e-12
8.7681167e-10
-1.4207552e-11
8.913947e-10
-1.9348651e-11
9.0983213e-10
-2.4462828e-11
9.3196541e-10
-2.9366661e-11
9.5748143e-10
-3.3855276e-11
9.8517746e-10
-3.6748128e-11
1.0127028e-09
-3.6521842e-11
1.0379539e-09
-3.3504377e-11
1.0587867e-09
-2.7641881e-11
1.0748696e-09
-2.1339442e-11
1.0871965e-09
-1.6355726e-11
1.0961126e-09
-1.1830006e-11
1.1025972e-09
-8.6037628e-12
1.1072156e-09
-6.1276958e-12
1.1103588e-09
-4.1704848e-12
1.1122906e-09
-2.5630387e-12
1.1131967e-09
-1.2021404e-12
1.1131647e-09
4.2425676e-14
1.1121938e-09
1.288288e-12
1.110356e-09
2.4384333e-12
1.1077804e-09
3.4174593e-12
1.1045701e-09
4.259494e-12
1.1008621e-09
4.9198514e-12
1.0967809e-09
5.4149104e-12
1.0924165e-09
5.7908207e-12
1.087864e-09
6.0402933e-12
1.0832126e-09
6.1716212e-12
1.0785113e-09
6.2377843e-12
1.0737897e-09
6.2646837e-12
1.0690871e-09
6.2395313e-12
1.0644381e-09
6.1683595e-12
1.0598532e-09
6.0832834e-12
1.0553272e-09
6.0052285e-12
1.0508571e-09
5.9310105e-12
1.0464447e-09
5.854524e-12
1.0420984e-09
5.7666961e-12
1.0377277e-09
5.7992357e-12
1.0333962e-09
5.747164e-12
1.0286534e-09
6.2928423e-12
1.0238895e-09
6.3213345e-12
1.0186599e-09
6.936269e-12
4.1391298e-12
2.0946508e-06
2.057374e-10
2.0944663e-06
5.3958748e-10
2.0942164e-06
7.3083369e-10
2.0939289e-06
8.4059878e-10
2.0935996e-06
9.6291356e-10
2.0932235e-06
1.0999574e-09
2.092796e-06
1.2499684e-09
2.0923112e-06
1.4177484e-09
2.0917608e-06
1.6096359e-09
2.0911343e-06
1.8321062e-09
2.0904188e-06
2.0927664e-09
2.0895973e-06
2.4026741e-09
2.0886481e-06
2.7759869e-09
2.0875406e-06
3.2393031e-09
2.086236e-06
3.816202e-09
2.0846644e-06
4.5970301e-09
2.0827597e-06
5.5717322e-09
2.0802952e-06
7.2097367e-09
2.077243e-06
8.9297249e-09
2.0725358e-06
1.3772598e-08
2.0667346e-06
1.6973904e-08
2.0528544e-06
4.0614112e-08
2.0434344e-06
2.7543206e-08
1.0389496e-06
2.9604009e-06
2.2861204e-08
2.9830585e-06
1.1121661e-08
2.0778935e-08
8.4253074e-09
4.7611221e-09
7.1215632e-09
2.3019251e-09
6.3156908e-09
1.4228279e-09
5.7438284e-09
1.0096599e-09
5.3074478e-09
7.7046152e-10
4.9572494e-09
6.1830472e-10
4.6676209e-09
5.1136432e-10
4.4226096e-09
4.3258911e-10
4.2113479e-09
3.7300227e-10
4.0264123e-09
3.2652155e-10
3.8625886e-09
2.8924713e-10
3.7160274e-09
2.5876856e-10
3.5837866e-09
2.3348466e-10
3.4635887e-09
2.1222194e-10
3.3536367e-09
1.9413175e-10
3.2524755e-09
1.7861092e-10
3.1589454e-09
1.6513725e-10
3.0720901e-09
1.5335244e-10
2.9910974e-09
1.4300128e-10
2.9152984e-09
1.3383126e-10
2.844123e-09
1.256679e-10
2.7770855e-09
1.1836202e-10
2.7137697e-09
1.1179079e-10
2.6538158e-09
1.0585518e-10
2.5969094e-09
1.0047449e-10
2.5427757e-09
9.5579011e-11
2.4911733e-09
9.110963e-11
2.4418899e-09
8.7015257e-11
2.3947383e-09
8.3251337e-11
2.3495515e-09
7.9782106e-11
2.3061798e-09
7.6577594e-11
2.2644888e-09
7.3609891e-11
2.2243586e-09
7.0854381e-11
2.1856807e-09
6.829009e-11
2.1483579e-09
6.5897353e-11
2.1123037e-09
6.3657643e-11
2.0774397e-09
6.1556208e-11
2.0436939e-09
5.9581925e-11
2.0110006e-09
5.7723488e-11
1.9793013e-09
5.5968622e-11
1.9485436e-09
5.430609e-11
1.9186805e-09
5.2726408e-11
1.8896705e-09
5.1220322e-11
1.861478e-09
4.9776983e-11
1.8340733e-09
4.8385892e-11
1.8074318e-09
4.7038421e-11
1.7815338e-09
4.57257e-11
1.7563647e-09
4.4438666e-11
1.7319151e-09
4.3168282e-11
1.7081816e-09
4.1904123e-11
1.6851687e-09
4.0631732e-11
1.6628949e-09
3.9326674e-11
1.6413918e-09
3.7966016e-11
1.6206998e-09
3.6533974e-11
1.6008704e-09
3.5011039e-11
1.5819666e-09
3.3376654e-11
1.5640656e-09
3.1606202e-11
1.5472696e-09
2.9655306e-11
1.5317167e-09
2.7460567e-11
1.5175802e-09
2.4959949e-11
1.5050908e-09
2.2051837e-11
1.4946353e-09
1.8461082e-11
1.4863313e-09
1.4662574e-11
1.4811701e-09
9.1138893e-12
1.4795661e-09
2.8333034e-12
1.4816794e-09
-3.7295997e-12
1.4886244e-09
-1.2260462e-11
1.5009755e-09
-2.1805294e-11
1.5195348e-09
-3.2766914e-11
1.5448088e-09
-4.4622611e-11
1.5767621e-09
-5.6416117e-11
1.6151197e-09
-6.7724325e-11
1.6593384e-09
-7.8073919e-11
1.7073335e-09
-8.4743252e-11
1.755032e-09
-8.4220348e-11
1.7987894e-09
-7.726173e-11
1.8348905e-09
-6.3743077e-11
1.8627611e-09
-4.9210024e-11
1.8841233e-09
-3.7717895e-11
1.899575e-09
-2.7281748e-11
1.9108131e-09
-1.9841808e-11
1.9188172e-09
-1.4131791e-11
1.9242649e-09
-9.6181789e-12
1.927613e-09
-5.9111861e-12
1.9291836e-09
-2.7726998e-12
1.9291285e-09
9.7538372e-14
1.927446e-09
2.9707181e-12
1.9242613e-09
5.6232019e-12
1.9197977e-09
7.8810224e-12
1.9142343e-09
9.8228733e-12
1.9078084e-09
1.134578e-11
1.9007358e-09
1.2487482e-11
1.8931723e-09
1.3354359e-11
1.8852829e-09
1.3929684e-11
1.8772219e-09
1.4232575e-11
1.8690746e-09
1.4385157e-11
1.8608921e-09
1.4447169e-11
1.8527425e-09
1.4389167e-11
1.8446858e-09
1.4225058e-11
1.8367402e-09
1.4028855e-11
1.8288966e-09
1.3848828e-11
1.82115e-09
1.3677638e-11
1.8135032e-09
1.3501235e-11
1.8059713e-09
1.3298672e-11
1.7983969e-09
1.3373629e-11
1.7908907e-09
1.3253382e-11
1.7826718e-09
1.4511682e-11
1.7744176e-09
1.4575596e-11
1.7653493e-09
1.6004502e-11
9.5317969e-12
2.1860567e-06
2.7921611e-10
2.1858639e-06
7.3238666e-10
2.1856027e-06
9.9205942e-10
2.1853022e-06
1.141091e-09
2.184958e-06
1.307129e-09
2.1845648e-06
1.4931525e-09
2.184118e-06
1.6967719e-09
2.1836113e-06
1.924503e-09
2.1830359e-06
2.184948e-09
2.1823812e-06
2.4868946e-09
2.1816333e-06
2.8406657e-09
2.1807747e-06
3.2612663e-09
2.1797827e-06
3.7679076e-09
2.1786254e-06
4.3966834e-09
2.177262e-06
5.1795852e-09
2.1756198e-06
6.2392162e-09
2.1736296e-06
7.5619048e-09
2.1710547e-06
9.7846705e-09
2.1678658e-06
1.2118596e-08
2.1629485e-06
1.8689956e-08
2.1568886e-06
2.3033764e-08
2.1423899e-06
5.5112833e-08
2.132542e-06
3.7391068e-08
1.0913481e-06
4.0015948e-06
3.3823374e-08
4.0405833e-06
1.6490728e-08
3.8111581e-08
1.2493159e-08
8.7586915e-09
1.0560025e-08
4.2350591e-09
9.3650293e-09
2.6178232e-09
8.5170338e-09
1.8576554e-09
7.8699424e-09
1.4175529e-09
7.3506538e-09
1.1375933e-09
6.9211818e-09
9.4083631e-10
6.5578708e-09
7.9590014e-10
6.244606e-09
6.8626706e-10
5.9703796e-09
6.0074802e-10
5.7274587e-09
5.3216804e-10
5.5101354e-09
4.7609177e-10
5.314047e-09
4.2957306e-10
5.1358161e-09
3.9045284e-10
4.9727781e-09
3.5716981e-10
4.8227753e-09
3.2861367e-10
4.6840884e-09
3.0382421e-10
4.5552985e-09
2.8214228e-10
4.4352021e-09
2.6309776e-10
4.3228069e-09
2.4622644e-10
4.2172676e-09
2.3120719e-10
4.117864e-09
2.177656e-10
4.0239792e-09
2.0567564e-10
3.9350792e-09
1.9475513e-10
3.8506981e-09
1.8485558e-10
3.7704284e-09
1.7584873e-10
3.6939122e-09
1.6762584e-10
3.6208345e-09
1.600929e-10
3.5509179e-09
1.5316794e-10
3.4839149e-09
1.4678516e-10
3.4196031e-09
1.4088942e-10
3.3577836e-09
1.3542936e-10
3.2982783e-09
1.3035971e-10
3.2409265e-09
1.2564186e-10
3.1855842e-09
1.2123965e-10
3.1321228e-09
1.1711899e-10
3.0804263e-09
1.1325273e-10
3.0303878e-09
1.0962041e-10
2.9819101e-09
1.0620122e-10
2.9349061e-09
1.0297258e-10
2.8892984e-09
9.9913827e-11
2.8450173e-09
9.7007501e-11
2.8020011e-09
9.4236579e-11
2.7601969e-09
9.15811e-11
2.7195611e-09
8.9021752e-11
2.6800568e-09
8.6542656e-11
2.641655e-09
8.4127493e-11
2.6043341e-09
8.1759588e-11
2.5680801e-09
7.942231e-11
2.5328877e-09
7.7096478e-11
2.498764e-09
7.4755492e-11
2.4657363e-09
7.2354402e-11
2.4338513e-09
6.9851019e-11
2.4031689e-09
6.7216287e-11
2.3737657e-09
6.4414321e-11
2.345735e-09
6.140729e-11
2.3191914e-09
5.8149867e-11
2.2942863e-09
5.4560402e-11
2.2712246e-09
5.0522248e-11
2.2502633e-09
4.5921238e-11
2.2317447e-09
4.05704e-11
2.2162421e-09
3.396367e-11
2.2039303e-09
2.6974397e-11
2.1962787e-09
1.6765509e-11
2.1939021e-09
5.2099151e-12
2.1970378e-09
-6.8653462e-12
2.2073382e-09
-2.2560786e-11
2.2256547e-09
-4.0121833e-11
2.2531767e-09
-6.0288942e-11
2.2906547e-09
-8.2100605e-11
2.3380363e-09
-1.037977e-10
2.3949134e-09
-1.2460143e-10
2.4604793e-09
-1.4363983e-10
2.531643e-09
-1.5590691e-10
2.6023659e-09
-1.5494328e-10
2.6672449e-09
-1.4214073e-10
2.7207729e-09
-1.1727105e-10
2.762098e-09
-9.0535103e-11
2.7937731e-09
-6.9393061e-11
2.8166853e-09
-5.019395e-11
2.8333497e-09
-3.6506139e-11
2.8452188e-09
-2.6000939e-11
2.8532973e-09
-1.7696678e-11
2.8582626e-09
-1.0876456e-11
2.860592e-09
-5.1020839e-12
2.8605107e-09
1.788076e-13
2.8580164e-09
5.4650435e-12
2.8532943e-09
1.0345294e-11
2.8466759e-09
1.4499377e-11
2.8384267e-09
1.8072052e-11
2.8288985e-09
2.0873986e-11
2.8184115e-09
2.297456e-11
2.8071964e-09
2.4569427e-11
2.7954981e-09
2.5627935e-11
2.7835455e-09
2.6185256e-11
2.7714646e-09
2.6465983e-11
2.7593318e-09
2.6580043e-11
2.7472476e-09
2.6473339e-11
2.7353012e-09
2.6171444e-11
2.7235196e-09
2.5810463e-11
2.7118892e-09
2.5479206e-11
2.7004027e-09
2.5164194e-11
2.6890643e-09
2.4839614e-11
2.677896e-09
2.4466912e-11
2.666665e-09
2.4604622e-11
2.6555352e-09
2.4383245e-11
2.6433492e-09
2.6697677e-11
2.6311113e-09
2.6813514e-11
2.6176618e-09
2.9453954e-11
1.7523133e-11
2.3100399e-06
3.569604e-10
2.3098359e-06
9.3643423e-10
2.3095594e-06
1.2685858e-09
2.3092412e-06
1.459205e-09
2.3088768e-06
1.6715297e-09
2.3084606e-06
1.9093986e-09
2.3079876e-06
2.1697595e-09
2.3074512e-06
2.4609409e-09
2.3068422e-06
2.7939396e-09
2.3061491e-06
3.1799901e-09
2.3053575e-06
3.6322881e-09
2.3044487e-06
4.1700143e-09
2.3033989e-06
4.8177245e-09
2.302174e-06
5.6215569e-09
2.3007312e-06
6.6223979e-09
2.2989935e-06
7.9769729e-09
2.2968876e-06
9.6677682e-09
2.2941632e-06
1.2509082e-08
2.2907894e-06
1.5492358e-08
2.2855876e-06
2.3891818e-08
2.2791774e-06
2.9443909e-08
2.2638413e-06
7.0448979e-08
2.2534151e-06
4.781723e-08
1.1610309e-06
5.093979e-06
4.6752751e-08
5.1548615e-06
2.2846063e-08
6.2018269e-08
1.7308543e-08
1.4296211e-08
1.4630417e-08
6.9131854e-09
1.2974766e-08
4.2734744e-09
1.1799874e-08
3.0325469e-09
1.0903337e-08
2.3140902e-09
1.0183878e-08
1.8570519e-09
9.5888599e-09
1.5358548e-09
9.0855062e-09
1.2992539e-09
8.6514915e-09
1.1202818e-09
8.2715641e-09
9.8067535e-10
7.93501e-09
8.6872217e-10
7.6339207e-09
7.7718111e-10
7.3622514e-09
7.012423e-10
7.115323e-09
6.3738121e-10
6.8894435e-09
5.8304933e-10
6.6816241e-09
5.3643314e-10
6.4894821e-09
4.9596616e-10
6.3110518e-09
4.6057255e-10
6.1446659e-09
4.2948374e-10
5.9889496e-09
4.019427e-10
5.8427318e-09
3.7742503e-10
5.7050146e-09
3.5548276e-10
5.5749433e-09
3.3574694e-10
5.4517783e-09
3.1792017e-10
5.3348738e-09
3.0176001e-10
5.2236655e-09
2.8705712e-10
5.1176573e-09
2.7363398e-10
5.0164131e-09
2.6133712e-10
4.9195483e-09
2.5003275e-10
4.82672e-09
2.3961345e-10
4.7376202e-09
2.2998918e-10
4.6519735e-09
2.2107615e-10
4.5695328e-09
2.128004e-10
4.4900757e-09
2.0509896e-10
4.4134026e-09
1.9791276e-10
4.3393354e-09
1.9118617e-10
4.2677132e-09
1.8487487e-10
4.1983882e-09
1.7894546e-10
4.1312254e-09
1.7336397e-10
4.0661045e-09
1.6809354e-10
4.0029179e-09
1.6310042e-10
3.9415692e-09
1.5835613e-10
3.8819729e-09
1.5383288e-10
3.824056e-09
1.4949807e-10
3.7677575e-09
1.453202e-10
3.7130268e-09
1.4127333e-10
3.6598235e-09
1.3733082e-10
3.6081176e-09
1.3346546e-10
3.5578899e-09
1.2965008e-10
3.509133e-09
1.2585338e-10
3.4618565e-09
1.2203192e-10
3.4160986e-09
1.1811235e-10
3.3719238e-09
1.1402579e-10
3.3294153e-09
1.097248e-10
3.2886788e-09
1.0515081e-10
3.2498441e-09
1.0024203e-10
3.2130695e-09
9.492443e-11
3.1785652e-09
8.9064711e-11
3.146615e-09
8.2472447e-11
3.117575e-09
7.496122e-11
3.0919196e-09
6.62258e-11
3.070443e-09
5.5440334e-11
3.0533875e-09
4.4029841e-11
3.0427885e-09
2.7364483e-11
3.0394982e-09
8.5002986e-12
3.0438454e-09
-1.1212632e-11
3.0581187e-09
-3.6834078e-11
3.0834981e-09
-6.5501234e-11
3.1216308e-09
-9.8421589e-11
3.1735561e-09
-1.3402595e-10
3.2392015e-09
-1.6944308e-10
3.318001e-09
-2.0340096e-10
3.4088358e-09
-2.3447455e-10
3.5074231e-09
-2.5449429e-10
3.6053989e-09
-2.5291903e-10
3.6952784e-09
-2.3202027e-10
3.7694342e-09
-1.9142677e-10
3.8266856e-09
-1.4778659e-10
3.8705688e-09
-1.1327625e-10
3.9023129e-09
-8.193804e-11
3.9254012e-09
-5.9594454e-11
3.9418463e-09
-4.2445983e-11
3.9530396e-09
-2.8889988e-11
3.9599197e-09
-1.7756543e-11
3.9631478e-09
-8.330209e-12
3.963036e-09
2.9063882e-13
3.9595809e-09
8.9201123e-12
3.9530393e-09
1.6886934e-11
3.9438704e-09
2.3668263e-11
3.9324421e-09
2.9500369e-11
3.9192417e-09
3.4074369e-11
3.9047128e-09
3.7503447e-11
3.8891753e-09
4.0106883e-11
3.8729684e-09
4.1834828e-11
3.856409e-09
4.2744698e-11
3.839672e-09
4.3202972e-11
3.8228629e-09
4.3389118e-11
3.8061213e-09
4.3214952e-11
3.7895706e-09
4.2722201e-11
3.7732481e-09
4.2132929e-11
3.7571352e-09
4.1592118e-11
3.7412216e-09
4.1077809e-11
3.7255133e-09
4.0547909e-11
3.7100407e-09
3.9939478e-11
3.6944814e-09
4.0163908e-11
3.6790623e-09
3.9802419e-11
3.6621808e-09
4.3579123e-11
3.6452278e-09
4.3766536e-11
3.6265924e-09
4.8089329e-11
2.8591268e-11
2.468448e-06
4.4015402e-10
2.4682296e-06
1.1548519e-09
2.4679335e-06
1.5646594e-09
2.4675929e-06
1.799832e-09
2.4672027e-06
2.0617184e-09
2.466757e-06
2.3550939e-09
2.4662505e-06
2.6761989e-09
2.4656762e-06
3.0353007e-09
2.4650242e-06
3.4459587e-09
2.4642821e-06
3.922025e-09
2.4634346e-06
4.4797691e-09
2.4624618e-06
5.1428386e-09
2.461338e-06
5.9415062e-09
2.4600269e-06
6.9326555e-09
2.4584826e-06
8.1666846e-09
2.4566228e-06
9.8368241e-09
2.4543691e-06
1.192143e-08
2.4514538e-06
1.5424455e-08
2.4478438e-06
1.9102324e-08
2.4422785e-06
2.9457137e-08
2.4354208e-06
3.6301551e-08
2.4190149e-06
8.6854895e-08
2.4078501e-06
5.8982031e-08
1.2494304e-06
6.2523987e-06
6.2406097e-08
6.3418858e-06
3.0567789e-08
9.3856577e-08
2.3159583e-08
2.1704417e-08
1.9576308e-08
1.0496461e-08
1.7360896e-08
6.488886e-09
1.5788779e-08
4.6046637e-09
1.4589131e-08
3.5137384e-09
1.3626443e-08
2.8197395e-09
1.2830268e-08
2.3320297e-09
1.2156748e-08
1.9727738e-09
1.1576011e-08
1.701019e-09
1.1067648e-08
1.4890383e-09
1.0617322e-08
1.3190483e-09
1.0214451e-08
1.1800528e-09
9.8509449e-09
1.0647479e-09
9.5205441e-09
9.67782e-10
9.2183077e-09
8.8528572e-10
8.940237e-09
8.1450385e-10
8.6831437e-09
7.5305946e-10
8.444397e-09
6.9931931e-10
8.2217662e-09
6.5211452e-10
8.013412e-09
6.102969e-10
7.8177671e-09
5.7306991e-10
7.6334965e-09
5.3975338e-10
7.4594563e-09
5.0978707e-10
7.2946571e-09
4.8271944e-10
7.1382347e-09
4.5818236e-10
6.9894339e-09
4.3585795e-10
6.8475912e-09
4.1547666e-10
6.7121228e-09
3.9680551e-10
6.5825142e-09
3.7964133e-10
6.4583067e-09
3.6382102e-10
6.339088e-09
3.4920787e-10
6.2244895e-09
3.3567462e-10
6.1141809e-09
3.2310902e-10
6.0078644e-09
3.1141542e-10
5.905273e-09
3.0050416e-10
5.8061685e-09
2.9029076e-10
5.7103354e-09
2.8070794e-10
5.6175759e-09
2.7170496e-10
5.5277096e-09
2.6323026e-10
5.4405753e-09
2.5522785e-10
5.3560292e-09
2.4764651e-10
5.2739424e-09
2.4044298e-10
5.1942002e-09
2.3357505e-10
5.116705e-09
2.2699328e-10
5.0413754e-09
2.2064979e-10
4.9681435e-09
2.1450521e-10
4.8969552e-09
2.0851909e-10
4.8277706e-09
2.0265009e-10
4.7605637e-09
1.9685698e-10
4.6953249e-09
1.9109221e-10
4.632067e-09
1.8528983e-10
4.5708408e-09
1.7933847e-10
4.5117331e-09
1.7313358e-10
4.4548548e-09
1.6660306e-10
4.4003476e-09
1.5965801e-10
4.348385e-09
1.522046e-10
4.2991791e-09
1.4413031e-10
4.2530111e-09
1.3523275e-10
4.2102608e-09
1.2522275e-10
4.1714048e-09
1.138172e-10
4.137078e-09
1.0055262e-10
4.1083429e-09
8.4175438e-11
4.0855244e-09
6.6848393e-11
4.0713449e-09
4.1543972e-11
4.0669451e-09
1.290002e-11
4.0727658e-09
-1.7033244e-11
4.0918676e-09
-5.5935938e-11
4.1258301e-09
-9.9463678e-11
4.1768563e-09
-1.4944783e-10
4.2463368e-09
-2.0350644e-10
4.3341742e-09
-2.5728055e-10
4.4396107e-09
-3.0883739e-10
4.5611472e-09
-3.5601105e-10
4.6930535e-09
-3.8640063e-10
4.8241403e-09
-3.8400584e-10
4.9443946e-09
-3.5227454e-10
5.043613e-09
-2.9064519e-10
5.1202158e-09
-2.2438936e-10
5.1789327e-09
-1.7199315e-10
5.2214089e-09
-1.2441423e-10
5.2523036e-09
-9.0489155e-11
5.2743095e-09
-6.4451879e-11
5.2892883e-09
-4.3868772e-11
5.2984957e-09
-2.6963983e-11
5.3028165e-09
-1.2651004e-11
5.3026681e-09
4.3906165e-13
5.2980461e-09
1.3542078e-11
5.289294e-09
2.5639065e-11
5.2770263e-09
3.5935908e-11
5.2617354e-09
4.479128e-11
5.2440733e-09
5.1736469e-11
5.2246336e-09
5.6943205e-11
5.2038443e-09
6.0896134e-11
5.1821593e-09
6.3519845e-11
5.1600025e-09
6.4901518e-11
5.1376081e-09
6.5597373e-11
5.1151172e-09
6.5879946e-11
5.0927167e-09
6.5615536e-11
5.0705714e-09
6.4867464e-11
5.0487316e-09
6.3972734e-11
5.0271722e-09
6.3151485e-11
5.0058796e-09
6.2370452e-11
4.9848617e-09
6.1565782e-11
4.9641593e-09
6.0641926e-11
4.9433411e-09
6.0982068e-11
4.9227104e-09
6.043313e-11
4.9001245e-09
6.6164996e-11
4.877443e-09
6.6448011e-11
4.8525068e-09
7.3025523e-11
4.3398572e-11
2.6636415e-06
5.3007006e-10
2.6634053e-06
1.391002e-09
2.6630851e-06
1.8848595e-09
2.6627167e-06
2.1682479e-09
2.6622947e-06
2.4837385e-09
2.6618126e-06
2.8371394e-09
2.6612649e-06
3.2239281e-09
2.6606437e-06
3.6564666e-09
2.6599386e-06
4.1510834e-09
2.6591362e-06
4.72446e-09
2.6582198e-06
5.3961869e-09
2.6571679e-06
6.1947381e-09
2.6559528e-06
7.156562e-09
2.6545353e-06
8.3501523e-09
2.6528658e-06
9.8361789e-09
2.6508553e-06
1.1847317e-08
2.6484193e-06
1.4357437e-08
2.6452684e-06
1.8575405e-08
2.641367e-06
2.3003662e-08
2.6353534e-06
3.5470748e-08
2.6279438e-06
4.3711117e-08
2.6102187e-06
1.0458009e-07
2.5981423e-06
7.1058374e-08
1.3583356e-06
7.4922054e-06
8.1695259e-08
7.6185261e-06
4.0117722e-08
1.3543411e-07
3.0396369e-08
3.142577e-08
2.569366e-08
1.519917e-08
2.2785877e-08
9.3966686e-09
2.0722429e-08
6.6681124e-09
1.9147861e-08
5.0883062e-09
1.7884329e-08
4.0832718e-09
1.6839349e-08
3.3770095e-09
1.5955356e-08
2.8567668e-09
1.5193144e-08
2.4632313e-09
1.4525925e-08
2.1562572e-09
1.393488e-08
1.9100929e-09
1.340612e-08
1.7088133e-09
1.2929027e-08
1.5418405e-09
1.2495384e-08
1.4014246e-09
1.2098707e-08
1.2819631e-09
1.1733747e-08
1.1794637e-09
1.139632e-08
1.0904866e-09
1.1082972e-08
1.0126674e-09
1.0790776e-08
9.4431062e-10
1.0517317e-08
8.8375532e-10
1.026054e-08
8.2984766e-10
1.001869e-08
7.8160269e-10
9.7902683e-09
7.3820915e-10
9.5739745e-09
6.9901316e-10
9.3686753e-09
6.6348161e-10
9.1733791e-09
6.3115417e-10
8.9872152e-09
6.0164053e-10
8.8094174e-09
5.7460332e-10
8.6393104e-09
5.4974834e-10
8.476292e-09
5.2683939e-10
8.3198214e-09
5.0567849e-10
8.1694146e-09
4.8608137e-10
8.0246382e-09
4.6788549e-10
7.8851013e-09
4.5095233e-10
7.7504534e-09
4.3515206e-10
7.6203818e-09
4.2036236e-10
7.4946039e-09
4.0648582e-10
7.3728599e-09
3.9344891e-10
7.2549132e-09
3.8117698e-10
7.1405521e-09
3.6958898e-10
7.0295879e-09
3.5861071e-10
6.9218513e-09
3.4817954e-10
6.817192e-09
3.3823435e-10
6.7154818e-09
3.2870353e-10
6.6166138e-09
3.1951778e-10
6.5204989e-09
3.1062006e-10
6.4270662e-09
3.019518e-10
6.3362632e-09
2.9345314e-10
6.2480558e-09
2.8506435e-10
6.1624314e-09
2.7671657e-10
6.079407e-09
2.683143e-10
5.9990491e-09
2.5969631e-10
5.9214715e-09
2.5071118e-10
5.8468201e-09
2.4125448e-10
5.7752807e-09
2.3119747e-10
5.707081e-09
2.2040426e-10
5.6424995e-09
2.0871179e-10
5.5819053e-09
1.9582694e-10
5.5257971e-09
1.8133096e-10
5.4748005e-09
1.6481376e-10
5.429749e-09
1.4560419e-10
5.3920369e-09
1.218875e-10
5.3620912e-09
9.6794142e-11
5.343484e-09
6.0151127e-11
5.3377134e-09
1.8670677e-11
5.3453576e-09
-2.4677532e-11
5.370433e-09
-8.1011249e-11
5.4150125e-09
-1.4404327e-10
5.4819871e-09
-2.1642237e-10
5.5731811e-09
-2.9470041e-10
5.6884667e-09
-3.7256623e-10
5.8268481e-09
-4.4721873e-10
5.9863556e-09
-5.1551854e-10
6.1594686e-09
-5.5951363e-10
6.3315046e-09
-5.5604192e-10
6.4893243e-09
-5.1009423e-10
6.6195396e-09
-4.2086041e-10
6.7200763e-09
-3.2492615e-10
6.7971405e-09
-2.4905727e-10
6.8528915e-09
-1.8016531e-10
6.8934426e-09
-1.3104019e-10
6.9223274e-09
-9.3336753e-11
6.9419893e-09
-6.3530603e-11
6.9540762e-09
-3.9050938e-11
6.9597493e-09
-1.8324111e-11
6.9595564e-09
6.3200877e-13
6.9534918e-09
1.9606664e-11
6.9420062e-09
3.7124694e-11
6.9259063e-09
5.2035781e-11
6.9058384e-09
6.4859201e-11
6.8826582e-09
7.4916655e-11
6.8571448e-09
8.2456625e-11
6.8298602e-09
8.8180719e-11
6.8013999e-09
9.1980151e-11
6.7723202e-09
9.3981171e-11
6.7429287e-09
9.4988873e-11
6.7134107e-09
9.539797e-11
6.6840111e-09
9.5015153e-11
6.6549465e-09
9.3932055e-11
6.6262828e-09
9.2636429e-11
6.5979872e-09
9.1447043e-11
6.5700418e-09
9.031587e-11
6.5424571e-09
8.9150511e-11
6.5152864e-09
8.7812654e-11
6.4879642e-09
8.8304203e-11
6.4608881e-09
8.7509308e-11
6.4312478e-09
9.5805209e-11
6.4014822e-09
9.6213708e-11
6.3687534e-09
1.0575428e-10
6.2831366e-11
2.8985292e-06
6.2809228e-10
2.8982717e-06
1.6485448e-09
2.8979224e-06
2.2341773e-09
2.8975204e-06
2.5702059e-09
2.89706e-06
2.9441803e-09
2.8965341e-06
3.3630597e-09
2.8959365e-06
3.8214925e-09
2.8952588e-06
4.3341229e-09
2.8944896e-06
4.9202981e-09
2.8936143e-06
5.5997836e-09
2.8926147e-06
6.3957892e-09
2.8914674e-06
7.3420486e-09
2.8901422e-06
8.4817388e-09
2.8885964e-06
9.8960062e-09
2.8867758e-06
1.1656708e-08
2.8845836e-06
1.4039507e-08
2.8819277e-06
1.7013354e-08
2.8784927e-06
2.2010427e-08
2.8742401e-06
2.7256313e-08
2.867686e-06
4.2024761e-08
2.8596112e-06
5.1785958e-08
2.840296e-06
1.2389527e-07
2.8271196e-06
8.4234766e-08
1.4899446e-06
8.8293805e-06
1.0573868e-07
9.002732e-06
5.2066982e-08
1.8910581e-07
3.9451913e-08
4.4040839e-08
3.334855e-08
2.1302533e-08
2.9574339e-08
1.3170879e-08
2.6896039e-08
9.3464129e-09
2.4852299e-08
7.1320456e-09
2.32123e-08
5.7232708e-09
2.1855977e-08
4.7333331e-09
2.0708607e-08
4.004136e-09
1.9719307e-08
3.4525316e-09
1.8853306e-08
3.0222583e-09
1.8086176e-08
2.677223e-09
1.7399887e-08
2.395102e-09
1.6780661e-08
2.1610671e-09
1.6217829e-08
1.964256e-09
1.5702976e-08
1.7968166e-09
1.522929e-08
1.6531492e-09
1.479134e-08
1.5284368e-09
1.4384642e-08
1.4193655e-09
1.4005398e-08
1.3235548e-09
1.3650474e-08
1.2386795e-09
1.33172e-08
1.1631218e-09
1.3003301e-08
1.0955009e-09
1.270683e-08
1.03468e-09
1.2426101e-08
9.7974249e-10
1.2159642e-08
9.2994108e-10
1.1906165e-08
8.8463062e-10
1.1664542e-08
8.4326402e-10
1.1433777e-08
8.0536841e-10
1.1212993e-08
7.705315e-10
1.1001411e-08
7.3842215e-10
1.0798326e-08
7.087629e-10
1.0603112e-08
6.8129546e-10
1.0415206e-08
6.5579201e-10
1.02341e-08
6.320584e-10
1.0059339e-08
6.0991268e-10
9.8905179e-09
5.8918341e-10
9.7272697e-09
5.6973404e-10
9.5692571e-09
5.5146151e-10
9.4161729e-09
5.3426119e-10
9.2677424e-09
5.1801945e-10
9.1237208e-09
5.0263232e-10
8.9838883e-09
4.8801202e-10
8.8480498e-09
4.7407286e-10
8.7160388e-09
4.6071452e-10
8.5877167e-09
4.4783982e-10
8.4629679e-09
4.3536885e-10
8.3417003e-09
4.2321948e-10
8.2238456e-09
4.1130782e-10
8.1093598e-09
3.9955012e-10
7.9982265e-09
3.8784987e-10
7.8904676e-09
3.7607319e-10
7.7861698e-09
3.6399417e-10
7.6854804e-09
3.5140057e-10
7.5885889e-09
3.3814595e-10
7.4957365e-09
3.2404991e-10
7.4072188e-09
3.0892191e-10
7.3233974e-09
2.9253321e-10
7.2447514e-09
2.7447295e-10
7.1719282e-09
2.5415416e-10
7.1057401e-09
2.3100185e-10
7.0472689e-09
2.0407541e-10
6.9983245e-09
1.7083191e-10
6.9594613e-09
1.3565727e-10
6.9353148e-09
8.4297651e-11
6.9278301e-09
2.6155364e-11
6.9377582e-09
-3.4605609e-11
6.9703099e-09