/*--------------------------------*- C++ -*----------------------------------*\
| =========                 |                                                 |
| \\      /  F ield         | OpenFOAM: The Open Source CFD Toolbox           |
|  \\    /   O peration     | Version:  2206                                  |
|   \\  /    A nd           | Website:  www.openfoam.com                      |
|    \\/     M anipulation  |                                                 |
\*---------------------------------------------------------------------------*/
FoamFile
{
    version     2.0;
    format      ascii;
    arch        "LSB;label=32;scalar=64";
    class       volVectorField;
    location    "1500";
    object      U;
}
// * * * * * * * * * * * * * * * * * * * * * * * * * * * * * * * * * * * * * //

dimensions      [0 1 -1 0 0 0 0];

internalField   nonuniform List<vector> 
13056
(
(0.99999999 8.3799693e-10 5.0717656e-25)
(0.99993698 2.4938805e-09 0)
(0.99982721 3.8323795e-09 0)
(0.99970008 5.0006252e-09 0)
(0.99955463 6.4966209e-09 0)
(0.99938785 8.4130293e-09 0)
(0.99919787 1.0831897e-08 0)
(0.99898235 1.390964e-08 0)
(0.99873789 1.7862708e-08 0)
(0.99846008 2.2969408e-08 0)
(0.99814341 2.9595842e-08 0)
(0.99778097 3.8252907e-08 0)
(0.99736368 4.9632708e-08 0)
(0.99688 6.4837023e-08 0)
(0.99631231 8.5176519e-08 0)
(0.99564108 1.1385854e-07 0)
(0.99482032 1.5221998e-07 0)
(0.99383087 2.1568938e-07 0)
(0.99248218 2.8998281e-07 0)
(0.99092254 4.8053505e-07 0)
(0.9880259 6.2874784e-07 0)
(0.98536759 1.5759569e-06 0)
(0.97489778 1.1027265e-06 -5.1352822e-21)
(0.97622496 0.00012166533 8.8242959e-18)
(0.0030932107 0.0001220159 0)
(0.0012212863 7.2550386e-08 -1.227952e-20)
(0.00086986667 4.7655335e-08 4.0742179e-18)
(0.00071462275 6.0516802e-09 0)
(0.0006248156 3.7087373e-09 0)
(0.00056313323 2.6076652e-09 0)
(0.00051729876 1.9716274e-09 0)
(0.00048107842 1.5672258e-09 0)
(0.0004514428 1.2834702e-09 0)
(0.00042660978 1.07486e-09 0)
(0.00040536294 9.1726636e-10 0)
(0.00038687555 7.9448141e-10 0)
(0.00037057895 6.9615829e-10 0)
(0.00035606158 6.1588114e-10 0)
(0.00034301132 5.4937512e-10 0)
(0.00033118708 4.9351817e-10 0)
(0.00032040171 4.4604653e-10 0)
(0.00031050449 4.0536098e-10 3.5591464e-25)
(0.00030137239 3.7008759e-10 0)
(0.00029291048 3.3926702e-10 0)
(0.00028503382 3.1221858e-10 0)
(0.0002776746 2.8827663e-10 0)
(0.00027077483 2.6697772e-10 0)
(0.00026428527 2.4792813e-10 0)
(0.00025816381 2.3080443e-10 0)
(0.00025237431 2.1534516e-10 0)
(0.00024688521 2.0133619e-10 0)
(0.00024166894 1.8859383e-10 0)
(0.00023670139 1.7696279e-10 0)
(0.00023196128 1.6630954e-10 0)
(0.00022742993 1.5651855e-10 0)
(0.00022309083 1.4749578e-10 0)
(0.00021892909 1.3916158e-10 0)
(0.00021493139 1.3144334e-10 0)
(0.00021108583 1.2427744e-10 0)
(0.0002073817 1.1760941e-10 0)
(0.00020380935 1.1138934e-10 0)
(0.00020036015 1.055715e-10 0)
(0.00019702642 1.0011858e-10 0)
(0.00019380112 9.5000717e-11 0)
(0.00019067773 9.018902e-11 0)
(0.00018765044 8.5654476e-11 0)
(0.00018471403 8.1371083e-11 0)
(0.00018186387 7.7316776e-11 0)
(0.00017909577 7.347093e-11 0)
(0.00017640608 6.9811773e-11 0)
(0.00017379177 6.6319399e-11 0)
(0.00017125031 6.2977698e-11 0)
(0.00016877959 5.9771248e-11 0)
(0.00016637802 5.6685436e-11 0)
(0.00016404445 5.3706829e-11 0)
(0.00016177826 5.0821313e-11 0)
(0.00015957942 4.8011349e-11 0)
(0.00015744885 4.5249541e-11 0)
(0.00015538913 4.2513169e-11 0)
(0.00015340362 3.9790234e-11 0)
(0.00015149659 3.7066206e-11 0)
(0.00014967347 3.4327886e-11 0)
(0.00014794072 3.1560443e-11 0)
(0.00014630641 2.8732418e-11 0)
(0.00014478174 2.5799413e-11 0)
(0.00014338157 2.2725732e-11 0)
(0.00014212369 1.9448275e-11 0)
(0.00014103386 1.5759925e-11 0)
(0.0001401595 1.2132074e-11 0)
(0.00013947394 2.7385999e-11 0)
(0.00013919499 2.4786155e-12 -4.9330037e-25)
(0.00013917629 -2.8960319e-12 0)
(0.00013960007 -8.6558156e-12 0)
(0.0001404914 -1.4863365e-11 0)
(0.00014193434 -2.1510779e-11 0)
(0.00014399571 -2.8169542e-11 0)
(0.00014670335 -3.4200584e-11 0)
(0.00015002156 -3.936936e-11 0)
(0.00015393488 -4.3479078e-11 0)
(0.00015835515 -4.5167731e-11 0)
(0.00016297324 -4.2907135e-11 0)
(0.00016732745 -3.7582745e-11 0)
(0.00017119869 -1.1119926e-10 9.5016182e-21)
(0.00017409905 -2.1692781e-11 0)
(0.00017643032 -1.5803464e-11 0)
(0.00017810297 -1.0832187e-11 0)
(0.00017932655 -7.4585296e-12 0)
(0.00018020868 -5.0206172e-12 0)
(0.00018082541 -3.2249844e-12 0)
(0.00018122762 -1.8687922e-12 0)
(0.00018145 -8.3066325e-13 0)
(0.00018151824 2.8850393e-14 0)
(0.0001814345 7.6038509e-13 0)
(0.00018120146 1.410058e-12 0)
(0.00018083824 1.9796935e-12 0)
(0.00018036162 2.4697827e-12 0)
(0.00017979148 2.8541087e-12 0)
(0.00017915259 3.1421937e-12 0)
(0.00017846078 3.3611661e-12 0)
(0.00017772952 3.5065566e-12 0)
(0.00017697641 3.5831488e-12 0)
(0.00017621287 3.6218549e-12 0)
(0.0001754435 3.637771e-12 0)
(0.00017467335 3.6234026e-12 0)
(0.00017391016 3.5821893e-12 0)
(0.0001731575 3.5328955e-12 0)
(0.00017241522 3.4876737e-12 0)
(0.00017168173 3.444764e-12 0)
(0.00017095769 3.4004182e-12 0)
(0.000170243 3.3495304e-12 0)
(0.00016954054 3.3683862e-12 0)
(0.00016881781 3.3392196e-12 0)
(0.00016812823 3.6542774e-12 0)
(0.00016727111 1.3857519e-11 0)
(0.00016657524 3.9782955e-12 4.8276111e-24)
(0.00016556332 9.1352586e-12 0)
(0.99999999 2.5276924e-09 0)
(0.99993692 7.5236401e-09 0)
(0.99982702 1.1562694e-08 0)
(0.99969972 1.5087815e-08 0)
(0.99955408 1.9601494e-08 0)
(0.99938709 2.5383489e-08 0)
(0.99919686 3.2681336e-08 0)
(0.99898107 4.1966857e-08 0)
(0.99873631 5.3892986e-08 0)
(0.99845816 6.9299229e-08 0)
(0.9981411 8.9289902e-08 0)
(0.99777824 1.1540605e-07 0)
(0.99736047 1.4973524e-07 0)
(0.99687626 1.956007e-07 0)
(0.99630796 2.5695542e-07 0)
(0.99563603 3.4347342e-07 0)
(0.99481446 4.5918543e-07 0)
(0.99382408 6.5062649e-07 0)
(0.99247419 8.7470839e-07 0)
(0.99091324 1.449423e-06 0)
(0.98801442 1.8964358e-06 0)
(0.98535415 4.7533588e-06 0)
(0.97487681 3.3252811e-06 1.9061369e-20)
(0.97619906 0.00036567638 -7.114836e-21)
(0.0092908688 0.00036719435 0)
(0.0036818375 1.1972389e-06 0)
(0.0026225611 2.6850727e-07 3.8871471e-22)
(0.002154563 1.2683491e-07 0)
(0.0018837892 7.7703834e-08 0)
(0.0016978139 5.4641798e-08 0)
(0.0015596193 4.1310533e-08 0)
(0.0014504144 3.2836938e-08 0)
(0.0013610632 2.6891821e-08 0)
(0.0012861918 2.2520609e-08 0)
(0.0012221331 1.9218353e-08 0)
(0.0011663943 1.6645584e-08 0)
(0.0011172609 1.4585432e-08 0)
(0.0010734919 1.2903409e-08 0)
(0.0010341462 1.1509931e-08 0)
(0.00099849694 1.0339589e-08 0)
(0.00096597983 9.3450953e-09 0)
(0.00093614042 8.4926739e-09 -5.4149851e-25)
(0.00090860795 7.7535965e-09 -8.0259923e-25)
(0.00088309595 7.1078951e-09 0)
(0.0008593485 6.541129e-09 0)
(0.00083716107 6.0394928e-09 0)
(0.00081635886 5.593239e-09 0)
(0.0007967934 5.194117e-09 0)
(0.00077833777 4.83535e-09 0)
(0.00076088294 4.511457e-09 0)
(0.00074433379 4.2179505e-09 0)
(0.00072860722 3.9509832e-09 0)
(0.0007136305 3.7072997e-09 0)
(0.0006993395 3.4841035e-09 0)
(0.00068567791 3.2789748e-09 0)
(0.0006725959 3.0899406e-09 0)
(0.00066004864 2.9153322e-09 0)
(0.00064799595 2.7536291e-09 0)
(0.00063640194 2.6034985e-09 0)
(0.00062523435 2.4637984e-09 0)
(0.00061446402 2.3334837e-09 0)
(0.00060406501 2.2115967e-09 0)
(0.00059401411 2.0973544e-09 0)
(0.00058429011 1.9901311e-09 0)
(0.0005748734 1.8893218e-09 0)
(0.00056574636 1.7943184e-09 0)
(0.00055689335 1.7045762e-09 0)
(0.00054830036 1.6196325e-09 0)
(0.00053995479 1.5390553e-09 0)
(0.00053184561 1.462389e-09 0)
(0.0005239637 1.3892159e-09 0)
(0.00051630141 1.3191975e-09 0)
(0.00050885239 1.2520105e-09 0)
(0.00050161185 1.187349e-09 0)
(0.00049457633 1.1249304e-09 0)
(0.00048774396 1.0644597e-09 0)
(0.00048111463 1.0055682e-09 0)
(0.00047469114 9.4768231e-10 0)
(0.00046848127 8.903258e-10 0)
(0.00046249513 8.3324272e-10 0)
(0.00045674559 7.7613118e-10 0)
(0.00045124905 7.1871346e-10 0)
(0.00044602498 6.6067514e-10 0)
(0.00044109772 6.0135667e-10 0)
(0.00043650107 5.3982885e-10 0)
(0.00043227978 4.7533639e-10 0)
(0.00042848756 4.0653463e-10 0)
(0.00042520208 3.2921628e-10 0)
(0.00042256622 2.527267e-10 0)
(0.00042049989 1.5394132e-10 7.3825886e-25)
(0.0004196591 4.5323374e-11 1.5490523e-24)
(0.00041960343 -5.7559809e-11 0)
(0.00042088166 -1.8287442e-10 0)
(0.00042356962 -3.1301935e-10 0)
(0.00042792062 -4.5224832e-10 0)
(0.00043413604 -5.9153984e-10 0)
(0.00044229975 -7.1756169e-10 0)
(0.00045230412 -8.2556938e-10 0)
(0.00046410236 -9.1112773e-10 0)
(0.00047742838 -9.456255e-10 0)
(0.00049135033 -8.9747318e-10 0)
(0.00050447665 -7.8519694e-10 0)
(0.00051614668 -6.2598591e-10 -1.7730497e-24)
(0.00052489068 -4.5298115e-10 -2.2347113e-24)
(0.0005319186 -3.2967645e-10 0)
(0.00053696142 -2.2607614e-10 0)
(0.00054065037 -1.5562252e-10 0)
(0.00054331 -1.0471804e-10 0)
(0.00054516945 -6.7209383e-11 0)
(0.00054638218 -3.8871146e-11 0)
(0.00054705273 -1.7116035e-11 0)
(0.00054725854 5.658449e-13 0)
(0.00054700614 1.6086731e-11 0)
(0.00054630359 2.9670579e-11 0)
(0.00054520854 4.1580031e-11 0)
(0.00054377162 5.1823234e-11 0)
(0.00054205273 5.9856114e-11 0)
(0.00054012655 6.5878277e-11 0)
(0.00053804086 7.0451226e-11 0)
(0.00053583619 7.3485829e-11 0)
(0.00053356566 7.5083073e-11 0)
(0.00053126368 7.58878e-11 0)
(0.00052894413 7.6214999e-11 0)
(0.00052662223 7.5908814e-11 0)
(0.00052432132 7.5042711e-11 0)
(0.00052205214 7.4007662e-11 0)
(0.00051981427 7.3058132e-11 0)
(0.00051760292 7.2155329e-11 0)
(0.00051542004 7.1224835e-11 0)
(0.00051326536 7.0156434e-11 0)
(0.00051114757 7.0552727e-11 0)
(0.00050896873 6.9920111e-11 0)
(0.00050688973 7.6559152e-11 0)
(0.00050430606 7.8038779e-11 0)
(0.00050220809 8.4338151e-11 -7.4673992e-24)
(0.00049915724 5.1163205e-11 1.1570019e-24)
(0.99999999 4.2567336e-09 0)
(0.99993686 1.2671268e-08 0)
(0.99982681 1.9475385e-08 0)
(0.99969933 2.5413474e-08 0)
(0.99955348 3.3016155e-08 0)
(0.99938624 4.2754925e-08 0)
(0.99919574 5.5046702e-08 0)
(0.99897964 7.068604e-08 0)
(0.99873454 9.0772501e-08 0)
(0.99845601 1.1671983e-07 0)
(0.99813853 1.5038767e-07 0)
(0.99777519 1.9437106e-07 0)
(0.9973569 2.5218523e-07 0)
(0.99687208 3.2942613e-07 0)
(0.99630311 4.3274974e-07 0)
(0.99563041 5.7844583e-07 0)
(0.99480794 7.7329915e-07 0)
(0.99381652 1.0956677e-06 0)
(0.9924653 1.4729894e-06 0)
(0.99090289 2.4406882e-06 0)
(0.98800166 3.1933594e-06 0)
(0.98533921 8.0039509e-06 0)
(0.97485356 5.6017174e-06 -1.009875e-20)
(0.9761704 0.00061340932 6.7549999e-55)
(0.015590792 0.00061710342 -6.7526442e-55)
(0.0061970214 3.356337e-06 0)
(0.0044143334 7.6700672e-07 -2.0803027e-22)
(0.0036266569 3.6822321e-07 0)
(0.0031708671 2.255985e-07 0)
(0.0028578182 1.5864401e-07 0)
(0.0026251955 1.1993773e-07 0)
(0.0024413746 9.5335001e-08 0)
(0.0022909735 7.8074495e-08 0)
(0.0021649458 6.5383518e-08 0)
(0.0020571189 5.5795928e-08 0)
(0.0019632971 4.8326331e-08 0)
(0.0018805939 4.2345096e-08 0)
(0.0018069204 3.7461712e-08 0)
(0.0017406925 3.3416064e-08 0)
(0.0016806866 3.0018251e-08 0)
(0.0016259529 2.7130987e-08 0)
(0.0015757264 2.4656175e-08 0)
(0.0015293832 2.2510448e-08 0)
(0.0014864408 2.0635836e-08 0)
(0.0014464685 1.8990376e-08 0)
(0.0014091222 1.7534009e-08 0)
(0.0013741075 1.6238431e-08 0)
(0.0013411745 1.5079687e-08 0)
(0.0013101096 1.4038105e-08 0)
(0.0012807293 1.3097771e-08 0)
(0.0012528734 1.2245656e-08 0)
(0.0012264022 1.147059e-08 0)
(0.0012011931 1.0763123e-08 0)
(0.0011771382 1.0115134e-08 0)
(0.0011541427 9.5196008e-09 0)
(0.0011321229 8.9707931e-09 0)
(0.0011110031 8.463867e-09 0)
(0.0010907158 7.9944077e-09 0)
(0.0010712005 7.558546e-09 0)
(0.001052403 7.1529663e-09 0)
(0.0010342742 6.7746346e-09 0)
(0.0010167704 6.4207709e-09 0)
(0.00099985251 6.0891017e-09 0)
(0.00098348489 5.7778098e-09 0)
(0.00096763448 5.4851394e-09 0)
(0.00095227167 5.2093249e-09 0)
(0.00093737009 4.9487846e-09 0)
(0.0009229062 4.7021756e-09 0)
(0.00090885875 4.4682435e-09 0)
(0.00089520921 4.2456658e-09 0)
(0.0008819422 4.0332296e-09 0)
(0.00086904487 3.8299524e-09 0)
(0.0008565065 3.6348955e-09 0)
(0.00084431904 3.4471705e-09 0)
(0.00083247669 3.2659573e-09 0)
(0.00082097628 3.0903991e-09 0)
(0.00080981764 2.9194249e-09 0)
(0.00079900547 2.7513709e-09 0)
(0.00078855286 2.5848543e-09 0)
(0.00077847685 2.4191311e-09 0)
(0.0007687991 2.2533257e-09 0)
(0.00075954721 2.0866314e-09 0)
(0.00075075396 1.9181335e-09 0)
(0.00074246034 1.7459176e-09 0)
(0.00073472324 1.5672859e-09 0)
(0.00072761801 1.3800453e-09 0)
(0.00072123508 1.1802928e-09 0)
(0.0007157052 9.5580827e-10 0)
(0.00071126881 7.3377469e-10 0)
(0.00070779143 4.3982851e-10 1.5649266e-24)
(0.00070637648 1.3224454e-10 -8.2093672e-25)
(0.00070628369 -1.6765368e-10 0)
(0.00070843595 -5.3091086e-10 0)
(0.00071296123 -9.0874116e-10 0)
(0.00072028574 -1.3129409e-09 0)
(0.00073074837 -1.7173265e-09 0)
(0.0007444902 -2.0831953e-09 0)
(0.00076133007 -2.3967567e-09 0)
(0.00078118895 -2.6451137e-09 0)
(0.00080361865 -2.745265e-09 0)
(0.0008270508 -2.6055059e-09 0)
(0.00084914369 -2.2796379e-09 0)
(0.00086878514 -1.7885017e-09 0)
(0.00088350282 -1.3151688e-09 0)
(0.0008953316 -9.5723806e-10 0)
(0.00090381974 -6.5643521e-10 0)
(0.00091002912 -4.5187972e-10 0)
(0.00091450599 -3.0408056e-10 0)
(0.00091763603 -1.9517263e-10 0)
(0.00091967747 -1.1289296e-10 0)
(0.00092080633 -4.973253e-11 0)
(0.00092115287 1.6438068e-12 0)
(0.00092072813 4.6680941e-11 0)
(0.00091954568 8.6122718e-11 0)
(0.00091770253 1.2070193e-10 0)
(0.00091528395 1.504424e-10 0)
(0.00091239072 1.7376609e-10 0)
(0.00090914859 1.9125177e-10 0)
(0.00090563796 2.0452871e-10 0)
(0.00090192707 2.1334009e-10 0)
(0.00089810532 2.1797876e-10 0)
(0.00089423062 2.2031566e-10 0)
(0.00089032636 2.2126566e-10 0)
(0.00088641814 2.2037734e-10 0)
(0.00088254525 2.1786374e-10 0)
(0.00087872576 2.1485886e-10 0)
(0.00087495896 2.1210191e-10 0)
(0.00087123684 2.094804e-10 0)
(0.00086756263 2.067789e-10 0)
(0.0008639359 2.0367673e-10 0)
(0.00086037126 2.048258e-10 0)
(0.00085670396 2.0298534e-10 0)
(0.0008532046 2.2225956e-10 0)
(0.00084885637 2.2290697e-10 0)
(0.00084532503 2.4505113e-10 0)
(0.00084018979 1.4586262e-10 0)
(0.99999999 6.0512236e-09 1.0869067e-24)
(0.99993678 1.8015065e-08 0)
(0.99982657 2.7691157e-08 0)
(0.99969889 3.613525e-08 0)
(0.9995528 4.6945412e-08 0)
(0.99938529 6.0792501e-08 0)
(0.99919448 7.8269296e-08 0)
(0.99897804 1.005053e-07 0)
(0.99873256 1.2906361e-07 0)
(0.9984536 1.6595396e-07 0)
(0.99813565 2.1381988e-07 0)
(0.99777179 2.7635018e-07 0)
(0.9973529 3.5854154e-07 0)
(0.99686742 4.6834828e-07 0)
(0.99629769 6.1523074e-07 0)
(0.99562412 8.2234357e-07 0)
(0.99480064 1.0993267e-06 0)
(0.99380806 1.5575586e-06 0)
(0.99245536 2.0938855e-06 0)
(0.99089131 3.4693204e-06 0)
(0.9879874 4.5391181e-06 0)
(0.98532252 1.1376809e-05 0)
(0.97482764 7.9656029e-06 0)
(0.97613851 0.00086850243 -3.5241586e-55)
(0.022083874 0.00087555621 3.5229383e-55)
(0.0088042944 6.9201456e-06 0)
(0.006271882 1.5812965e-06 0)
(0.0051528442 7.5845722e-07 0)
(0.0045052308 4.6470334e-07 0)
(0.0040604335 3.2678792e-07 0)
(0.0037299071 2.4705633e-07 0)
(0.0034687264 1.96376e-07 0)
(0.0032550313 1.608216e-07 0)
(0.0030759668 1.3467989e-07 0)
(0.0029227632 1.1493056e-07 0)
(0.0027894591 9.9544109e-08 0)
(0.0026719528 8.7223602e-08 0)
(0.0025672764 7.7164567e-08 0)
(0.0024731789 6.8831155e-08 0)
(0.0023879219 6.1832202e-08 0)
(0.0023101557 5.5884938e-08 0)
(0.0022387933 5.0787202e-08 0)
(0.0021729487 4.6367362e-08 0)
(0.0021119358 4.2506025e-08 0)
(0.002055143 3.9116653e-08 0)
(0.0020020811 3.6116796e-08 0)
(0.001952332 3.3448136e-08 0)
(0.0019055407 3.1061335e-08 0)
(0.0018614036 2.8915866e-08 0)
(0.0018196599 2.697895e-08 0)
(0.0017800822 2.5223749e-08 0)
(0.0017424718 2.3627257e-08 0)
(0.0017066546 2.2170005e-08 0)
(0.0016724773 2.083527e-08 0)
(0.0016398053 1.9608583e-08 0)
(0.0016085194 1.8478142e-08 0)
(0.0015785124 1.743397e-08 0)
(0.0015496881 1.6466972e-08 0)
(0.0015219608 1.5569179e-08 0)
(0.0014952532 1.4733762e-08 0)
(0.0014694957 1.3954471e-08 0)
(0.0014446262 1.3225579e-08 0)
(0.0014205893 1.2542405e-08 0)
(0.0013973341 1.1901204e-08 0)
(0.0013748137 1.1298359e-08 0)
(0.0013529862 1.0730234e-08 0)
(0.001331814 1.0193571e-08 0)
(0.0013112636 9.6856042e-09 0)
(0.0012913049 9.2037492e-09 0)
(0.0012719115 8.7452819e-09 0)
(0.0012530617 8.3077046e-09 0)
(0.0012347371 7.8889928e-09 0)
(0.0012169225 7.4872131e-09 0)
(0.0011996064 7.1005356e-09 0)
(0.0011827807 6.7272704e-09 0)
(0.0011664408 6.3656527e-09 0)
(0.0011505865 6.0134765e-09 0)
(0.0011352245 5.667315e-09 0)
(0.0011203734 5.3243206e-09 0)
(0.0011060573 4.9829591e-09 0)
(0.0010923071 4.6414277e-09 0)
(0.0010791619 4.2980641e-09 0)
(0.0010666684 3.9509817e-09 0)
(0.0010548848 3.5962375e-09 0)
(0.001043892 3.228274e-09 0)
(0.001033797 2.8425726e-09 0)
(0.0010247284 2.4310926e-09 0)
(0.0010168719 1.9686756e-09 0)
(0.0010105691 1.5112848e-09 0)
(0.0010056293 9.0670836e-10 -8.5208847e-25)
(0.0010036193 2.7213318e-10 0)
(0.0010034886 -3.4548182e-10 0)
(0.0010065475 -1.0937978e-09 0)
(0.0010129781 -1.8720623e-09 0)
(0.0010233859 -2.7046121e-09 0)
(0.0010382521 -3.5375247e-09 0)
(0.0010577772 -4.2910937e-09 0)
(0.0010817037 -4.936904e-09 0)
(0.001109919 -5.4483362e-09 0)
(0.0011417859 -5.6544867e-09 0)
(0.0011750763 -5.3665449e-09 0)
(0.0012064638 -4.6953252e-09 0)
(0.0012343683 -3.6874782e-09 2.0462389e-24)
(0.0012552788 -2.7088836e-09 0)
(0.0012720843 -1.9716675e-09 0)
(0.0012841443 -1.352125e-09 0)
(0.0012929668 -9.3079332e-10 0)
(0.0012993279 -6.2636307e-10 0)
(0.0013037753 -4.0203383e-10 0)
(0.0013066761 -2.3255333e-10 0)
(0.0013082803 -1.0245137e-10 0)
(0.0013087729 3.3732993e-12 0)
(0.0013081696 9.614651e-11 0)
(0.0013064897 1.7739153e-10 0)
(0.0013038711 2.4861929e-10 0)
(0.0013004348 3.098787e-10 0)
(0.0012963242 3.5792215e-10 0)
(0.0012917179 3.9393944e-10 0)
(0.00128673 4.2128649e-10 0)
(0.0012814577 4.3943627e-10 0)
(0.0012760278 4.4899191e-10 0)
(0.0012705227 4.5380543e-10 0)
(0.0012649755 4.5576153e-10 0)
(0.0012594228 4.5393182e-10 0)
(0.0012539202 4.4875494e-10 0)
(0.0012484935 4.4256534e-10 0)
(0.0012431417 4.3688582e-10 0)
(0.0012378534 4.3148499e-10 0)
(0.0012326332 4.2591987e-10 0)
(0.0012274804 4.1952948e-10 0)
(0.0012224158 4.2189308e-10 0)
(0.0012172055 4.1809836e-10 0)
(0.0012122337 4.5779129e-10 0)
(0.0012060567 4.5954416e-10 0)
(0.0012010393 5.0496374e-10 0)
(0.0011937432 3.0041988e-10 0)
(0.99999999 7.9382524e-09 0)
(0.9999367 2.363591e-08 0)
(0.9998263 3.6334642e-08 0)
(0.99969839 4.7415911e-08 0)
(0.99955203 6.1600722e-08 0)
(0.99938422 7.9769999e-08 0)
(0.99919307 1.0270152e-07 0)
(0.99897625 1.3187701e-07 0)
(0.99873033 1.6934703e-07 0)
(0.9984509 2.1774802e-07 0)
(0.99813241 2.8054776e-07 0)
(0.99776796 3.6258513e-07 0)
(0.9973484 4.7041436e-07 0)
(0.99686217 6.1446928e-07 0)
(0.99629159 8.0715815e-07 0)
(0.99561706 1.0788529e-06 0)
(0.99479245 1.4421925e-06 0)
(0.99379856 2.0432698e-06 0)
(0.99244419 2.746761e-06 0)
(0.99087832 4.550814e-06 0)
(0.9879714 5.9539672e-06 0)
(0.9853038 1.4922691e-05 0)
(0.97479861 1.0452821e-05 0)
(0.97610285 0.0011345702 0)
(0.028862106 0.0011462331 0)
(0.011542474 1.204377e-05 0)
(0.0082228851 2.7436389e-06 0)
(0.0067558728 1.315407e-06 0)
(0.0059067683 8.0598359e-07 0)
(0.0053235833 5.6678491e-07 0)
(0.0048902176 4.2849592e-07 0)
(0.0045477802 3.4059252e-07 0)
(0.0042676034 2.7892676e-07 0)
(0.0040328311 2.3358658e-07 0)
(0.0038319659 1.9933305e-07 0)
(0.0036571916 1.7264664e-07 0)
(0.0035031304 1.51278e-07 0)
(0.0033658905 1.3383174e-07 0)
(0.0032425207 1.193784e-07 0)
(0.0031307417 1.0723955e-07 0)
(0.0030287839 9.6924803e-08 0)
(0.002935222 8.8083356e-08 0)
(0.0028488947 8.0417698e-08 0)
(0.0027689019 7.3720784e-08 0)
(0.0026944421 6.7842345e-08 0)
(0.0026248738 6.2639495e-08 0)
(0.002559649 5.8011067e-08 0)
(0.0024983019 5.3871485e-08 0)
(0.0024404348 5.0150465e-08 0)
(0.0023857057 4.6791154e-08 0)
(0.0023338164 4.3747004e-08 0)
(0.0022845062 4.0978112e-08 0)
(0.0022375472 3.8450713e-08 0)
(0.0021927382 3.6135803e-08 0)
(0.0021499028 3.4008288e-08 0)
(0.0021088846 3.2047701e-08 0)
(0.0020695431 3.0236733e-08 0)
(0.0020317523 2.8559614e-08 0)
(0.0019953997 2.7002521e-08 0)
(0.001960384 2.555361e-08 0)
(0.001926614 2.4202041e-08 0)
(0.0018940082 2.2937885e-08 0)
(0.001862494 2.1753019e-08 0)
(0.0018320046 2.064095e-08 0)
(0.0018024787 1.9595404e-08 0)
(0.0017738611 1.8610075e-08 0)
(0.0017461027 1.7679312e-08 0)
(0.0017191596 1.6798317e-08 0)
(0.0016929922 1.596261e-08 0)
(0.001667566 1.5167466e-08 0)
(0.0016428523 1.4408553e-08 0)
(0.0016188273 1.3682359e-08 0)
(0.0015954709 1.2985531e-08 0)
(0.0015727682 1.2314895e-08 0)
(0.0015507083 1.166752e-08 0)
(0.0015292854 1.1040345e-08 0)
(0.0015084992 1.0429544e-08 0)
(0.0014883583 9.8291738e-09 0)
(0.0014688872 9.2342967e-09 0)
(0.0014501176 8.6422499e-09 0)
(0.00143209 8.0499079e-09 0)
(0.0014148556 7.4543858e-09 0)
(0.0013984757 6.8524084e-09 0)
(0.0013830265 6.2371369e-09 0)
(0.0013686141 5.5989322e-09 0)
(0.001355379 4.929955e-09 0)
(0.0013434896 4.216259e-09 0)
(0.0013331895 3.4142293e-09 0)
(0.0013249267 2.620881e-09 0)
(0.0013184513 1.5731249e-09 0)
(0.0013158165 4.7166494e-10 0)
(0.0013156466 -5.9947988e-10 0)
(0.0013196582 -1.8973589e-09 0)
(0.0013280906 -3.2471552e-09 0)
(0.0013417372 -4.6910523e-09 0)
(0.001361229 -6.1355507e-09 0)
(0.0013868285 -7.4424325e-09 0)
(0.0014181984 -8.5623905e-09 0)
(0.0014551904 -9.4491878e-09 0)
(0.0014969685 -9.8065164e-09 0)
(0.0015406121 -9.3070409e-09 0)
(0.0015817609 -8.1429253e-09 0)
(0.0016183431 -6.3983978e-09 0)
(0.0016457578 -4.6980238e-09 0)
(0.0016677902 -3.419503e-09 0)
(0.0016836022 -2.3450796e-09 0)
(0.0016951695 -1.6143569e-09 0)
(0.0017035098 -1.086375e-09 0)
(0.0017093412 -6.9730618e-10 0)
(0.0017131448 -4.0336425e-10 0)
(0.0017152484 -1.7771483e-10 0)
(0.0017158946 5.8273902e-12 0)
(0.001715104 1.667353e-10 0)
(0.0017129018 3.0764787e-10 0)
(0.0017094687 4.3118484e-10 0)
(0.0017049637 5.3743078e-10 0)
(0.0016995746 6.2075668e-10 0)
(0.0016935354 6.8322482e-10 0)
(0.0016869961 7.3065334e-10 0)
(0.0016800838 7.6213184e-10 0)
(0.0016729649 7.7870631e-10 0)
(0.0016657473 7.8705477e-10 0)
(0.0016584747 7.9044637e-10 0)
(0.0016511947 7.8727325e-10 0)
(0.0016439805 7.7829584e-10 0)
(0.0016368658 7.6756076e-10 0)
(0.0016298492 7.5770926e-10 0)
(0.0016229159 7.4834072e-10 0)
(0.0016160719 7.3868786e-10 0)
(0.0016093164 7.2760405e-10 0)
(0.0016026765 7.3169692e-10 0)
(0.0015958458 7.2511235e-10 0)
(0.0015893274 7.9393151e-10 0)
(0.00158123 7.9733913e-10 0)
(0.0015746519 8.7599203e-10 -9.6196751e-24)
(0.0015650861 5.2097123e-10 1.4905048e-24)
(0.99999999 9.9464793e-09 0)
(0.99993661 2.9619507e-08 0)
(0.99982601 4.5538069e-08 0)
(0.99969783 5.9428206e-08 0)
(0.99955117 7.7206511e-08 0)
(0.99938301 9.9977966e-08 0)
(0.99919148 1.2871733e-07 0)
(0.99897422 1.6528114e-07 0)
(0.99872782 2.1223876e-07 0)
(0.99844785 2.7289358e-07 0)
(0.99812876 3.5159052e-07 0)
(0.99776363 4.5439222e-07 0)
(0.99734333 5.8951015e-07 0)
(0.99685625 7.7001632e-07 0)
(0.99628472 1.011455e-06 0)
(0.99560909 1.3518769e-06 0)
(0.9947832 1.8071086e-06 0)
(0.99378785 2.5601768e-06 0)
(0.9924316 3.4415193e-06 0)
(0.99086368 5.7015449e-06 0)
(0.98795337 7.4593114e-06 0)
(0.98528272 1.8695209e-05 0)
(0.97476598 1.3101531e-05 0)
(0.97606286 0.0014152756 0)
(0.036019661 0.0014330705 0)
(0.014452316 1.888113e-05 0)
(0.010296413 4.3197271e-06 0)
(0.0084596383 2.0711318e-06 0)
(0.0073963701 1.269104e-06 0)
(0.0066660943 8.9246417e-07 0)
(0.0061234199 6.7471113e-07 0)
(0.0056946172 5.3629303e-07 0)
(0.0053437799 4.3919385e-07 0)
(0.0050497982 3.6780133e-07 0)
(0.0047982759 3.1386534e-07 0)
(0.0045794257 2.7184472e-07 0)
(0.0043865127 2.381978e-07 0)
(0.0042146634 2.1072715e-07 0)
(0.0040601824 1.8796917e-07 0)
(0.0039202152 1.688556e-07 0)
(0.0037925462 1.5261432e-07 0)
(0.0036753902 1.386927e-07 1.5119083e-24)
(0.0035672937 1.2662255e-07 0)
(0.0034671287 1.1607791e-07 -8.9272432e-35)
(0.0033738923 1.0682187e-07 0)
(0.0032867809 9.8629646e-08 0)
(0.0032051082 9.1341885e-08 0)
(0.0031282912 8.4823849e-08 0)
(0.0030558317 7.8964871e-08 0)
(0.0029873016 7.3675429e-08 0)
(0.0029223273 6.8882229e-08 0)
(0.0028605826 6.452244e-08 0)
(0.0028017819 6.0542898e-08 0)
(0.0027456735 5.6897934e-08 0)
(0.0026920362 5.3548038e-08 0)
(0.0026406745 5.0460979e-08 0)
(0.0025914123 4.7609504e-08 0)
(0.0025440917 4.4968783e-08 0)
(0.0024985721 4.2517052e-08 0)
(0.0024547266 4.0235658e-08 0)
(0.0024124408 3.8107537e-08 0)
(0.0023716128 3.6117053e-08 0)
(0.0023321515 3.4251416e-08 0)
(0.0022939737 3.2500402e-08 0)
(0.0022570022 3.0854133e-08 0)
(0.0022211681 2.9302678e-08 0)
(0.0021864097 2.7837142e-08 0)
(0.0021526723 2.6449968e-08 0)
(0.0021199062 2.5134101e-08 0)
(0.0020880682 2.3882104e-08 0)
(0.0020571224 2.2687154e-08 0)
(0.0020270389 2.1543723e-08 0)
(0.0019977926 2.0446531e-08 0)
(0.0019693648 1.9390578e-08 0)
(0.001941742 1.8371249e-08 0)
(0.0019149167 1.7383725e-08 0)
(0.0018888886 1.642198e-08 0)
(0.0018636687 1.547666e-08 0)
(0.0018392875 1.4539989e-08 0)
(0.0018157846 1.3607772e-08 0)
(0.0017932108 1.2675089e-08 0)
(0.0017716303 1.1737395e-08 0)
(0.0017511197 1.0789528e-08 0)
(0.0017317747 9.82072e-09 0)
(0.001713728 8.8157925e-09 0)
(0.0016971555 7.7623981e-09 0)
(0.0016822682 6.6385778e-09 0)
(0.0016693714 5.3756834e-09 0)
(0.0016590255 4.1264081e-09 0)
(0.0016509184 2.4767561e-09 0)
(0.0016476199 7.4227143e-10 0)
(0.0016474089 -9.4438735e-10 0)
(0.0016524334 -2.9879619e-09 0)
(0.0016629938 -5.1133045e-09 0)
(0.0016800832 -7.3867381e-09 0)
(0.0017044914 -9.661081e-09 0)
(0.0017365473 -1.1718733e-08 0)
(0.0017758282 -1.3482005e-08 0)
(0.0018221478 -1.4878005e-08 0)
(0.0018744588 -1.5440336e-08 0)
(0.0019291044 -1.4653786e-08 0)
(0.0019806265 -1.2820866e-08 0)
(0.0020264305 -1.0074708e-08 0)
(0.0020607579 -7.3971343e-09 -1.6434324e-24)
(0.0020883453 -5.3841377e-09 0)
(0.0021081451 -3.6925187e-09 0)
(0.00212263 -2.5419714e-09 0)
(0.0021330742 -1.710641e-09 0)
(0.0021403769 -1.0980225e-09 0)
(0.0021451403 -6.3518702e-10 0)
(0.0021477751 -2.7987761e-10 0)
(0.0021485847 9.1327253e-12 0)
(0.0021475952 2.6250015e-10 0)
(0.002144838 4.8438386e-10 0)
(0.0021405395 6.7890524e-10 0)
(0.0021348988 8.4619712e-10 0)
(0.0021281509 9.7740125e-10 0)
(0.002120589 1.0757639e-09 0)
(0.0021124008 1.1504419e-09 0)
(0.0021037456 1.2000075e-09 0)
(0.0020948316 1.2261078e-09 0)
(0.0020857941 1.2392534e-09 0)
(0.0020766877 1.2445924e-09 0)
(0.0020675721 1.2395967e-09 0)
(0.0020585388 1.2254632e-09 0)
(0.00204963 1.2085601e-09 0)
(0.0020408442 1.1930465e-09 0)
(0.0020321627 1.1782928e-09 0)
(0.002023593 1.1630922e-09 0)
(0.002015134 1.1456394e-09 0)
(0.0020068199 1.1520725e-09 0)
(0.0019982671 1.1417025e-09 0)
(0.0019901051 1.2500176e-09 0)
(0.0019799675 1.2554003e-09 0)
(0.0019717306 1.3795015e-09 0)
(0.0019597526 8.2001074e-10 -8.5067736e-25)
(0.99999999 1.2106559e-08 0)
(0.99993651 3.6057675e-08 0)
(0.99982567 5.5443264e-08 0)
(0.99969719 7.2357495e-08 0)
(0.99955019 9.4003581e-08 0)
(0.99938165 1.2172812e-07 0)
(0.99918967 1.5671786e-07 0)
(0.99897192 2.012325e-07 0)
(0.99872498 2.5839941e-07 0)
(0.9984444 3.3223941e-07 0)
(0.99812463 4.2804077e-07 0)
(0.99775874 5.5318223e-07 0)
(0.99733758 7.1765741e-07 0)
(0.99684956 9.3737525e-07 0)
(0.99627694 1.2312515e-06 0)
(0.99560008 1.6455944e-06 0)
(0.99477274 2.1996536e-06 0)
(0.99377574 3.1161695e-06 0)
(0.99241737 4.188752e-06 0)
(0.99084712 6.9390156e-06 0)
(0.98793299 9.078031e-06 0)
(0.98525889 2.2751619e-05 0)
(0.97472919 1.5952627e-05 0)
(0.97601789 0.0017143845 0)
(0.043653937 0.0017401562 0)
(0.017577115 2.7886612e-05 0)
(0.012523362 6.4043946e-06 0)
(0.010289541 3.0709582e-06 0)
(0.0089962413 1.8818676e-06 0)
(0.0081079776 1.3233781e-06 0)
(0.0074478937 1.0004832e-06 0)
(0.0069263293 7.9522441e-07 0)
(0.0064995991 6.5124249e-07 0)
(0.0061420236 5.4537986e-07 0)
(0.0058360937 4.6540145e-07 0)
(0.0055699046 4.030918e-07 0)
(0.0053352639 3.5319938e-07 0)
(0.0051262436 3.1246551e-07 0)
(0.0049383485 2.7871971e-07 0)
(0.0047681071 2.5037797e-07 0)
(0.0046128238 2.2629543e-07 0)
(0.0044703275 2.0565225e-07 0)
(0.004338851 1.8775461e-07 0)
(0.004217021 1.7211922e-07 9.6298468e-35)
(0.0041036183 1.5839434e-07 0)
(0.0039976656 1.4624695e-07 0)
(0.0038983279 1.354407e-07 0)
(0.0038048963 1.2577581e-07 0)
(0.0037167646 1.1708817e-07 0)
(0.0036334121 1.0924503e-07 0)
(0.0035543846 1.0213772e-07 0)
(0.0034792852 9.5673074e-08 0)
(0.0034077666 8.9772252e-08 0)
(0.0033395226 8.4367542e-08 0)
(0.0032742842 7.9400357e-08 0)
(0.0032118135 7.4822907e-08 0)
(0.0031518964 7.0594778e-08 0)
(0.0030943409 6.6679152e-08 0)
(0.0030389759 6.3043757e-08 0)
(0.0029856471 5.9660938e-08 0)
(0.0029342153 5.6505391e-08 0)
(0.0028845567 5.3553933e-08 0)
(0.0028365604 5.0787597e-08 0)
(0.002790125 4.8191223e-08 0)
(0.002745157 4.5750163e-08 0)
(0.0027015723 4.3449691e-08 0)
(0.002659296 4.1276618e-08 0)
(0.0026182614 3.9219739e-08 0)
(0.0025784083 3.7268594e-08 0)
(0.002539684 3.5412154e-08 0)
(0.0025020448 3.3640305e-08 0)
(0.0024654544 3.1944847e-08 0)
(0.0024298824 3.0317948e-08 0)
(0.0023953058 2.8752199e-08 0)
(0.0023617083 2.7240754e-08 0)
(0.0023290808 2.5776466e-08 0)
(0.002297423 2.4350399e-08 0)
(0.002266748 2.2948688e-08 0)
(0.0022370932 2.1559801e-08 0)
(0.0022085068 2.0177515e-08 0)
(0.0021810503 1.8794537e-08 0)
(0.002154802 1.7404124e-08 0)
(0.002129855 1.5998613e-08 0)
(0.0021063257 1.4562035e-08 0)
(0.0020843757 1.3071886e-08 0)
(0.0020642189 1.150985e-08 0)
(0.0020461121 9.843367e-09 0)
(0.0020304264 7.9706841e-09 0)
(0.0020178436 6.1181239e-09 0)
(0.0020079844 3.671983e-09 0)
(0.0020039733 1.1000712e-09 0)
(0.0020037187 -1.401022e-09 0)
(0.0020098315 -4.4311726e-09 0)
(0.002022678 -7.5826162e-09 0)
(0.0020434655 -1.0953531e-08 0)
(0.0020731543 -1.4325743e-08 0)
(0.0021121444 -1.7376645e-08 0)
(0.0021599218 -1.9990948e-08 0)
(0.0022162589 -2.2060448e-08 0)
(0.0022798811 -2.2893825e-08 0)
(0.0023463417 -2.1727417e-08 0)
(0.0024090035 -1.9009682e-08 0)
(0.0024647107 -1.4937901e-08 0)
(0.0025064621 -1.0968156e-08 -1.9130889e-24)
(0.0025400156 -7.9834683e-09 0)
(0.0025640988 -5.4753368e-09 0)
(0.0025817176 -3.7693404e-09 0)
(0.0025944219 -2.5366603e-09 0)
(0.0026033051 -1.6282627e-09 0)
(0.0026090997 -9.4196244e-10 0)
(0.0026123052 -4.1509473e-10 0)