/*--------------------------------*- C++ -*----------------------------------*\
| =========                 |                                                 |
| \\      /  F ield         | OpenFOAM: The Open Source CFD Toolbox           |
|  \\    /   O peration     | Version:  2206                                  |
|   \\  /    A nd           | Website:  www.openfoam.com                      |
|    \\/     M anipulation  |                                                 |
\*---------------------------------------------------------------------------*/
FoamFile
{
    version     2.0;
    format      ascii;
    arch        "LSB;label=32;scalar=64";
    class       volScalarField;
    location    "2000";
    object      epsilon;
}
// * * * * * * * * * * * * * * * * * * * * * * * * * * * * * * * * * * * * * //

dimensions      [0 2 -3 0 0 0 0];

internalField   nonuniform List<scalar> 
13056
(
0.0070204106
0.0068424429
0.0067392569
0.0066844462
0.0066502908
0.0066262051
0.0066081534
0.0065941953
0.0065831899
0.0065743949
0.0065673054
0.0065615708
0.0065569483
0.0065532756
0.0065504607
0.0065484765
0.0065474007
0.0065473827
0.0065490503
0.0065528132
0.0065621908
0.0065855161
0.0065833171
0.0081114529
0.029564953
0.0017583146
0.004946028
0.00035256808
0.0018353875
0.00017267598
0.0010411605
0.00010738951
0.00069169382
0.00051952539
0.00049954072
0.00041445938
0.00037785485
0.00033091736
0.00029871799
0.00026848289
0.00024372542
0.00022196818
0.00020316441
0.00018665032
0.00017209571
0.0001591807
0.00014766178
0.00013733673
0.00012804032
0.00011963561
0.00011200789
0.00010506064
9.8712289e-05
9.289327e-05
8.7544248e-05
8.2614237e-05
7.8058937e-05
7.3839858e-05
6.9923515e-05
6.6280558e-05
6.2885156e-05
5.9714637e-05
5.6748966e-05
5.3970219e-05
5.1362436e-05
4.8911408e-05
4.6604408e-05
4.4429983e-05
4.2377813e-05
4.043868e-05
3.8604238e-05
3.6866832e-05
3.5219524e-05
3.3656038e-05
3.2170631e-05
3.0758072e-05
2.9413558e-05
2.8132702e-05
2.6911552e-05
2.5746374e-05
2.4633718e-05
2.3570465e-05
2.2553705e-05
2.1580752e-05
2.0649116e-05
1.9756487e-05
1.8900753e-05
1.8079958e-05
1.7292235e-05
1.6535854e-05
1.5809223e-05
1.5110843e-05
1.4439324e-05
1.3793358e-05
1.3171725e-05
1.257332e-05
1.1997071e-05
1.1441958e-05
1.0907052e-05
1.039147e-05
9.8943875e-06
9.4150232e-06
8.9526462e-06
8.5065922e-06
8.07621e-06
7.6608812e-06
7.2600364e-06
6.8731362e-06
6.4996609e-06
6.1391324e-06
5.7911054e-06
5.4550196e-06
5.1308398e-06
4.8262801e-06
4.5490553e-06
4.2974969e-06
4.0682325e-06
3.8587682e-06
3.6667563e-06
3.490209e-06
3.327403e-06
3.1768429e-06
3.0372262e-06
2.9074162e-06
2.78641e-06
2.6733077e-06
2.5673021e-06
2.4676436e-06
2.3736603e-06
2.2846061e-06
2.1999578e-06
2.1184536e-06
2.0405642e-06
1.9606415e-06
1.8928205e-06
1.7934618e-06
0.0070192784
0.0068412247
0.0067379838
0.0066831422
0.0066489672
0.0066248673
0.0066068048
0.006592838
0.0065818254
0.0065730242
0.0065659292
0.0065601893
0.0065555615
0.0065518832
0.006549062
0.0065470701
0.0065459844
0.0065459534
0.0065476008
0.0065513373
0.0065606543
0.0065839159
0.0065813405
0.0081092724
0.028984366
0.0017423733
0.0048557003
0.00034911445
0.0018061904
0.00017105502
0.0010259036
0.0001064415
0.00068217594
0.00051275997
0.00049302741
0.00040922587
0.0003731446
0.00032688434
0.00029513571
0.0002653207
0.00024090039
0.00021943562
0.00020088068
0.0001845822
0.00017021505
0.0001574643
0.00014609007
0.00013589317
0.00012671079
0.00011840799
0.00011087173
0.00010400689
9.7733033e-05
9.1981593e-05
8.669406e-05
8.1820156e-05
7.7316191e-05
7.31442e-05
6.9271151e-05
6.566809e-05
6.2309531e-05
5.9173103e-05
5.6239036e-05
5.3489638e-05
5.090916e-05
4.8483574e-05
4.620032e-05
4.4048087e-05
4.2016689e-05
4.009702e-05
3.8280842e-05
3.6560592e-05
3.4929421e-05
3.3381127e-05
3.1910038e-05
3.0510988e-05
2.9179231e-05
2.7910434e-05
2.6700692e-05
2.5546315e-05
2.4443893e-05
2.3390344e-05
2.2382795e-05
2.1418588e-05
2.0495263e-05
1.9610536e-05
1.8762321e-05
1.7948683e-05
1.7167777e-05
1.6417892e-05
1.5697453e-05
1.500498e-05
1.4339099e-05
1.3698513e-05
1.3082018e-05
1.2488522e-05
1.1916962e-05
1.1366332e-05
1.0835711e-05
1.0324227e-05
9.831065e-06
9.3554502e-06
8.8966607e-06
8.4540391e-06
8.026941e-06
7.6147547e-06
7.216917e-06
6.8328937e-06
6.4621711e-06
6.1042759e-06
5.7587673e-06
5.4250906e-06
5.1032121e-06
4.8007917e-06
4.525494e-06
4.2756685e-06
4.0479698e-06
3.839924e-06
3.6492017e-06
3.4738308e-06
3.3121014e-06
3.1625292e-06
3.0238219e-06
2.8948513e-06
2.7746218e-06
2.6622404e-06
2.5569057e-06
2.4578736e-06
2.3644768e-06
2.2759745e-06
2.1918468e-06
2.1108394e-06
2.0334242e-06
1.953967e-06
1.8865477e-06
1.7877781e-06
0.0070156869
0.0068373633
0.0067339517
0.0066790149
0.0066447793
0.006620636
0.0066025404
0.0065885475
0.0065775138
0.006568695
0.0065615849
0.0065558317
0.0065511916
0.0065475014
0.006544668
0.0065426629
0.0065415614
0.0065415109
0.0065431296
0.0065468297
0.0065560633
0.0065792452
0.0065761274
0.0081025819
0.028407893
0.0017264294
0.004764933
0.00034562435
0.0017767639
0.00016941349
0.0010105046
0.0001054805
0.00067256119
0.00050592149
0.00048644366
0.00040393383
0.00036838103
0.00032280468
0.00029151147
0.00026212091
0.00023804136
0.00021687223
0.00019856886
0.00018248839
0.00016831083
0.00015572621
0.00014449834
0.00013443108
0.00012536407
0.00011716439
0.0001097207
0.00010293925
9.6740804e-05
9.1057771e-05
8.5832485e-05
8.1015383e-05
7.6563394e-05
7.2439081e-05
6.8609872e-05
6.5047213e-05
6.1725967e-05
5.8624066e-05
5.5722008e-05
5.300234e-05
5.044952e-05
4.8049707e-05
4.5790508e-05
4.3660759e-05
4.1650405e-05
3.9750459e-05
3.7952786e-05
3.6249922e-05
3.4635102e-05
3.3102203e-05
3.1645626e-05
3.0260265e-05
2.8941438e-05
2.7684864e-05
2.6486686e-05
2.5343257e-05
2.4251209e-05
2.3207498e-05
2.2209286e-05
2.1253945e-05
2.0339047e-05
1.9462333e-05
1.8621742e-05
1.7815361e-05
1.7041367e-05
1.6298069e-05
1.5583911e-05
1.4897429e-05
1.4237264e-05
1.3602136e-05
1.2990852e-05
1.2402335e-05
1.1835533e-05
1.1289451e-05
1.0763178e-05
1.0255852e-05
9.7666672e-06
9.2948574e-06
8.8397084e-06
8.4005702e-06
7.9768054e-06
7.5678089e-06
7.1730236e-06
6.7919211e-06
6.4239931e-06
6.0687715e-06
5.7258203e-06
5.3945902e-06
5.075049e-06
4.7748015e-06
4.5014617e-06
4.2533967e-06
4.0272888e-06
3.8206843e-06
3.6312728e-06
3.4570975e-06
3.2964622e-06
3.1478943e-06
3.0101115e-06
2.8819942e-06
2.7625545e-06
2.6509061e-06
2.5462538e-06
2.4478587e-06
2.3550586e-06
2.2671177e-06
2.1835198e-06
2.1030181e-06
2.0260854e-06
1.9471038e-06
1.880094e-06
1.7819246e-06
0.0070095231
0.0068307372
0.0067270332
0.0066719339
0.0066375946
0.0066133773
0.0065952254
0.0065811883
0.0065701189
0.0065612708
0.0065541358
0.0065483612
0.0065437018
0.0065399938
0.006537143
0.0065351198
0.006533998
0.0065339236
0.0065355083
0.0065391665
0.0065483042
0.0065714029
0.0065676352
0.0080913239
0.027827815
0.0017102657
0.0046724939
0.00034204899
0.0017467039
0.00016772832
0.00099475056
0.00010449286
0.00066271609
0.00049891448
0.00047969773
0.0003985093
0.00036349756
0.00031862126
0.00028779449
0.00025883865
0.00023510822
0.00021424199
0.00019619644
0.00018033942
0.0001663562
0.00015394192
0.00014286414
0.00013292983
0.00012398114
0.00011588725
0.00010853851
0.00010184263
9.5721547e-05
9.0108708e-05
8.4947301e-05
8.0188495e-05
7.578985e-05
7.1714476e-05
6.7930269e-05
6.4409086e-05
6.1126146e-05
5.8059694e-05
5.5190502e-05
5.250136e-05
4.9976941e-05
4.7603596e-05
4.5369101e-05
4.3262444e-05
4.1273705e-05
3.9394016e-05
3.7615351e-05
3.5930345e-05
3.4332322e-05
3.281524e-05
3.137357e-05
3.0002276e-05
2.8696734e-05
2.7452718e-05
2.6266423e-05
2.5134244e-05
2.4052857e-05
2.3019256e-05
2.203064e-05
2.1084413e-05
2.0178176e-05
1.9309697e-05
1.8476943e-05
1.7678022e-05
1.6911134e-05
1.6174609e-05
1.5466908e-05
1.4786585e-05
1.4132299e-05
1.3502782e-05
1.2896859e-05
1.2313461e-05
1.1751552e-05
1.1210148e-05
1.0688348e-05
1.0185299e-05
9.7002057e-06
9.2323104e-06
8.7809073e-06
8.3453535e-06
7.9250189e-06
7.5193053e-06
7.1276616e-06
6.7495656e-06
6.3845147e-06
6.0320458e-06
5.6917278e-06
5.3630172e-06
5.0458832e-06
4.7478741e-06
4.4765512e-06
4.2303003e-06
4.0058317e-06
3.8007126e-06
3.6126519e-06
3.439709e-06
3.2802017e-06
3.1326693e-06
2.9958396e-06
2.8686023e-06
2.7499773e-06
2.639085e-06
2.5351365e-06
2.4373987e-06
2.3452143e-06
2.2578529e-06
2.1748019e-06
2.0948224e-06
2.0183877e-06
1.9398991e-06
1.8733126e-06
1.7757637e-06
0.00700061
0.0068211558
0.0067170292
0.0066616948
0.0066272059
0.0066028816
0.0065846485
0.0065705478
0.0065594271
0.0065505369
0.0065433667
0.0065375618
0.0065328758
0.0065291435
0.0065262695
0.0065242231
0.006523076
0.0065229729
0.006524518
0.0065281284
0.0065371566
0.0065601679
0.0065556338
0.0080751977
0.027237113
0.0016936785
0.0045772038
0.00033834042
0.0017156179
0.00016597664
0.00097843337
0.00010346503
0.0006525096
0.00049164495
0.00047269928
0.00039287932
0.00035842849
0.00031427764
0.00028393457
0.00025542948
0.00023206119
0.00021150921
0.00019373116
0.00017810604
0.00016432455
0.0001520871
0.00014116515
0.00013136888
0.00012254308
0.00011455906
0.00010730895
0.00010070195
9.4661252e-05
8.9121347e-05
8.4026315e-05
7.932809e-05
7.4984886e-05
7.0960376e-05
6.7222945e-05
6.3744875e-05
6.0501756e-05
5.7472158e-05
5.4637136e-05
5.1979734e-05
4.9484847e-05
4.7139024e-05
4.493022e-05
4.2847579e-05
4.088132e-05
3.90227e-05
3.7263807e-05
3.5597377e-05
3.4016827e-05
3.2516198e-05
3.1090037e-05
2.9733377e-05
2.8441657e-05
2.7210709e-05
2.6036778e-05
2.4916306e-05
2.3846012e-05
2.2822934e-05
2.1844304e-05
2.0907562e-05
2.001034e-05
1.9150435e-05
1.8325837e-05
1.7534683e-05
1.6775193e-05
1.6045718e-05
1.5344741e-05
1.4670832e-05
1.4022666e-05
1.3398993e-05
1.2798652e-05
1.2220587e-05
1.1663775e-05
1.1127242e-05
1.0610102e-05
1.0111509e-05
9.6306789e-06
9.1668626e-06
8.7193629e-06
8.2875447e-06
7.8707853e-06
7.4684936e-06
7.0801252e-06
6.7051638e-06
6.3431128e-06
5.9935146e-06
5.655943e-06
5.3298606e-06
5.015238e-06
4.7195645e-06
4.4503465e-06
4.2059889e-06
3.9832316e-06
3.7796633e-06
3.5930132e-06
3.4213574e-06
3.2630281e-06
3.1165772e-06
2.9807435e-06
2.8544257e-06
2.7366518e-06
2.6265498e-06
2.5233371e-06
2.4262865e-06
2.3347458e-06
2.2479905e-06
2.1655116e-06
2.0860786e-06
2.0101649e-06
1.932194e-06
1.866051e-06
1.769152e-06
0.0069887079
0.0068083611
0.0067036698
0.0066480212
0.0066133325
0.0065888653
0.0065705238
0.006556338
0.0065451492
0.0065362031
0.0065289862
0.0065231415
0.0065184207
0.006514657
0.0065117536
0.0065096783
0.0065085007
0.0065083634
0.0065098628
0.0065134189
0.0065223225
0.0065452421
0.0065398138
0.0080537989
0.026629415
0.0016764764
0.004477928
0.00033445111
0.0016831222
0.00016413557
0.00096134791
0.00010238332
0.00064181198
0.00048401957
0.00046535854
0.00038697126
0.00035310834
0.00030971749
0.00027988155
0.00025184901
0.00022886053
0.00020863813
0.00019114074
0.00017575894
0.00016218916
0.00015013731
0.00013937895
0.00012972763
0.00012103086
0.00011316222
0.00010601571
9.9502069e-05
9.3545814e-05
8.8082534e-05
8.3057244e-05
7.8422677e-05
7.4137734e-05
7.0166681e-05
6.6478414e-05
6.3045661e-05
5.9844403e-05
5.6853548e-05
5.4054451e-05
5.143042e-05
4.8966586e-05
4.6649704e-05
4.4467916e-05
4.2410531e-05
4.0467914e-05
3.8631455e-05
3.6893358e-05
3.5246468e-05
3.3684299e-05
3.2200979e-05
3.0791134e-05
2.944987e-05
2.8172694e-05
2.6955497e-05
2.5794576e-05
2.4686424e-05
2.3627804e-05
2.26158e-05
2.1647681e-05
2.0720923e-05
1.9833189e-05
1.8982309e-05
1.8166299e-05
1.7383321e-05
1.663162e-05
1.5909569e-05
1.5215671e-05
1.4548516e-05
1.3906796e-05
1.3289279e-05
1.2694816e-05
1.2122369e-05
1.1570926e-05
1.1039527e-05
1.0527295e-05
1.0033398e-05
9.5570599e-06
9.0975424e-06
8.654157e-06
8.2262765e-06
7.8132861e-06
7.4146023e-06
7.0296875e-06
6.6580319e-06
6.299145e-06
5.952575e-06
5.617901e-06
5.2945919e-06
4.9826197e-06
4.6894116e-06
4.4224159e-06
4.1800576e-06
3.9591075e-06
3.7571773e-06
3.5720173e-06
3.4017214e-06
3.2446371e-06
3.0993293e-06
2.9645482e-06
2.8392024e-06
2.7223286e-06
2.6130623e-06
2.5106279e-06
2.4143043e-06
2.3234448e-06
2.2373308e-06
2.1554575e-06
2.0766033e-06
2.0012411e-06
1.9238203e-06
1.8581476e-06
1.7619375e-06
0.0069735167
0.0067920301
0.0066866169
0.0066305667
0.0065956223
0.0065709725
0.0065524925
0.0065381982
0.0065269223
0.0065179051
0.0065106289
0.0065047337
0.0064999691
0.0064961663
0.0064932266
0.0064911162
0.0064899019
0.0064897246
0.0064911715
0.0064946662
0.006503429
0.0065262519
0.0065197888
0.0080266245
0.025998967
0.0016584796
0.0043735733
0.00033033353
0.0016488401
0.000162182
0.00094329098
0.00010123387
0.00063049402
0.00047594504
0.00045758577
0.00038071233
0.00034747143
0.00030488425
0.00027558503
0.00024805254
0.00022546617
0.00020559272
0.00018839257
0.00017326851
0.00015992302
0.00014806785
0.00013748286
0.00012798518
0.00011942521
0.0001116789
0.00010464223
9.8227607e-05
9.2360912e-05
8.6978908e-05
8.2027603e-05
7.7460572e-05
7.3237447e-05
6.9323117e-05
6.5687023e-05
6.2302364e-05
5.9145535e-05
5.6195804e-05
5.3434842e-05
5.0846238e-05
4.8415371e-05
4.6129217e-05
4.3976115e-05
4.1945549e-05
4.0028039e-05
3.8215113e-05
3.6499103e-05
3.4872967e-05
3.3330322e-05
3.1865388e-05
3.0472876e-05
2.9147969e-05
2.7886244e-05
2.6683657e-05
2.5536562e-05
2.44415e-05
2.3395287e-05
2.2395051e-05
2.1438103e-05
2.0521956e-05
1.9644309e-05
1.8803021e-05
1.799614e-05
1.7221855e-05
1.6478435e-05
1.5764279e-05
1.5077908e-05
1.4417936e-05
1.3783071e-05
1.31721e-05
1.2583891e-05
1.201742e-05
1.1471688e-05
1.094575e-05
1.0438742e-05
9.9498418e-06
9.4782847e-06
9.0233427e-06
8.5843367e-06
8.1606484e-06
7.751671e-06
7.3568292e-06
6.9755925e-06
6.607458e-06
6.2519419e-06
5.9085984e-06
5.5770122e-06
5.2566589e-06
4.947512e-06
4.6569326e-06
4.392307e-06
4.1520812e-06
3.9330591e-06
3.7328767e-06
3.5493069e-06
3.3804625e-06
3.2247071e-06
3.0806198e-06
2.9469629e-06
2.8226554e-06
2.7067431e-06
2.5983697e-06
2.4967669e-06
2.4012204e-06
2.3110891e-06
2.2256609e-06
2.1444353e-06
2.0662003e-06
1.9914282e-06
1.9145978e-06
1.8494288e-06
1.7539566e-06
0.0069546773
0.0067717763
0.0066654659
0.0066089163
0.0065736542
0.0065487774
0.0065301252
0.006515696
0.0065043121
0.0064952066
0.006487857
0.0064818996
0.0064770811
0.0064732304
0.0064702468
0.0064680942
0.0064668368
0.006466613
0.0064679997
0.0064714251
0.0064800291
0.0065027504
0.0064950965
0.007993077
0.025340651
0.0016395204
0.0042630895
0.00032594001
0.0016124014
0.00016009251
0.0009240609
0.00010000255
0.00061842666
0.00046732778
0.0004492909
0.00037402931
0.00034145163
0.00029972086
0.00027099408
0.00024399489
0.00022183756
0.00020233648
0.00018545359
0.00017060469
0.00015749871
0.0001458536
0.00013545381
0.00012612028
0.00011770648
0.00011009091
0.00010317165
9.6862867e-05
9.1091921e-05
8.5796822e-05
8.0924632e-05
7.6429828e-05
7.2272819e-05
6.8419164e-05
6.4838883e-05
6.1505678e-05
5.8396386e-05
5.5490659e-05
5.2770506e-05
5.0219816e-05
4.7824233e-05
4.5570968e-05
4.3448574e-05
4.1446717e-05
3.9556087e-05
3.7768358e-05
3.6075998e-05
3.4472085e-05
3.2950347e-05
3.1505103e-05
3.0131155e-05
2.8823767e-05
2.7578593e-05
2.6391657e-05
2.5259372e-05
2.4178335e-05
2.3145414e-05
2.2157787e-05
2.121281e-05
2.0308035e-05
1.9441197e-05
1.8610191e-05
1.7813095e-05
1.7048128e-05
1.6313586e-05
1.5607892e-05
1.4929593e-05
1.4277321e-05
1.3649809e-05
1.3045858e-05
1.2464356e-05
1.1904294e-05
1.136469e-05
1.0844611e-05
1.0343206e-05
9.8596685e-06
9.3932423e-06
8.9432112e-06
8.5089063e-06
8.0897184e-06
7.6850498e-06
7.2943336e-06
6.9170472e-06
6.552695e-06
6.2008002e-06
5.8609236e-06
5.5326558e-06
5.2154796e-06
4.9093703e-06
4.6216177e-06
4.3595413e-06
4.1216097e-06
3.9046621e-06
3.7063607e-06
3.5245026e-06
3.3572208e-06
3.2028965e-06
3.0601236e-06
2.9276775e-06
2.8044886e-06
2.6896124e-06
2.5822013e-06
2.4814951e-06
2.3867863e-06
2.2974403e-06
2.2127518e-06
2.1322251e-06
2.0546586e-06
1.9805231e-06
1.9043318e-06
1.8397071e-06
1.7450322e-06
0.0069317733
0.0067471512
0.0066397472
0.0065825886
0.0065469389
0.0065217852
0.0065029232
0.0064883296
0.006476814
0.0064676011
0.0064601622
0.0064541293
0.0064492456
0.0064453373
0.0064423011
0.0064400985
0.0064387905
0.006438513
0.0064398312
0.0064431787
0.0064516041
0.0064742186
0.0064652003
0.0079524704
0.024650031
0.0016194443
0.0041454773
0.00032122261
0.001573444
0.00015784328
0.00090345786
9.8674842e-05
0.00060548106
0.00045807392
0.00044038348
0.00036684846
0.00033498224
0.00029416966
0.00026605721
0.00023963027
0.00021793356
0.00019883232
0.00018229021
0.0001677369
0.00015488831
0.00014346896
0.00013326827
0.00012411122
0.00011585461
0.00010837965
0.0001015867
9.5391782e-05
8.9723863e-05
8.4522283e-05
7.9735242e-05
7.5318183e-05
7.1232349e-05
6.7444017e-05
6.392383e-05
6.0646033e-05
5.7587936e-05
5.4729603e-05
5.2053407e-05
4.9543558e-05
4.7185988e-05
4.4968159e-05
4.2878851e-05
4.0907932e-05
3.9046268e-05
3.7285696e-05
3.5618826e-05
3.4038867e-05
3.2539666e-05
3.111565e-05
2.9761715e-05
2.8473217e-05
2.724589e-05
2.6075831e-05
2.495952e-05
2.3893608e-05
2.2875023e-05
2.1900998e-05
2.0968935e-05
2.0076428e-05
1.9221252e-05
1.840134e-05
1.7614804e-05
1.6859891e-05
1.6134931e-05
1.5438371e-05
1.4768784e-05
1.4124827e-05
1.3505251e-05
1.2908881e-05
1.2334621e-05
1.1781481e-05
1.1248494e-05
1.0734744e-05
1.0239394e-05
9.7616491e-06
9.300767e-06
8.8560429e-06
8.4268189e-06
8.0124957e-06
7.6124854e-06
7.2262302e-06
6.8532157e-06
6.4929544e-06
6.1449772e-06
5.8088517e-06
5.4841751e-06
5.1704379e-06
4.8676172e-06
4.5829256e-06
4.3236105e-06
4.0881643e-06
3.8734647e-06
3.677202e-06
3.4971993e-06
3.3316117e-06
3.1788392e-06
3.037492e-06
2.9063596e-06
2.7843844e-06
2.6706326e-06
2.5642662e-06
2.4645333e-06
2.3707343e-06
2.2822413e-06
2.1983565e-06
2.1185892e-06
2.0417493e-06
1.9683059e-06
1.8928113e-06
1.8287789e-06
1.7349717e-06
0.0069043324
0.0067176462
0.0066089278
0.0065510367
0.0065149209
0.0064894344
0.0064703199
0.0064555288
0.006443855
0.006434513
0.006426967
0.0064208436
0.006415882
0.0064119051
0.0064088066
0.0064065454
0.0064051785
0.0064048391
0.0064060794
0.0064093395
0.0064175645
0.0064400669
0.0064294911
0.0079040355
0.023923433
0.0015981133
0.0040198017
0.00031613322
0.001531617
0.00015541007
0.00088128514
9.7235908e-05
0.00059152923
0.00044808962
0.00043077307
0.00035909577
0.0003279962
0.00028817256
0.00026072241
0.0002349124
0.00021371254
0.00019504264
0.00017886829
0.00016463406
0.00015206336
0.00014088785
0.00013090222
0.00012193585
0.00011384911
0.00010652613
9.9869697e-05
9.3797896e-05
8.8241381e-05
8.3140942e-05
7.8445999e-05
7.4113041e-05
7.0104212e-05
6.6386563e-05
6.2931408e-05
5.9713577e-05
5.6710892e-05
5.3903864e-05
5.1275256e-05
4.8809628e-05
4.6493218e-05
4.4313764e-05
4.226029e-05
4.032288e-05
3.8492594e-05
3.676144e-05
3.5122185e-05
3.3568181e-05
3.2093401e-05
3.0692387e-05
2.9360143e-05
2.8092117e-05
2.6884135e-05
2.5732373e-05
2.4633378e-05
2.3583864e-05
2.2580824e-05
2.1621549e-05
2.0703489e-05
1.9824287e-05
1.8981761e-05
1.8173883e-05
1.7398801e-05
1.6654798e-05
1.5940233e-05
1.5253585e-05
1.4593453e-05
1.3958519e-05
1.3347558e-05
1.2759416e-05
1.2193019e-05
1.1647395e-05
1.1121594e-05
1.0614717e-05
1.0125942e-05
9.6544902e-06
9.1996313e-06
8.7606736e-06
8.3369711e-06
7.9279353e-06
7.5329887e-06
7.1515834e-06
6.7832142e-06
6.4274021e-06
6.0836862e-06
5.7516419e-06
5.4308732e-06
5.120879e-06
4.8216385e-06
4.5402803e-06
4.2839727e-06
4.0512344e-06
3.8389844e-06
3.6449436e-06
3.4669637e-06
3.3032234e-06
3.1521433e-06
3.0123512e-06
2.882652e-06
2.7620012e-06
2.6494768e-06
2.5442508e-06
2.4455808e-06
2.3527754e-06
2.2652142e-06
2.1822075e-06
2.1032702e-06
2.0272249e-06
1.954538e-06
1.8798069e-06
1.8164229e-06
1.7235652e-06
0.0068718277
0.0066826939
0.0065724128
0.0065136502
0.0064769799
0.0064510972
0.0064316825
0.0064166564
0.0064047944
0.006395299
0.0063876258
0.0063813951
0.0063763413
0.0063722835
0.0063691117
0.006366782
0.006365347
0.0063649366
0.0063660888
0.0063692507
0.0063772515
0.0063996362
0.0063872878
0.0078469264
0.023158046
0.001575409
0.0038852131
0.00031062374
0.0014865855
0.0001527683
0.0008573514
9.5670555e-05
0.00057644521
0.00043728183
0.00042036985
0.00035069742
0.00032042654
0.00028167135
0.00025493749
0.00022979471
0.00020913252
0.00019092949
0.00017515334
0.0001612647
0.00014899506
0.00013808378
0.00012833127
0.00011957164
0.00011166909
0.00010451094
9.8002622e-05
9.2064399e-05
8.6628779e-05
8.1638114e-05
7.7043147e-05
7.2801498e-05
6.8876284e-05
6.5235396e-05
6.1850874e-05
5.8698183e-05
5.5755698e-05
5.3004414e-05
5.0427519e-05
4.8009949e-05
4.5738276e-05
4.3600535e-05
4.1586018e-05
3.968504e-05
3.7888872e-05
3.6189709e-05
3.4580487e-05
3.3054712e-05
3.1606496e-05
3.0230505e-05
2.8921858e-05
2.7676108e-05
2.6489177e-05
2.5357325e-05
2.4277177e-05
2.3245511e-05
2.2259392e-05
2.1316173e-05
2.0413361e-05
1.9548646e-05
1.8719894e-05
1.7925121e-05
1.7162515e-05
1.6430395e-05
1.5727155e-05
1.5051305e-05
1.4401475e-05
1.3776373e-05
1.3174801e-05
1.2595628e-05
1.2037802e-05
1.1500371e-05
1.0982405e-05
1.0483023e-05
1.000142e-05
9.5368312e-06
9.088543e-06
8.6558767e-06
8.2381993e-06
7.834934e-06
7.4455147e-06
7.0694043e-06
6.7061075e-06
6.3551546e-06
6.0160937e-06
5.6885083e-06
5.3720102e-06
5.0661073e-06
4.7707809e-06
4.4930681e-06
4.2400506e-06
4.0102751e-06
3.8007058e-06
3.6090971e-06
3.4333319e-06
3.2716145e-06
3.1223881e-06
2.9842999e-06
2.8561711e-06
2.736972e-06
2.625793e-06
2.5218175e-06
2.4243131e-06
2.3325977e-06
2.2460589e-06
2.164016e-06
2.0859898e-06
2.010817e-06
1.9389608e-06
1.86507e-06
1.8023987e-06
1.7105848e-06
0.0068336795
0.00664167
0.0065295471
0.0064697563
0.0064324318
0.0064060819
0.0063863131
0.0063710097
0.0063589259
0.0063492496
0.0063414266
0.0063350696
0.0063299075
0.0063257547
0.0063224976
0.0063200883
0.0063185746
0.0063180832
0.0063191357
0.006322188
0.006329938
0.0063521997
0.0063378392
0.0077802269
0.02235205
0.0015512383
0.003740975
0.00030464656
0.001438039
0.00014989323
0.00083147412
9.3963318e-05
0.00056010699
0.00042555953
0.00040908586
0.00034158071
0.00031220709
0.00027460835
0.0002486506
0.00022423082
0.00020415159
0.0001864549
0.00017111078
0.00015759719
0.00014565442
0.00013503009
0.0001255308
0.00011699579
0.00010929344
0.00010231447
9.5967185e-05
9.0174227e-05
8.4870105e-05
7.9998863e-05
7.551268e-05
7.1370399e-05
6.7536196e-05
6.397887e-05
6.0671252e-05
5.7589494e-05
5.4712573e-05
5.2022007e-05
4.9501445e-05
4.7136235e-05
4.491331e-05
4.2821026e-05
4.0848967e-05
3.8987702e-05
3.7228727e-05
3.5564444e-05
3.3987969e-05
3.2492978e-05
3.1073732e-05
2.9725035e-05
2.8442128e-05
2.722068e-05
2.6056717e-05
2.4946592e-05
2.3887011e-05
2.2874824e-05
2.1907174e-05
2.0981483e-05
2.0095316e-05
1.9246419e-05
1.8432709e-05
1.7652248e-05
1.6903268e-05
1.6184127e-05
1.5493258e-05
1.4829207e-05
1.4190633e-05
1.3576276e-05
1.2984965e-05
1.2415595e-05
1.1867139e-05
1.1338666e-05
1.0829267e-05
1.0338082e-05
9.8643226e-06
9.4072426e-06
8.9661434e-06
8.5403616e-06
8.1292784e-06
7.7323298e-06
7.348962e-06
6.9786496e-06
6.6209081e-06
6.2752781e-06
5.9413175e-06
5.6186187e-06
5.3068018e-06
5.0053846e-06
4.7143508e-06
4.4406369e-06
4.1912295e-06
3.9647058e-06
3.7580795e-06
3.5691414e-06
3.3958084e-06
3.2363134e-06
3.0891239e-06
2.952908e-06
2.8265057e-06
2.7089027e-06
2.5992033e-06
2.4966034e-06
2.4003815e-06
2.3098656e-06
2.2244522e-06
2.1434704e-06
2.0664477e-06
1.9922361e-06
1.921295e-06
1.8483319e-06
1.7864465e-06
1.6957836e-06
0.0067892569
0.0065938951
0.006479617
0.006418622
0.0063805312
0.006353634
0.0063334504
0.0063178223
0.0063054787
0.0062955908
0.0062875924
0.0062810879
0.0062757994
0.006271536
0.0062681797
0.0062656784
0.0062640745
0.0062634908
0.0062644308
0.0062673605
0.006274831
0.0062969643
0.0062803264
0.0077029593
0.021504744
0.001525539
0.0035865008
0.00029815516
0.0013857008
0.00014676018
0.00080348449
9.2098592e-05
0.00054239932
0.00041283557
0.00039683671
0.00033167536
0.00030327371
0.00026692737
0.00024181105
0.00021817524
0.00019872855
0.00018158142
0.00016670643
0.00015360023
0.00014201263
0.00013170022
0.00012247628
0.00011418559
0.00010670102
9.9917048e-05
9.3745041e-05
8.8110238e-05
8.2949311e-05
7.8208144e-05
7.3840469e-05
6.9806462e-05
6.6071444e-05
6.2605201e-05
5.9381422e-05
5.6377007e-05
5.3571585e-05
5.0947244e-05
4.8488136e-05
4.6180051e-05
4.4010318e-05
4.1967644e-05
4.0041927e-05
3.8224013e-05
3.6505644e-05
3.4879445e-05
3.3338732e-05
3.187736e-05
3.0489759e-05
2.9170878e-05
2.7916093e-05
2.6721198e-05
2.5582335e-05
2.4495956e-05
2.3458857e-05
2.2467964e-05
2.1520505e-05
2.061398e-05
1.9746016e-05
1.8914418e-05
1.811716e-05
1.7352356e-05
1.6618283e-05
1.5913345e-05
1.5236015e-05
1.4584876e-05
1.3958623e-05
1.3356029e-05
1.2775952e-05
1.2217317e-05
1.1679123e-05
1.1160462e-05
1.0660448e-05
1.0178243e-05
9.71308e-06
9.2642293e-06
8.8310103e-06
8.4127765e-06
8.008924e-06
7.6189031e-06
7.2421733e-06
6.8782222e-06
6.5265771e-06
6.1867895e-06
5.8584281e-06
5.5410951e-06
5.2344198e-06
4.9379307e-06
4.651614e-06
4.3822958e-06
4.1368579e-06
3.9139105e-06
3.7105217e-06
3.5245223e-06
3.3538662e-06
3.1968176e-06
3.0518709e-06
2.9177173e-06
2.7932167e-06
2.6773724e-06
2.5693038e-06
2.4682203e-06
2.3734125e-06
2.2842195e-06
2.2000476e-06
2.1202365e-06
2.0443213e-06
1.971171e-06
1.9012401e-06
1.8293031e-06
1.7682863e-06
1.6788953e-06
0.0067378804
0.0065386378
0.0064218538
0.0063594567
0.0063204738
0.0062929396
0.006272273
0.006256267
0.0062436211
0.0062334869
0.0062252845
0.0062186084
0.0062131731
0.0062087817
0.0062053107
0.0062027035
0.0062009964
0.0062003078
0.0062011212
0.0062039143
0.0062110737
0.0062330733
0.0062138651
0.0076140942
0.020616681
0.0014982884
0.0034213986
0.00029110497
0.0013293423
0.00014334493
0.00077323384
9.0060823e-05
0.00052321743
0.00039902915
0.00038354395
0.00032091539
0.00029356588
0.00025857504
0.00023437048
0.00021158438
0.00019282375
0.00017627289
0.00016190716
0.00014924337
0.00013804166
0.00012806825
0.00011914367
0.00011111869
0.00010387107
9.7299288e-05
9.1318077e-05
8.5855472e-05
8.0850496e-05
7.6251022e-05
7.2012473e-05
6.8096464e-05
6.4469561e-05
6.1102623e-05
5.7970268e-05
5.5050208e-05
5.2322783e-05
4.9770699e-05
4.7378651e-05
4.5132914e-05
4.3021245e-05
4.1032733e-05
3.915762e-05
3.7387049e-05
3.5713034e-05
3.4128438e-05
3.2626796e-05
3.1202163e-05
2.9849144e-05
2.8562851e-05
2.7338808e-05
2.6172945e-05
2.5061528e-05
2.4001118e-05
2.2988609e-05
2.2021008e-05
2.1095639e-05
2.0210084e-05
1.9362039e-05
1.8549375e-05
1.7770126e-05
1.7022461e-05
1.630471e-05
1.5615324e-05
1.495282e-05
1.4315824e-05
1.3703069e-05
1.3113363e-05
1.2545597e-05
1.1998727e-05
1.1471781e-05
1.0963876e-05
1.0474153e-05
1.0001797e-05
9.5460612e-06
9.1062379e-06
8.6816651e-06
8.2717142e-06
7.8757982e-06
7.4933824e-06
7.1239413e-06
6.7669765e-06
6.422028e-06
6.0886597e-06
5.7664517e-06
5.4550171e-06
5.1539951e-06
4.8629258e-06
4.5817984e-06
4.3173174e-06
4.0762489e-06
3.8572393e-06
3.6574161e-06
3.4746539e-06
3.3069475e-06
3.1525953e-06
3.010121e-06
2.8782414e-06
2.7558384e-06
2.6419342e-06
2.535665e-06
2.4362551e-06
2.3430085e-06
2.2552763e-06
2.1724755e-06
2.0939578e-06
2.0192665e-06
1.9472892e-06
1.8784751e-06
1.8076741e-06
1.7476182e-06
1.6596346e-06
0.006678826
0.0064751195
0.0063554373
0.0062914169
0.006251401
0.0062231291
0.0062019034
0.0061854598
0.0061724638
0.0061620444
0.0061536061
0.0061467316
0.0061411267
0.0061365875
0.0061329846
0.0061302561
0.0061284313
0.0061276238
0.0061282951
0.0061309362
0.0061377502
0.0061596113
0.0061375112
0.007512563
0.019689784
0.001469512
0.0032455241
0.00028345457
0.0012687985
0.00013962422
0.00074060183
8.7834782e-05
0.00050247188
0.0003840691
0.00036913822
0.0003092415
0.00028302889
0.00024950266
0.00022628448
0.00020441791
0.00018640032
0.0001704955
0.00015668186
0.00014449792
0.00013371492
0.00012410954
0.00011551007
0.00010777376
0.00010078364
9.4442543e-05
8.866882e-05
8.3393533e-05
7.8558249e-05
7.4112995e-05
7.0015023e-05
6.6227509e-05
6.2718367e-05
5.9459617e-05
5.6426887e-05
5.3598771e-05
5.0956374e-05
4.8483078e-05
4.6164165e-05
4.3986438e-05
4.1938118e-05
4.0008707e-05
3.8188822e-05
3.646993e-05
3.4844338e-05
3.330517e-05
3.1846199e-05
3.0461693e-05
2.9146454e-05
2.7895768e-05
2.6705318e-05
2.5571185e-05
2.4489771e-05
2.3457754e-05
2.2472132e-05
2.1530003e-05
2.0628795e-05
1.9766179e-05
1.8939927e-05
1.8147981e-05
1.738844e-05
1.6659535e-05
1.5959653e-05
1.5287295e-05
1.4641027e-05
1.4019521e-05
1.3421551e-05
1.2845964e-05
1.2291688e-05
1.1757711e-05
1.1243093e-05
1.0746981e-05
1.0268541e-05
9.8069852e-06
9.3615903e-06
8.9316707e-06
8.5165851e-06
8.1157246e-06
7.7285203e-06
7.3544545e-06
6.9930177e-06
6.6437266e-06
6.3061355e-06
5.9798214e-06
5.6643772e-06
5.3594277e-06
5.0646228e-06
4.7795158e-06
4.5040986e-06
4.244942e-06
4.0086846e-06
3.794012e-06
3.5981168e-06
3.4189219e-06
3.2544669e-06
3.1030874e-06
2.9633397e-06
2.8339685e-06
2.7138798e-06
2.6021169e-06
2.497834e-06
2.400272e-06
2.3087496e-06
2.222631e-06
2.1413453e-06
2.064257e-06
1.9909186e-06
1.9202385e-06
1.8526594e-06
1.7831166e-06
1.7241243e-06
1.6376984e-06
0.0066113307
0.0064025198
0.0062795032
0.0062136123
0.006172406
0.0061432842
0.0061214142
0.0061044663
0.0060910668
0.006080319
0.0060716089
0.0060645061
0.0060587061
0.0060539973
0.0060502432
0.006047376
0.0060454173
0.0060444756
0.0060449876
0.00604746
0.0060538916
0.00607561
0.0060502684
0.0073972741
0.018727427
0.0014392947
0.0030590413
0.00027516707
0.0012039888
0.00013557645
0.00070550652
8.5405939e-05
0.00048009467
0.00036789803
0.00035356322
0.00029660424
0.00027161655
0.00023966849
0.00021751456
0.00019664057
0.00017942568
0.00016421917
0.00015100266
0.00013933796
0.00012900833
0.00011980159
0.00011155447
0.00010413113
9.74203e-05
9.1329502e-05
8.5780989e-05
8.0709088e-05
7.6058112e-05
7.1780414e-05
6.7835219e-05
6.4187391e-05
6.0806303e-05
5.7665227e-05
5.4740886e-05
5.2012824e-05
4.946298e-05
4.7075461e-05
4.4836192e-05
4.2732541e-05
4.0753235e-05
3.8888224e-05
3.712853e-05
3.5465974e-05
3.3893177e-05
3.240355e-05
3.0991119e-05
2.9650388e-05
2.837637e-05
2.7164541e-05
2.6010757e-05
2.4911263e-05
2.3862607e-05
2.2861596e-05
2.1905343e-05
2.0991039e-05
2.0116227e-05
1.9278678e-05
1.8476245e-05
1.7706946e-05
1.6968953e-05
1.6260562e-05
1.5580221e-05