/*--------------------------------*- C++ -*----------------------------------*\
| =========                 |                                                 |
| \\      /  F ield         | OpenFOAM: The Open Source CFD Toolbox           |
|  \\    /   O peration     | Version:  2206                                  |
|   \\  /    A nd           | Website:  www.openfoam.com                      |
|    \\/     M anipulation  |                                                 |
\*---------------------------------------------------------------------------*/
FoamFile
{
    version     2.0;
    format      ascii;
    arch        "LSB;label=32;scalar=64";
    class       volScalarField;
    location    "2000";
    object      k;
}
// * * * * * * * * * * * * * * * * * * * * * * * * * * * * * * * * * * * * * //

dimensions      [0 2 -2 0 0 0 0];

internalField   nonuniform List<scalar> 
13056
(
0.00012264577
0.00010869491
0.00010365798
0.00010110038
9.947986e-05
9.8338986e-05
9.7491338e-05
9.6840352e-05
9.6328468e-05
9.5918519e-05
9.5585272e-05
9.5310962e-05
9.5082718e-05
9.4890998e-05
9.4728542e-05
9.4589883e-05
9.4470359e-05
9.4367712e-05
9.427548e-05
9.4206814e-05
9.4097192e-05
9.4254646e-05
9.3074733e-05
9.865408e-05
1.7616482e-05
2.684116e-06
5.3486218e-06
9.1953164e-07
2.7619997e-06
5.7133793e-07
1.8927095e-06
4.1627467e-07
1.4410591e-06
1.190722e-06
1.1599876e-06
1.0242221e-06
9.6299257e-07
8.81494e-07
8.2334278e-07
7.6680374e-07
7.1890877e-07
6.7546124e-07
6.3675412e-07
6.0176357e-07
5.7005944e-07
5.4117007e-07
5.1473726e-07
4.9045375e-07
4.6806353e-07
4.4734987e-07
4.2812717e-07
4.1023602e-07
3.9353914e-07
3.7791719e-07
3.632667e-07
3.4949728e-07
3.3652886e-07
3.242907e-07
3.1272033e-07
3.0176213e-07
2.9136637e-07
2.8148886e-07
2.7209005e-07
2.6313392e-07
2.5458793e-07
2.4642278e-07
2.3861189e-07
2.31131e-07
2.2395795e-07
2.1707281e-07
2.1045736e-07
2.0409452e-07
1.9796867e-07
1.9206555e-07
1.8637195e-07
1.808757e-07
1.7556551e-07
1.7043095e-07
1.6546266e-07
1.6065154e-07
1.5598906e-07
1.5146755e-07
1.4707971e-07
1.4281874e-07
1.3867829e-07
1.3465236e-07
1.307355e-07
1.2692263e-07
1.2320874e-07
1.1958917e-07
1.1605961e-07
1.1261594e-07
1.0925432e-07
1.0597108e-07
1.0276276e-07
9.9626294e-08
9.6558559e-08
9.3556545e-08
9.0617518e-08
8.7738835e-08
8.4918007e-08
8.2152618e-08
7.9440394e-08
7.6779299e-08
7.4167236e-08
7.1602161e-08
6.9082195e-08
6.6605513e-08
6.4170283e-08
6.1774811e-08
5.9417496e-08
5.70958e-08
5.4810722e-08
5.2619674e-08
5.0584858e-08
4.8702362e-08
4.6954448e-08
4.5328562e-08
4.3812102e-08
4.2394247e-08
4.106541e-08
3.98171e-08
3.8641782e-08
3.7532754e-08
3.6483981e-08
3.5489898e-08
3.4545383e-08
3.3645493e-08
3.2785683e-08
3.1960433e-08
3.1166013e-08
3.0391414e-08
2.9641831e-08
2.8862705e-08
2.8193206e-08
2.7197742e-08
0.00012263721
0.00010867935
0.00010363981
0.00010108087
9.945951e-05
9.8318039e-05
9.7469947e-05
9.681862e-05
9.6306466e-05
9.5896302e-05
9.5562878e-05
9.5288422e-05
9.5060055e-05
9.4868232e-05
9.4705687e-05
9.4566952e-05
9.4447361e-05
9.4344656e-05
9.4252371e-05
9.4183663e-05
9.4073982e-05
9.4231501e-05
9.3051076e-05
9.863297e-05
1.7550011e-05
2.6594963e-06
5.2375262e-06
9.1000015e-07
2.7097219e-06
5.6498913e-07
1.8590134e-06
4.1177326e-07
1.4168032e-06
1.1716725e-06
1.1413398e-06
1.0082477e-06
9.481537e-07
8.6820533e-07
8.1112894e-07
7.5563228e-07
7.0860444e-07
6.6593391e-07
6.2790885e-07
5.93527e-07
5.6236757e-07
5.3396886e-07
5.0797972e-07
4.8409898e-07
4.6207573e-07
4.4169758e-07
4.2278261e-07
4.0517458e-07
3.8873891e-07
3.7335859e-07
3.5893215e-07
3.4537096e-07
3.325965e-07
3.2053933e-07
3.091382e-07
2.9833853e-07
2.8809153e-07
2.7835384e-07
2.6908665e-07
2.602546e-07
2.5182576e-07
2.4377136e-07
2.3606536e-07
2.2868389e-07
2.2160519e-07
2.148097e-07
2.0827951e-07
2.0199783e-07
1.9594934e-07
1.9012001e-07
1.8449685e-07
1.7906795e-07
1.738222e-07
1.6874938e-07
1.6384027e-07
1.5908588e-07
1.5447785e-07
1.5000866e-07
1.4567114e-07
1.414586e-07
1.3736478e-07
1.333838e-07
1.2951029e-07
1.2573925e-07
1.2206576e-07
1.1848523e-07
1.1499342e-07
1.1158629e-07
1.0826006e-07
1.050111e-07
1.0183603e-07
9.873182e-08
9.5695402e-08
9.2723812e-08
8.9814361e-08
8.6964445e-08
8.4171616e-08
8.1433495e-08
7.8747843e-08
7.6112656e-08
7.3525867e-08
7.0985466e-08
6.84896e-08
6.6036469e-08
6.3624272e-08
6.1251338e-08
5.8916086e-08
5.6616014e-08
5.4352115e-08
5.2181258e-08
5.0165092e-08
4.8299785e-08
4.6567778e-08
4.4956641e-08
4.34539e-08
4.2048838e-08
4.0731959e-08
3.9494856e-08
3.8330067e-08
3.7230952e-08
3.6191534e-08
3.52063e-08
3.4270177e-08
3.3378267e-08
3.2526066e-08
3.1708105e-08
3.0920686e-08
3.0152893e-08
2.9409908e-08
2.8637465e-08
2.7973771e-08
2.698703e-08
0.00012260954
0.0001086302
0.00010358274
0.00010101975
9.9395819e-05
9.8252536e-05
9.7403096e-05
9.6750733e-05
9.6237762e-05
9.5826941e-05
9.5492982e-05
9.5218083e-05
9.4989345e-05
9.4797207e-05
9.4634393e-05
9.4495425e-05
9.4375631e-05
9.4272749e-05
9.4180302e-05
9.4111467e-05
9.4001603e-05
9.4159298e-05
9.2977409e-05
9.8566193e-05
1.7486392e-05
2.6348644e-06
5.1264119e-06
9.0038965e-07
2.6572645e-06
5.5857612e-07
1.8251462e-06
4.0722231e-07
1.3923983e-06
1.1524901e-06
1.1225619e-06
9.921542e-07
9.3320142e-07
8.5481089e-07
7.988153e-07
7.443669e-07
6.9821143e-07
6.5632273e-07
6.1898414e-07
5.8521506e-07
5.546041e-07
5.2669955e-07
5.0115732e-07
4.7768236e-07
4.5602889e-07
4.3598887e-07
4.173841e-07
4.0006148e-07
3.8388917e-07
3.687525e-07
3.5455203e-07
3.4120087e-07
3.2862204e-07
3.1674748e-07
3.055171e-07
2.948774e-07
2.8478053e-07
2.7518395e-07
2.6604962e-07
2.5734282e-07
2.4903224e-07
2.4108966e-07
2.3348955e-07
2.2620848e-07
2.1922507e-07
2.1252012e-07
2.0607603e-07
1.9987634e-07
1.9390597e-07
1.8815118e-07
1.8259921e-07
1.7723834e-07
1.7205771e-07
1.6704727e-07
1.6219797e-07
1.575009e-07
1.5294788e-07
1.4853158e-07
1.4424492e-07
1.4008133e-07
1.3603465e-07
1.320991e-07
1.2826941e-07
1.2454066e-07
1.2090801e-07
1.1736696e-07
1.1391333e-07
1.1054314e-07
1.0725269e-07
1.0403841e-07
1.0089696e-07
9.7825371e-08
9.4820628e-08
9.1879811e-08
8.9000275e-08
8.617946e-08
8.3414954e-08
8.0704419e-08
7.804565e-08
7.5436676e-08
7.2875462e-08
7.0360028e-08
6.7888549e-08
6.5459255e-08
6.3070368e-08
6.0720244e-08
5.8407326e-08
5.6129144e-08
5.3886685e-08
5.173627e-08
4.9738987e-08
4.7891084e-08
4.6175184e-08
4.4578984e-08
4.3090136e-08
4.1698029e-08
4.0393262e-08
3.916751e-08
3.8013385e-08
3.6924312e-08
3.5894369e-08
3.4918098e-08
3.3990477e-08
3.3106652e-08
3.2262161e-08
3.1451586e-08
3.0671261e-08
2.9910366e-08
2.9174068e-08
2.8408416e-08
2.775061e-08
2.6772717e-08
0.00012256194
0.00010854594
0.00010348498
0.00010091509
9.9286772e-05
9.8140403e-05
9.7288668e-05
9.6634539e-05
9.6120177e-05
9.5708238e-05
9.5373366e-05
9.5097712e-05
9.4868342e-05
9.4675669e-05
9.4512397e-05
9.4373033e-05
9.4252893e-05
9.4149709e-05
9.4056986e-05
9.3987932e-05
9.3877756e-05
9.4035744e-05
9.2851398e-05
9.8451657e-05
1.7425068e-05
2.60989e-06
5.0137906e-06
8.9056803e-07
2.6039198e-06
5.5201082e-07
1.7906483e-06
4.025593e-07
1.3675123e-06
1.1329125e-06
1.1033972e-06
9.7572114e-07
9.1793093e-07
8.4112696e-07
7.8623291e-07
7.3285291e-07
6.8758693e-07
6.4649555e-07
6.0985723e-07
5.7671337e-07
5.4666217e-07
5.1926206e-07
4.9417612e-07
4.7111554e-07
4.4983974e-07
4.3014512e-07
4.1185726e-07
3.9482629e-07
3.7892313e-07
3.6403549e-07
3.50066e-07
3.3692956e-07
3.2455078e-07
3.1286294e-07
3.0180719e-07
2.9133111e-07
2.813878e-07
2.7193559e-07
2.6293717e-07
2.5435853e-07
2.4616896e-07
2.3834081e-07
2.3084908e-07
2.2367077e-07
2.1678489e-07
2.1017261e-07
2.0381667e-07
1.9770091e-07
1.9181054e-07
1.8613207e-07
1.8065298e-07
1.7536178e-07
1.7024783e-07
1.6530128e-07
1.6051324e-07
1.5587489e-07
1.5137822e-07
1.4701608e-07
1.4278153e-07
1.3866808e-07
1.3466969e-07
1.3078069e-07
1.269959e-07
1.2331048e-07
1.1971968e-07
1.1621907e-07
1.1280456e-07
1.0947223e-07
1.0621845e-07
1.030397e-07
9.9932713e-08
9.6894561e-08
9.3922283e-08
9.1013009e-08
8.8164138e-08
8.5373153e-08
8.2637684e-08
7.9955429e-08
7.7324223e-08
7.4742124e-08
7.2207132e-08
6.9717298e-08
6.7270828e-08
6.4865977e-08
6.2500997e-08
6.0174268e-08
5.7884256e-08
5.5628526e-08
5.3408061e-08
5.1278616e-08
4.9300707e-08
4.7470661e-08
4.5771287e-08
4.4190413e-08
4.2715821e-08
4.1337008e-08
4.004467e-08
3.8830568e-08
3.7687387e-08
3.660862e-08
3.5588403e-08
3.4621333e-08
3.3702438e-08
3.2826913e-08
3.1990335e-08
3.1187343e-08
3.0414303e-08
2.9660493e-08
2.8931059e-08
2.8172398e-08
2.7520644e-08
2.6551842e-08
0.00012249312
0.00010842415
0.00010334371
0.00010076386
9.9129221e-05
9.7978399e-05
9.7123353e-05
9.6466677e-05
9.5950309e-05
9.5536758e-05
9.520057e-05
9.4923827e-05
9.4693545e-05
9.4500099e-05
9.4336166e-05
9.4196232e-05
9.4075593e-05
9.3971972e-05
9.3878851e-05
9.3809483e-05
9.3698856e-05
9.3857257e-05
9.2669397e-05
9.8286094e-05
1.7365432e-05
2.5842647e-06
4.8982672e-06
8.8040675e-07
2.5490138e-06
5.4520686e-07
1.7550789e-06
3.9772265e-07
1.3418252e-06
1.1126857e-06
1.0835972e-06
9.587346e-07
9.0214327e-07
8.2697479e-07
7.7321719e-07
7.2093945e-07
6.765916e-07
6.3632331e-07
6.0040813e-07
5.6791005e-07
5.3843717e-07
5.1155833e-07
4.8694402e-07
4.6431182e-07
4.4342653e-07
4.2408911e-07
4.0612903e-07
3.8939976e-07
3.7377507e-07
3.5914513e-07
3.4541468e-07
3.3250049e-07
3.2032878e-07
3.0883425e-07
2.9795931e-07
2.8765265e-07
2.7786837e-07
2.6856568e-07
2.5970805e-07
2.5126217e-07
2.4319797e-07
2.3548838e-07
2.2810894e-07
2.2103711e-07
2.1425231e-07
2.0773607e-07
2.0147148e-07
1.9544272e-07
1.8963527e-07
1.8403592e-07
1.7863237e-07
1.734134e-07
1.6836859e-07
1.6348829e-07
1.5876376e-07
1.541863e-07
1.4974806e-07
1.4544209e-07
1.4126157e-07
1.3720013e-07
1.3325183e-07
1.2941111e-07
1.2567288e-07
1.220324e-07
1.1848501e-07
1.1502636e-07
1.1165243e-07
1.0835938e-07
1.0514364e-07
1.0200176e-07
9.8930518e-08
9.5927057e-08
9.2988463e-08
9.0111918e-08
8.7294867e-08
8.4534836e-08
8.1829498e-08
7.9176591e-08
7.6573988e-08
7.4019782e-08
7.1512006e-08
6.9048744e-08
6.6628232e-08
6.4248754e-08
6.190859e-08
5.9606148e-08
5.7339918e-08
5.5107499e-08
5.290987e-08
5.0802201e-08
4.884441e-08
4.7032908e-08
4.5350698e-08
4.3785742e-08
4.2325957e-08
4.0960952e-08
3.9681524e-08
3.8479522e-08
3.7347711e-08
3.627965e-08
3.5269537e-08
3.4312025e-08
3.3402197e-08
3.2535294e-08
3.1706941e-08
3.0911828e-08
3.0146358e-08
2.9399912e-08
2.8677612e-08
2.7926236e-08
2.7280775e-08
2.6321427e-08
0.00012240131
0.0001082616
0.00010315514
0.00010056199
9.8918916e-05
9.7762151e-05
9.6902686e-05
9.6242612e-05
9.5723565e-05
9.5307863e-05
9.4969919e-05
9.4691723e-05
9.4460224e-05
9.4265747e-05
9.4100933e-05
9.3960237e-05
9.3838932e-05
9.373473e-05
9.3641077e-05
9.357129e-05
9.3460062e-05
9.3619004e-05
9.2426485e-05
9.8065095e-05
1.7307113e-05
2.5577007e-06
4.77853e-06
8.6977975e-07
2.4919018e-06
5.3807875e-07
1.7180125e-06
3.926512e-07
1.3150258e-06
1.091562e-06
1.0629197e-06
9.4098539e-07
8.8564369e-07
8.1217914e-07
7.5960661e-07
7.084783e-07
6.6508831e-07
6.256789e-07
5.9051855e-07
5.586947e-07
5.2982578e-07
5.0349149e-07
4.7936995e-07
4.5718543e-07
4.3670831e-07
4.1774431e-07
4.0012697e-07
3.8371322e-07
3.6837978e-07
3.5401941e-07
3.4053906e-07
3.2785743e-07
3.1590242e-07
3.0461023e-07
2.9392455e-07
2.8379526e-07
2.7417748e-07
2.6503135e-07
2.5632115e-07
2.480143e-07
2.4008141e-07
2.32496e-07
2.252342e-07
2.1827392e-07
2.1159502e-07
2.0517941e-07
1.9901056e-07
1.9307295e-07
1.873524e-07
1.8183596e-07
1.765116e-07
1.7136833e-07
1.66396e-07
1.6158514e-07
1.569272e-07
1.5241356e-07
1.4803658e-07
1.437895e-07
1.3966563e-07
1.3565871e-07
1.3176294e-07
1.2797284e-07
1.2428344e-07
1.2069009e-07
1.1718822e-07
1.1377357e-07
1.104422e-07
1.0719034e-07
1.0401449e-07
1.0091128e-07
9.7877535e-08
9.4910462e-08
9.20072e-08
8.9164985e-08
8.6381311e-08
8.3653752e-08
8.0980023e-08
7.8357905e-08
7.578531e-08
7.3260368e-08
7.0781146e-08
6.8345765e-08
6.595249e-08
6.3599636e-08
6.1285515e-08
5.9008561e-08
5.6767289e-08
5.4559337e-08
5.2385676e-08
5.0300865e-08
4.8364193e-08
4.6572159e-08
4.4907968e-08
4.3359724e-08
4.1915485e-08
4.0564979e-08
3.9299107e-08
3.810981e-08
3.6989938e-08
3.593312e-08
3.4933617e-08
3.3986144e-08
3.3085839e-08
3.2227993e-08
3.1408277e-08
3.0621441e-08
2.9863923e-08
2.9125216e-08
2.8410409e-08
2.7666703e-08
2.702786e-08
2.607845e-08
0.00012228435
0.00010805424
0.00010291452
0.00010030439
9.865054e-05
9.7486184e-05
9.6621076e-05
9.5956663e-05
9.5434197e-05
9.5015749e-05
9.4675563e-05
9.4395512e-05
9.4162459e-05
9.3966668e-05
9.3800727e-05
9.365906e-05
9.3536905e-05
9.3431961e-05
9.3337629e-05
9.3267306e-05
9.3155312e-05
9.3314934e-05
9.2116504e-05
9.7783152e-05
1.7249986e-05
2.5299313e-06
4.6533492e-06
8.5856277e-07
2.4319663e-06
5.305414e-07
1.6790372e-06
3.8728374e-07
1.2868115e-06
1.0692989e-06
1.0411274e-06
9.2226807e-07
8.6824068e-07
7.9656735e-07
7.4524183e-07
6.9532302e-07
6.5294148e-07
6.1443646e-07
5.8007123e-07
5.4895777e-07
5.2072543e-07
4.9496521e-07
4.7136331e-07
4.4965096e-07
4.2960444e-07
4.1103446e-07
3.9377883e-07
3.776981e-07
3.6267214e-07
3.485964e-07
3.3538016e-07
3.2294415e-07
3.1121805e-07
3.0013961e-07
2.896539e-07
2.7971203e-07
2.7027023e-07
2.6128957e-07
2.5273521e-07
2.4457535e-07
2.3678129e-07
2.2932718e-07
2.2218977e-07
2.1534746e-07
2.0878055e-07
2.0247138e-07
1.9640379e-07
1.9056261e-07
1.8493399e-07
1.7950526e-07
1.7426468e-07
1.6920151e-07
1.6430586e-07
1.5956849e-07
1.5498102e-07
1.5053491e-07
1.4622276e-07
1.4203801e-07
1.379741e-07
1.340249e-07
1.3018471e-07
1.2644819e-07
1.2281048e-07
1.1926702e-07
1.1581334e-07
1.1244527e-07
1.0915895e-07
1.0595071e-07
1.0281709e-07
9.9754808e-08
9.6760769e-08
9.3832221e-08
9.0966369e-08
8.8160503e-08
8.5412172e-08
8.2718997e-08
8.0078739e-08
7.7489226e-08
7.494841e-08
7.245446e-08
7.000548e-08
6.7599627e-08
6.5235201e-08
6.2910549e-08
6.0624014e-08
5.837406e-08
5.6159229e-08
5.3977196e-08
5.182893e-08
4.9768338e-08
4.7854045e-08
4.608264e-08
4.4437546e-08
4.2907012e-08
4.147925e-08
4.014411e-08
3.8892606e-08
3.7716778e-08
3.660956e-08
3.556466e-08
3.4576405e-08
3.3639574e-08
3.2749364e-08
3.190112e-08
3.1090562e-08
3.0312503e-08
2.9563418e-08
2.8832919e-08
2.8126057e-08
2.7390503e-08
2.6758681e-08
2.5819815e-08
0.00012213968
0.00010779726
0.00010261621
9.9984968e-05
9.8317737e-05
9.7143959e-05
9.6271846e-05
9.5602046e-05
9.5075337e-05
9.4653479e-05
9.4310512e-05
9.4028159e-05
9.3793179e-05
9.3595755e-05
9.3428418e-05
9.3285544e-05
9.3162335e-05
9.305647e-05
9.2961297e-05
9.289031e-05
9.2777367e-05
9.2937817e-05
9.1732094e-05
9.7433698e-05
1.7194195e-05
2.5007139e-06
4.5215817e-06
8.4663312e-07
2.3686182e-06
5.2250985e-07
1.6377552e-06
3.8155885e-07
1.2568874e-06
1.0456589e-06
1.0179876e-06
9.0238067e-07
8.4974574e-07
7.7996911e-07
7.2996541e-07
6.8132868e-07
6.4001671e-07
6.0247109e-07
5.6894966e-07
5.385903e-07
5.1103393e-07
4.858835e-07
4.6283369e-07
4.4162314e-07
4.2203432e-07
4.0388325e-07
3.8701225e-07
3.7128573e-07
3.5658686e-07
3.4281396e-07
3.2987877e-07
3.1770416e-07
3.0622174e-07
2.9537086e-07
2.8509807e-07
2.753558e-07
2.661014e-07
2.5729701e-07
2.4890866e-07
2.4090539e-07
2.3325925e-07
2.2594506e-07
2.1894022e-07
2.1222364e-07
2.057761e-07
1.9958039e-07
1.9362074e-07
1.8788237e-07
1.8235176e-07
1.7701655e-07
1.7186529e-07
1.6688754e-07
1.6207368e-07
1.5741469e-07
1.5290238e-07
1.485283e-07
1.442853e-07
1.4016703e-07
1.3616708e-07
1.3227944e-07
1.2849856e-07
1.2481921e-07
1.2123664e-07
1.177464e-07
1.1434414e-07
1.1102577e-07
1.0778752e-07
1.0462581e-07
1.0153726e-07
9.8518659e-08
9.5566984e-08
9.2679548e-08
8.9853619e-08
8.7086546e-08
8.4375934e-08
8.1719455e-08
7.9114921e-08
7.6560207e-08
7.4053311e-08
7.1592441e-08
6.9175743e-08
6.6801412e-08
6.4467783e-08
6.2173239e-08
5.9916156e-08
5.7695029e-08
5.550843e-08
5.3354075e-08
5.1232928e-08
4.91982e-08
4.7307808e-08
4.5558439e-08
4.3933741e-08
4.2422126e-08
4.1011964e-08
3.969324e-08
3.8457086e-08
3.7295646e-08
3.6201949e-08
3.5169782e-08
3.4193546e-08
3.3268086e-08
3.2388664e-08
3.155068e-08
3.074991e-08
2.998123e-08
2.9241159e-08
2.8519435e-08
2.7821064e-08
2.7094243e-08
2.646993e-08
2.554234e-08
0.00012196436
0.00010748507
0.00010225364
9.9596686e-05
9.7913155e-05
9.6727902e-05
9.5847261e-05
9.5170905e-05
9.4639031e-05
9.4213025e-05
9.3866672e-05
9.3581518e-05
9.3344192e-05
9.3144782e-05
9.2975746e-05
9.2831405e-05
9.2706914e-05
9.2599928e-05
9.2503731e-05
9.2431937e-05
9.2317842e-05
9.2479288e-05
9.1264734e-05
9.7009149e-05
1.7140184e-05
2.4698347e-06
4.3821838e-06
8.338699e-07
2.3013018e-06
5.1389922e-07
1.5937853e-06
3.7541478e-07
1.2249683e-06
1.0204105e-06
9.9327356e-07
8.8112532e-07
8.2997383e-07
7.6221676e-07
7.136221e-07
6.663521e-07
6.2618099e-07
5.8965897e-07
5.5703818e-07
5.2748395e-07
5.0064958e-07
4.7615067e-07
4.536909e-07
4.3301676e-07
4.1391735e-07
3.9621432e-07
3.7975477e-07
3.6440724e-07
3.5005843e-07
3.3660968e-07
3.2397538e-07
3.1208069e-07
3.0085922e-07
2.9025209e-07
2.802074e-07
2.7067897e-07
2.6162541e-07
2.5300991e-07
2.4479951e-07
2.3696411e-07
2.2947655e-07
2.2231238e-07
2.154497e-07
2.0886796e-07
2.0254846e-07
1.9647444e-07
1.9063058e-07
1.850025e-07
1.7957703e-07
1.7434217e-07
1.6928676e-07
1.6440066e-07
1.5967458e-07
1.5509971e-07
1.5066807e-07
1.463713e-07
1.4220251e-07
1.3815562e-07
1.3422432e-07
1.3040278e-07
1.2668556e-07
1.2306758e-07
1.1954422e-07
1.1611113e-07
1.1276407e-07
1.0949906e-07
1.0631244e-07
1.0320069e-07
1.0016054e-07
9.7188843e-08
9.4282664e-08
9.143938e-08
8.8656325e-08
8.5930916e-08
8.3260814e-08
8.064375e-08
7.8077588e-08
7.5560254e-08
7.3089794e-08
7.066446e-08
6.8282441e-08
6.5941974e-08
6.3641434e-08
6.1379239e-08
5.9153801e-08
5.696365e-08
5.480739e-08
5.268278e-08
5.0590779e-08
4.8583851e-08
4.6719151e-08
4.4993468e-08
4.3390698e-08
4.1899422e-08
4.0508183e-08
3.9207109e-08
3.798746e-08
3.6841491e-08
3.5762333e-08
3.4743859e-08
3.3780549e-08
3.2867319e-08
3.1999498e-08
3.1172552e-08
3.0382309e-08
2.9623718e-08
2.8893345e-08
2.8181063e-08
2.7491826e-08
2.6774415e-08
2.6158187e-08
2.5242732e-08
0.00012175514
0.0001071114
0.00010181942
9.9131572e-05
9.7428471e-05
9.6229446e-05
9.5338571e-05
9.4654349e-05
9.4116278e-05
9.3685296e-05
9.3334882e-05
9.3046369e-05
9.280623e-05
9.2604438e-05
9.2433364e-05
9.2287263e-05
9.2161235e-05
9.2052906e-05
9.1955483e-05
9.1882722e-05
9.1767249e-05
9.1929875e-05
9.0704782e-05
9.6500947e-05
1.7088738e-05
2.4371169e-06
4.2342324e-06
8.2015472e-07
2.2295022e-06
5.0462507e-07
1.5467672e-06
3.6878959e-07
1.1907809e-06
9.9332973e-07
9.6676591e-07
8.5830972e-07
8.0874477e-07
7.4314654e-07
6.9605988e-07
6.5025272e-07
6.1130348e-07
5.7587804e-07
5.4422255e-07
5.1553155e-07
4.8947161e-07
4.6567176e-07
4.438453e-07
4.2374707e-07
4.0517326e-07
3.8795149e-07
3.7193404e-07
3.5699382e-07
3.430213e-07
3.2992108e-07
3.1761036e-07
3.0601675e-07
2.9507602e-07
2.8473116e-07
2.7493195e-07
2.6563369e-07
2.5679633e-07
2.4838422e-07
2.4036543e-07
2.3271082e-07
2.2539407e-07
2.1839152e-07
2.1168198e-07
2.0524553e-07
1.99064e-07
1.9312114e-07
1.8740207e-07
1.8189286e-07
1.7658074e-07
1.7145406e-07
1.6650198e-07
1.6171471e-07
1.5708329e-07
1.5259914e-07
1.4825449e-07
1.440411e-07
1.3995236e-07
1.3598245e-07
1.3212521e-07
1.2837497e-07
1.2472643e-07
1.2117467e-07
1.1771517e-07
1.1434375e-07
1.1105625e-07
1.0784882e-07
1.047179e-07
1.0166006e-07
9.8672137e-08
9.5751064e-08
9.2893984e-08
9.0098349e-08
8.7361569e-08
8.4681128e-08
8.2054751e-08
7.9480231e-08
7.6955488e-08
7.4478504e-08
7.2047379e-08
6.9660409e-08
6.7315831e-08
6.5011927e-08
6.2747113e-08
6.0519848e-08
5.8328583e-08
5.6171885e-08
5.404839e-08
5.1955907e-08
4.9895388e-08
4.7918492e-08
4.6081548e-08
4.4381456e-08
4.2802378e-08
4.1333079e-08
3.9962288e-08
3.8680288e-08
3.7478475e-08
3.6349228e-08
3.5285785e-08
3.4282111e-08
3.3332772e-08
3.2432762e-08
3.1577484e-08
3.0762469e-08
2.9983609e-08
2.9235927e-08
2.851604e-08
2.7813969e-08
2.713461e-08
2.6427392e-08
2.581991e-08
2.4917584e-08
0.00012150847
0.00010666931
0.00010130532
9.8580775e-05
9.6854436e-05
9.5639063e-05
9.4736045e-05
9.404249e-05
9.3497069e-05
9.3060185e-05
9.2704955e-05
9.2412459e-05
9.2168983e-05
9.1964368e-05
9.1790878e-05
9.1642691e-05
9.1514839e-05
9.1404919e-05
9.1306043e-05
9.1232137e-05
9.1115036e-05
9.1279049e-05
9.0041525e-05
9.5899606e-05
1.7041034e-05
2.4024314e-06
4.0769531e-06
8.0537315e-07
2.1527576e-06
4.94604e-07
1.4963684e-06
3.6162156e-07
1.1540691e-06
9.6420404e-07
9.3825609e-07
8.3374981e-07
7.858856e-07
7.2260055e-07
6.7713173e-07
6.3289419e-07
5.9525691e-07
5.6100928e-07
5.3039112e-07
5.0262812e-07
4.7740109e-07
4.5435342e-07
4.332086e-07
4.1373045e-07
3.9572268e-07
3.790194e-07
3.6347836e-07
3.4897718e-07
3.3541035e-07
3.2268599e-07
3.1072431e-07
2.9945554e-07
2.8881776e-07
2.7875598e-07
2.6922178e-07
2.6017205e-07
2.5156817e-07
2.4337574e-07
2.3556395e-07
2.2810468e-07
2.2097251e-07
2.1414461e-07
2.0760062e-07
2.0132123e-07
1.9528886e-07
1.8948781e-07
1.839037e-07
1.7852306e-07
1.7333353e-07
1.6832386e-07
1.6348356e-07
1.5880322e-07
1.5427422e-07
1.4988825e-07
1.4563776e-07
1.4151459e-07
1.3751248e-07
1.3362588e-07
1.2984882e-07
1.2617575e-07
1.2260158e-07
1.1912149e-07
1.1573115e-07
1.1242649e-07
1.0920349e-07
1.0605841e-07
1.029878e-07
9.998835e-08
9.7056984e-08
9.4190734e-08
9.1386831e-08
8.8642807e-08
8.5956149e-08
8.3324417e-08
8.0745406e-08
7.8216974e-08
7.5737104e-08
7.3303837e-08
7.0915328e-08
6.8569927e-08
6.6265919e-08
6.4001637e-08
6.1775541e-08
5.9586133e-08
5.7431908e-08
5.5311471e-08
5.3223495e-08
5.1165841e-08
4.9139455e-08
4.7195122e-08
4.5388277e-08
4.3715939e-08
4.2162556e-08
4.0717095e-08
3.9368484e-08
3.8107175e-08
3.6924713e-08
3.5813606e-08
3.4767213e-08
3.3779598e-08
3.2845419e-08
3.1959756e-08
3.1118089e-08
3.0316023e-08
2.9549516e-08
2.8813675e-08
2.8105171e-08
2.7414188e-08
2.674555e-08
2.6049415e-08
2.5451431e-08
2.4563364e-08
0.00012122057
0.0001061512
0.00010070237
9.7934597e-05
9.6180912e-05
9.4946313e-05
9.4029016e-05
9.332449e-05
9.277043e-05
9.232661e-05
9.1965723e-05
9.1668546e-05
9.1421152e-05
9.1213219e-05
9.1036891e-05
9.0886255e-05
9.0756263e-05
9.0644473e-05
9.0543892e-05
9.0468643e-05
9.0349638e-05
9.0515265e-05
8.9263231e-05
9.5194758e-05
1.6998693e-05
2.3657118e-06
3.9097582e-06
7.894167e-07
2.0706757e-06
4.8375478e-07
1.4422941e-06
3.5384983e-07
1.1146e-06
9.3283668e-07
9.0755101e-07
8.0727361e-07
7.6123408e-07
7.0042984e-07
6.5669839e-07
6.1414681e-07
5.7791976e-07
5.4493867e-07
5.154366e-07
4.8867248e-07
4.6434246e-07
4.4210519e-07
4.2169508e-07
4.028855e-07
3.8548828e-07
3.6934442e-07
3.5431756e-07
3.4029036e-07
3.2716166e-07
3.148433e-07
3.0325875e-07
2.9234105e-07
2.8203077e-07
2.7227507e-07
2.6302746e-07
2.5424658e-07
2.458953e-07
2.3794059e-07
2.3035285e-07
2.2310503e-07
2.161727e-07
2.0953394e-07
2.0316924e-07
1.9705997e-07
1.911892e-07
1.855418e-07
1.8010393e-07
1.7486261e-07
1.6980596e-07
1.6492311e-07
1.60204e-07
1.5563959e-07
1.5122165e-07
1.4694216e-07
1.4279378e-07
1.3876847e-07
1.3486032e-07
1.3106411e-07
1.2737402e-07
1.2378469e-07
1.2029119e-07
1.1688889e-07
1.1357359e-07
1.1034137e-07
1.0718837e-07
1.0411096e-07
1.0110581e-07
9.8169744e-08
9.5299773e-08
9.2493039e-08
8.9746866e-08
8.7058875e-08
8.4426637e-08
8.1847794e-08
7.9320216e-08
7.6841833e-08
7.4410694e-08
7.2024906e-08
6.9682685e-08
6.7382436e-08
6.5122499e-08
6.290126e-08
6.0717229e-08
5.8568953e-08
5.6454976e-08
5.4373943e-08
5.232457e-08
5.0304771e-08
4.8315488e-08
4.6406555e-08
4.4632435e-08
4.2990274e-08
4.1464834e-08
4.0045296e-08
3.8720808e-08
3.7482003e-08
3.6320589e-08
3.5229217e-08
3.4201371e-08
3.3231229e-08
3.2313544e-08
3.1443491e-08
3.0616637e-08
2.9828662e-08
2.90756e-08
2.8352647e-08
2.7656533e-08
2.697762e-08
2.6320653e-08
2.56366e-08
2.504896e-08
2.417642e-08
0.00012088747
0.00010554895
0.00010000084
9.7182552e-05
9.5396934e-05
9.4139895e-05
9.3205941e-05
9.2488621e-05
9.1924487e-05
9.1472582e-05
9.1105098e-05
9.0802466e-05
9.0550506e-05
9.0338707e-05
9.0159073e-05
9.0005582e-05
8.9873097e-05
8.9759131e-05
8.9656566e-05
8.9579754e-05
8.945854e-05
8.9626031e-05
8.8357221e-05
9.4375216e-05
1.6963837e-05
2.3269737e-06
3.7322923e-06
7.7218575e-07
1.9829536e-06
4.7199985e-07
1.3842998e-06
3.4541537e-07
1.0721726e-06
8.9905337e-07
8.7447933e-07
7.7872647e-07
7.346435e-07
6.7649857e-07
6.3463213e-07
5.938909e-07
5.5917936e-07
5.2755996e-07
4.9925857e-07
4.7356958e-07
4.5020559e-07
4.288415e-07
4.0922337e-07
3.9113477e-07
3.7439622e-07
3.5885609e-07
3.4438432e-07
3.3086901e-07
3.1821361e-07
3.06334e-07
2.951571e-07
2.8461899e-07
2.7466292e-07
2.6523834e-07
2.5630086e-07
2.4781095e-07
2.3973314e-07
2.3203586e-07
2.2469077e-07
2.17672e-07
2.109562e-07
2.0452239e-07
1.9835202e-07
1.9242718e-07
1.8673162e-07
1.8125083e-07
1.7597156e-07
1.7088137e-07
1.6596886e-07
1.6122362e-07
1.5663599e-07
1.521974e-07
1.4790002e-07
1.4373612e-07
1.396986e-07
1.3577952e-07
1.319734e-07
1.2827534e-07
1.246797e-07
1.2118132e-07
1.1777545e-07
1.1445764e-07
1.1122387e-07
1.0807037e-07
1.0499342e-07
1.0198954e-07
9.9055537e-08
9.6188345e-08
9.3385102e-08
9.0643056e-08
8.7959637e-08
8.5332557e-08
8.2759481e-08
8.0238141e-08
7.7766486e-08
7.5342524e-08
7.2964378e-08
7.0630225e-08
6.8338348e-08
6.608721e-08
6.3875214e-08
6.1700801e-08
5.9562536e-08
5.7459016e-08
5.5388836e-08
5.3350688e-08
5.1343329e-08
4.9364738e-08
4.7415846e-08
4.5545457e-08
4.3806971e-08
4.2197674e-08
4.0702666e-08
3.9311365e-08
3.8013155e-08
3.6798868e-08
3.5660386e-08
3.4590517e-08
3.3582883e-08
3.2631782e-08
3.1732074e-08
3.0879035e-08
3.0068326e-08
2.9295713e-08
2.8557308e-08
2.7848406e-08
2.7165804e-08
2.6500055e-08
2.5855813e-08
2.5184952e-08
2.4608597e-08
2.3752995e-08
0.0001205051
0.00010485389
9.9190396e-05
9.6313441e-05
9.4490785e-05
9.3207735e-05
9.2254481e-05
9.1522342e-05
9.0946545e-05
9.0485279e-05
9.0110161e-05
8.9801217e-05
8.9543972e-05
8.9327701e-05
8.9144241e-05
8.8987449e-05
8.8852081e-05
8.8735599e-05
8.863074e-05
8.8552123e-05
8.8428368e-05
8.8597996e-05
8.7309971e-05
9.3429045e-05
1.6939138e-05
2.2863395e-06
3.5444856e-06
7.5359332e-07
1.8894036e-06
4.5926749e-07
1.3222072e-06
3.3626236e-07
1.0266293e-06
8.627105e-07
8.3889964e-07
7.4797784e-07
7.0598891e-07
6.5068952e-07
6.1082172e-07
5.7202129e-07
5.3893588e-07
5.0877837e-07
4.817669e-07
4.5723357e-07
4.3490864e-07
4.1448428e-07
3.9571889e-07
3.7840697e-07
3.6237826e-07
3.4748904e-07
3.33616e-07
3.2065302e-07
3.085085e-07
2.9710264e-07
2.8636607e-07
2.7623812e-07
2.6666488e-07
2.5759828e-07
2.4899619e-07
2.4082104e-07
2.3303915e-07
2.2562046e-07
2.1853806e-07
2.1176733e-07
2.0528603e-07
1.9907425e-07
1.9311443e-07
1.8738945e-07
1.818838e-07
1.7658363e-07
1.7147633e-07
1.6655002e-07
1.6179385e-07
1.5719788e-07
1.5275291e-07
1.4845085e-07
1.4428432e-07
1.4024589e-07
1.3632873e-07
1.3252497e-07
1.2882962e-07
1.2523815e-07
1.217451e-07
1.183455e-07
1.1503483e-07
1.1180881e-07
1.0866362e-07
1.0559565e-07
1.0260134e-07
9.9677377e-08
9.6820698e-08
9.4028375e-08
9.1297669e-08
8.862595e-08
8.601076e-08
8.3449912e-08
8.0941172e-08
7.8482368e-08
7.6071536e-08
7.370677e-08
7.1386271e-08
6.9108294e-08
6.6871192e-08
6.4673494e-08
6.2513669e-08
6.039022e-08
5.8301769e-08
5.624697e-08
5.4224472e-08
5.2233019e-08
5.0271414e-08
4.8337702e-08
4.6432807e-08
4.4604408e-08
4.2904748e-08
4.1331263e-08
3.9869422e-08
3.8508898e-08
3.7239333e-08
3.6051774e-08
3.4938295e-08
3.3891872e-08
3.2906279e-08
3.1975943e-08
3.1095842e-08
3.0261363e-08
2.9468266e-08
2.8712413e-08
2.799e-08
2.7296429e-08
2.6628572e-08
2.5977191e-08
2.5346838e-08
2.469039e-08
2.4126356e-08
2.3289248e-08
0.0001200694
0.00010405701
9.8260133e-05
9.5315459e-05
9.3450101e-05
9.2137088e-05
9.1161614e-05
9.041242e-05
8.9823204e-05
8.9351172e-05
8.8967275e-05
8.8651072e-05
8.8387752e-05
8.8166341e-05
8.7978485e-05
8.7817899e-05
8.7679218e-05
8.7559846e-05
8.7452355e-05
8.7371668e-05
8.7245009e-05
8.7417068e-05
8.6107254e-05
9.2343659e-05
1.6927856e-05
2.2440695e-06
3.3466126e-06
7.3356986e-07
1.7899822e-06
4.4549457e-07
1.2559228e-06
3.2634001e-07
9.7786855e-07
8.2370539e-07
8.0071047e-07
7.1492978e-07
6.7517491e-07
6.2291099e-07
5.8517866e-07
5.4845292e-07
5.1710753e-07
4.8851526e-07
4.6288597e-07
4.3959176e-07
4.1838172e-07
3.9896629e-07
3.8111698e-07
3.6463984e-07
3.4937448e-07
3.3518556e-07
3.2195698e-07
3.0958876e-07
2.9799462e-07
2.8709933e-07
2.768375e-07
2.6715191e-07
2.5799172e-07
2.493115e-07
2.4107149e-07
2.3323629e-07
2.2577406e-07
2.1865644e-07
2.1185798e-07
2.0535541e-07
1.9912773e-07
1.9315611e-07
1.8742411e-07
1.8191544e-07
1.7661535e-07
1.7151075e-07
1.6658966e-07
1.6184086e-07
1.5725405e-07
1.5281982e-07
1.4852943e-07
1.4437537e-07
1.403507e-07
1.3644832e-07
1.3266169e-07
1.2898299e-07
1.254078e-07
1.2193196e-07
1.1855022e-07
1.1525782e-07
1.1205046e-07
1.0892408e-07
1.0587505e-07
1.0289993e-07
9.9995358e-08
9.7158176e-08
9.4385474e-08
9.1674469e-08
8.9022558e-08
8.6427242e-08
8.3886182e-08
8.1397303e-08
7.8958478e-08
7.6567641e-08
7.4222922e-08
7.1922505e-08
6.9664681e-08
6.7447784e-08
6.5270247e-08
6.313067e-08
6.102759e-08
5.8959582e-08
5.6925328e-08
5.4923545e-08
5.2952938e-08
5.1012308e-08
4.910051e-08
4.721566e-08
4.5358675e-08
4.3576006e-08
4.1918639e-08
4.0384167e-08
3.8958464e-08
3.7631478e-08
3.6393132e-08
3.5234706e-08
3.4148483e-08
3.3127622e-08
3.2166062e-08
3.125837e-08
3.0399653e-08
2.9585416e-08
2.8811531e-08
2.8073961e-08
2.7368995e-08
2.6692155e-08
2.6040389e-08
2.540469e-08
2.4789495e-08
2.4148793e-08
2.3598212e-08
2.2781297e-08
0.00011957641
0.00010314901
9.7198761e-05
9.4176336e-05
9.2262023e-05
9.0914693e-05
8.9913786e-05
8.9145081e-05
8.854052e-05
8.8056179e-05
8.7662249e-05
8.7337752e-05
8.7067492e-05
8.6840208e-05
8.6647331e-05
8.6482413e-05
8.633995e-05
8.6217279e-05
8.6106787e-05
8.6023741e-05
8.5893788e-05
8.6068591e-05
8.4734251e-05
9.1106017e-05
1.6933857e-05
2.2006008e-06
3.1393543e-06
7.1206921e-07
1.6848229e-06
4.3063e-07
1.1854599e-06
3.1560486e-07
9.2586104e-07
7.8198844e-07
7.5986226e-07
6.795271e-07
6.4214507e-07
5.9310509e-07
5.5764483e-07
5.2312782e-07
4.9363685e-07
4.6671397e-07
4.4256008e-07
4.2058953e-07
4.0057143e-07
3.8223542e-07
3.653668e-07
3.4978387e-07
3.3533666e-07
3.2189874e-07
3.0936163e-07
2.9763189e-07
2.8662885e-07
2.7628217e-07
2.6653067e-07
2.5732082e-07
2.4860501e-07