/*--------------------------------*- C++ -*----------------------------------*\
| =========                 |                                                 |
| \\      /  F ield         | OpenFOAM: The Open Source CFD Toolbox           |
|  \\    /   O peration     | Version:  2206                                  |
|   \\  /    A nd           | Website:  www.openfoam.com                      |
|    \\/     M anipulation  |                                                 |
\*---------------------------------------------------------------------------*/
FoamFile
{
    version     2.0;
    format      ascii;
    arch        "LSB;label=32;scalar=64";
    class       volScalarField;
    location    "2000";
    object      nut;
}
// * * * * * * * * * * * * * * * * * * * * * * * * * * * * * * * * * * * * * //

dimensions      [0 2 -1 0 0 0 0];

internalField   nonuniform List<scalar> 
13056
(
6.5612208e-09
5.2677357e-09
4.8583951e-09
4.6567622e-09
4.5301553e-09
4.4417879e-09
4.3766362e-09
4.3268937e-09
4.2879404e-09
4.2568211e-09
4.2315441e-09
4.2107119e-09
4.1933095e-09
4.1785766e-09
4.1659161e-09
4.1548533e-09
4.1449201e-09
4.1358188e-09
4.1265755e-09
4.1180979e-09
4.1024604e-09
4.1016119e-09
3.9997047e-09
3.643225e-09
3.1531437e-11
1.2307317e-11
1.7373658e-11
7.2034589e-12
1.2484672e-11
5.6780983e-12
1.0334871e-11
4.8466955e-12
9.0178452e-12
8.1972092e-12
8.0907289e-12
7.6025193e-12
7.3717705e-12
7.0529318e-12
6.8163234e-12
6.5781192e-12
6.3693682e-12
6.1738988e-12
5.9943905e-12
5.8273614e-12
5.6717745e-12
5.5261879e-12
5.389537e-12
5.2608702e-12
5.1393816e-12
5.0243748e-12
4.9152394e-12
4.8114402e-12
4.7125078e-12
4.6180259e-12
4.5276282e-12
4.44099e-12
4.357817e-12
4.2778446e-12
4.2008362e-12
4.1265775e-12
4.0548732e-12
3.9855486e-12
3.9184452e-12
3.8534152e-12
3.7903231e-12
3.7290456e-12
3.6694693e-12
3.6114887e-12
3.555006e-12
3.4999333e-12
3.4461887e-12
3.3936934e-12
3.3423745e-12
3.2921648e-12
3.2430006e-12
3.1948231e-12
3.1475762e-12
3.1012075e-12
3.0556706e-12
3.0109179e-12
2.9669039e-12
2.9235878e-12
2.8809298e-12
2.8388917e-12
2.7974375e-12
2.7565322e-12
2.7161441e-12
2.6762427e-12
2.6367968e-12
2.5977763e-12
2.5591533e-12
2.5208999e-12
2.4829897e-12
2.4453961e-12
2.4080934e-12
2.3710589e-12
2.3342677e-12
2.2976945e-12
2.2613156e-12
2.2251072e-12
2.1890456e-12
2.1531065e-12
2.1172659e-12
2.0815012e-12
2.0457876e-12
2.010099e-12
1.9744099e-12
1.9386938e-12
1.9029219e-12
1.8670656e-12
1.831095e-12
1.7949636e-12
1.7586773e-12
1.7231668e-12
1.68952e-12
1.6577839e-12
1.6277628e-12
1.5993317e-12
1.5723509e-12
1.5466987e-12
1.5222647e-12
1.4989486e-12
1.4766594e-12
1.4553144e-12
1.434837e-12
1.4151539e-12
1.3961952e-12
1.3778897e-12
1.3601693e-12
1.3429412e-12
1.3261455e-12
1.3095614e-12
1.2933103e-12
1.2762002e-12
1.2613117e-12
1.2388436e-12
6.5613652e-09
5.2671565e-09
4.8575986e-09
4.6558618e-09
4.5291907e-09
4.4407793e-09
4.3755955e-09
4.3258289e-09
4.2868568e-09
4.255723e-09
4.2304344e-09
4.209593e-09
4.1921837e-09
4.1774455e-09
4.1647817e-09
4.1537173e-09
4.1437848e-09
4.1346869e-09
4.1254522e-09
4.1169881e-09
4.1013843e-09
4.1005818e-09
3.9988626e-09
3.6426389e-09
3.1920824e-11
1.219312e-11
1.6969305e-11
7.1246857e-12
1.2210775e-11
5.605224e-12
1.0118428e-11
4.7846794e-12
8.838438e-12
8.0417431e-12
7.9361627e-12
7.4614367e-12
7.2365419e-12
6.9262973e-12
6.6958864e-12
6.4639743e-12
6.2606543e-12
6.0702191e-12
5.8952745e-12
5.7324453e-12
5.5807319e-12
5.4387382e-12
5.3054261e-12
5.179869e-12
5.0612832e-12
4.9489925e-12
4.842404e-12
4.7409979e-12
4.6443186e-12
4.5519617e-12
4.4635716e-12
4.3788327e-12
4.2974595e-12
4.2191946e-12
4.1438081e-12
4.071092e-12
4.0008568e-12
3.9329327e-12
3.8671658e-12
3.8034125e-12
3.7415413e-12
3.6814325e-12
3.6229768e-12
3.5660714e-12
3.5106207e-12
3.4565393e-12
3.4037475e-12
3.3521687e-12
3.3017319e-12
3.2523717e-12
3.2040263e-12
3.1566386e-12
3.1101548e-12
3.0645243e-12
3.0197017e-12
2.9756386e-12
2.9322916e-12
2.8896223e-12
2.8475918e-12
2.8061626e-12
2.7652996e-12
2.7249687e-12
2.6851389e-12
2.6457808e-12
2.6068638e-12
2.5683586e-12
2.530238e-12
2.4924748e-12
2.4550433e-12
2.4179174e-12
2.3810724e-12
2.3444858e-12
2.3081333e-12
2.2719903e-12
2.2360337e-12
2.20024e-12
2.1645861e-12
2.1290483e-12
2.0936029e-12
2.0582279e-12
2.0228988e-12
1.9875901e-12
1.9522767e-12
1.9169325e-12
1.8815291e-12
1.8460382e-12
1.8104306e-12
1.7746601e-12
1.7387327e-12
1.703569e-12
1.670247e-12
1.6388145e-12
1.6090782e-12
1.5809147e-12
1.5541859e-12
1.5287716e-12
1.5045624e-12
1.4814594e-12
1.4593724e-12
1.4382196e-12
1.4179252e-12
1.3984167e-12
1.379625e-12
1.3614794e-12
1.3439126e-12
1.3268328e-12
1.3101802e-12
1.2937362e-12
1.2776217e-12
1.2606509e-12
1.2458826e-12
1.2235999e-12
6.5617702e-09
5.265338e-09
4.8551209e-09
4.6530688e-09
4.5262033e-09
4.437658e-09
4.3723766e-09
4.322536e-09
4.2835067e-09
4.2523275e-09
4.2270026e-09
4.2061319e-09
4.1886987e-09
4.1739415e-09
4.1612626e-09
4.1501871e-09
4.1402477e-09
4.1311475e-09
4.1219178e-09
4.1134666e-09
4.0979014e-09
4.0971658e-09
3.9956609e-09
3.6406912e-09
3.2332928e-11
1.2078828e-11
1.6566592e-11
7.0454244e-12
1.1937044e-11
5.5317846e-12
9.9017341e-12
4.7221352e-12
8.658602e-12
7.8857483e-12
7.7810733e-12
7.3197962e-12
7.100748e-12
6.7990846e-12
6.5748674e-12
6.3492443e-12
6.1513553e-12
5.9659558e-12
5.7955781e-12
5.6369527e-12
5.4891179e-12
5.3507231e-12
5.220756e-12
5.0983152e-12
4.9826393e-12
4.8730719e-12
4.7690376e-12
4.670032e-12
4.5756132e-12
4.4853887e-12
4.3990135e-12
4.3161814e-12
4.2366153e-12
4.1600651e-12
4.0863077e-12
4.0151412e-12
3.946382e-12
3.8798652e-12
3.8154415e-12
3.7529715e-12
3.6923276e-12
3.6333938e-12
3.576065e-12
3.5202408e-12
3.4658282e-12
3.4127439e-12
3.3609106e-12
3.3102539e-12
3.2607046e-12
3.2121993e-12
3.1646779e-12
3.1180851e-12
3.0723696e-12
3.0274822e-12
2.9833787e-12
2.94001e-12
2.8973344e-12
2.8553166e-12
2.8139179e-12
2.7731021e-12
2.7328346e-12
2.6930823e-12
2.6538151e-12
2.6150043e-12
2.5766202e-12
2.5386342e-12
2.5010199e-12
2.4637508e-12
2.4268018e-12
2.3901475e-12
2.3537637e-12
2.3176287e-12
2.2817187e-12
2.2460095e-12
2.2104787e-12
2.1751033e-12
2.1398608e-12
2.1047278e-12
2.0696812e-12
2.0346994e-12
1.9997584e-12
1.9648332e-12
1.9298991e-12
1.8949303e-12
1.8598991e-12
1.8247774e-12
1.7895365e-12
1.7541307e-12
1.718566e-12
1.683753e-12
1.6507593e-12
1.6196338e-12
1.5901857e-12
1.562293e-12
1.5358194e-12
1.5106459e-12
1.4866645e-12
1.4637772e-12
1.4418951e-12
1.4209371e-12
1.4008283e-12
1.3814969e-12
1.3628746e-12
1.3448914e-12
1.3274806e-12
1.3105513e-12
1.2940441e-12
1.2777427e-12
1.261767e-12
1.2449383e-12
1.2302926e-12
1.2081989e-12
6.5624552e-09
5.2622244e-09
4.8508843e-09
4.648295e-09
4.5210984e-09
4.432325e-09
4.3668772e-09
4.3169107e-09
4.2777835e-09
4.2465267e-09
4.2211393e-09
4.2002178e-09
4.182743e-09
4.1679517e-09
4.1552452e-09
4.1441479e-09
4.1341925e-09
4.1250824e-09
4.1158516e-09
4.1074097e-09
4.0918812e-09
4.0912259e-09
3.9899231e-09
3.637252e-09
3.2775861e-11
1.1962936e-11
1.6160176e-11
6.9646018e-12
1.1659837e-11
5.4567898e-12
9.6818947e-12
4.658225e-12
8.4759303e-12
7.7271269e-12
7.6233758e-12
7.1756896e-12
6.9625592e-12
6.669578e-12
6.4516334e-12
6.2323803e-12
6.0399955e-12
5.8597007e-12
5.6939544e-12
5.5395936e-12
5.3956949e-12
5.2609533e-12
5.1343832e-12
5.0151078e-12
4.9023884e-12
4.7955884e-12
4.6941505e-12
4.5975858e-12
4.5054658e-12
4.4174105e-12
4.3330852e-12
4.2521936e-12
4.1744668e-12
4.0996621e-12
4.0275634e-12
3.957975e-12
3.8907191e-12
3.8256359e-12
3.7625808e-12
3.7014185e-12
3.6420254e-12
3.5842892e-12
3.5281093e-12
3.4733874e-12
3.4200332e-12
3.3679658e-12
3.3171102e-12
3.2673939e-12
3.2187501e-12
3.171117e-12
3.1244363e-12
3.0786547e-12
3.0337232e-12
2.9895944e-12
2.9462251e-12
2.9035651e-12
2.8615752e-12
2.8202224e-12
2.7794691e-12
2.7392795e-12
2.6996202e-12
2.6604589e-12
2.6217663e-12
2.5835147e-12
2.545675e-12
2.5082196e-12
2.4711227e-12
2.4343585e-12
2.3979026e-12
2.3617303e-12
2.3258181e-12
2.2901447e-12
2.254687e-12
2.2194215e-12
2.1843262e-12
2.1493787e-12
2.1145569e-12
2.079838e-12
2.0451995e-12
2.0106202e-12
1.9760765e-12
1.9415438e-12
1.906998e-12
1.8724138e-12
1.8377637e-12
1.8030204e-12
1.7681552e-12
1.7331233e-12
1.6979305e-12
1.6634772e-12
1.6308205e-12
1.6000101e-12
1.5708579e-12
1.5432433e-12
1.5170318e-12
1.4921057e-12
1.4683585e-12
1.4456931e-12
1.4240218e-12
1.4032643e-12
1.3833465e-12
1.3641975e-12
1.3457498e-12
1.3279341e-12
1.3106841e-12
1.2939101e-12
1.2775531e-12
1.2613989e-12
1.2455667e-12
1.2288854e-12
1.2143665e-12
1.1924687e-12
6.5634513e-09
5.2577291e-09
4.8447675e-09
4.6414034e-09
4.5137289e-09
4.4246265e-09
4.3589387e-09
4.3087905e-09
4.2695219e-09
4.238153e-09
4.2126751e-09
4.1916798e-09
4.1741444e-09
4.159303e-09
4.1465554e-09
4.1354248e-09
4.1254437e-09
4.1163157e-09
4.1070775e-09
4.0986408e-09
4.0831472e-09
4.0825865e-09
3.981474e-09
3.6322143e-09
3.3257912e-11
1.1844039e-11
1.5745143e-11
6.8811833e-12
1.1375749e-11
5.3792779e-12
9.4561798e-12
4.5921321e-12
8.2881401e-12
7.5638796e-12
7.4610832e-12
7.0272938e-12
6.8202252e-12
6.5361332e-12
6.3246179e-12
6.1118945e-12
5.925155e-12
5.7500974e-12
5.5891048e-12
5.4391227e-12
5.2992672e-12
5.1682797e-12
5.0452011e-12
4.9291804e-12
4.8195017e-12
4.7155489e-12
4.6167827e-12
4.5227303e-12
4.4329772e-12
4.3471555e-12
4.2649419e-12
4.1860493e-12
4.1102178e-12
4.0372122e-12
3.9668233e-12
3.8988621e-12
3.8331565e-12
3.7695521e-12
3.7079087e-12
3.6480956e-12
3.5899933e-12
3.5334933e-12
3.4784991e-12
3.4249154e-12
3.372654e-12
3.3216367e-12
3.2717907e-12
3.2230459e-12
3.1753374e-12
3.1286054e-12
3.0827933e-12
3.03785e-12
2.993729e-12
2.9503843e-12
2.9077738e-12
2.8658465e-12
2.8245654e-12
2.7839003e-12
2.7438143e-12
2.7042725e-12
2.6652422e-12
2.6266922e-12
2.5885942e-12
2.550921e-12
2.5136447e-12
2.4767383e-12
2.4401767e-12
2.4039351e-12
2.3679896e-12
2.3323163e-12
2.2968923e-12
2.2616969e-12
2.2267077e-12
2.1919016e-12
2.1572574e-12
2.1227531e-12
2.0883673e-12
2.0540776e-12
2.019862e-12
1.9856998e-12
1.951568e-12
1.9174425e-12
1.8832995e-12
1.8491141e-12
1.8148597e-12
1.7805089e-12
1.7460339e-12
1.7113903e-12
1.676584e-12
1.6425045e-12
1.610198e-12
1.5797155e-12
1.5508711e-12
1.523546e-12
1.4976075e-12
1.4729393e-12
1.449436e-12
1.427002e-12
1.4055506e-12
1.3850024e-12
1.3652841e-12
1.3463256e-12
1.3280604e-12
1.3104196e-12
1.293338e-12
1.2767265e-12
1.2605269e-12
1.244527e-12
1.2288452e-12
1.212319e-12
1.1979336e-12
1.1762416e-12
6.5648031e-09
5.2517358e-09
4.8366079e-09
4.6322089e-09
4.5038967e-09
4.4143552e-09
4.3483471e-09
4.2979564e-09
4.2584993e-09
4.2269805e-09
4.2013818e-09
4.1802878e-09
4.162671e-09
4.1477621e-09
4.1349587e-09
4.1237824e-09
4.1137649e-09
4.1046104e-09
4.0953578e-09
4.0869222e-09
4.0714615e-09
4.0710105e-09
3.9700764e-09
3.6254335e-09
3.3788833e-11
1.1720837e-11
1.5316971e-11
6.7941655e-12
1.1081588e-11
5.2983079e-12
9.2220064e-12
4.5230548e-12
8.0930572e-12
7.3940917e-12
7.2922924e-12
6.8728574e-12
6.6720625e-12
6.3971654e-12
6.1923085e-12
5.9863483e-12
5.8054596e-12
5.6358315e-12
5.4797694e-12
5.3343307e-12
5.1986724e-12
5.0715833e-12
4.9521319e-12
4.8394935e-12
4.7329755e-12
4.6319832e-12
4.535996e-12
4.4445573e-12
4.3572672e-12
4.2737708e-12
4.1937556e-12
4.1169449e-12
4.0430878e-12
3.9719567e-12
3.9033496e-12
3.8370845e-12
3.7729951e-12
3.7109326e-12
3.6507616e-12
3.592356e-12
3.5356003e-12
3.4803901e-12
3.4266335e-12
3.3742377e-12
3.3231173e-12
3.2731964e-12
3.2244047e-12
3.1766744e-12
3.1299428e-12
3.0841521e-12
3.0392476e-12
2.9951801e-12
2.951906e-12
2.9093809e-12
2.8675638e-12
2.8264023e-12
2.7858622e-12
2.7459162e-12
2.706528e-12
2.6676636e-12
2.6292913e-12
2.5913808e-12
2.5539046e-12
2.5168367e-12
2.4801498e-12
2.4438179e-12
2.4078166e-12
2.372122e-12
2.3367108e-12
2.3015598e-12
2.2666469e-12
2.231952e-12
2.1974534e-12
2.1631286e-12
2.1289569e-12
2.094917e-12
2.0609879e-12
2.027148e-12
1.9933758e-12
1.959651e-12
1.9259511e-12
1.8922526e-12
1.8585321e-12
1.8247655e-12
1.7909262e-12
1.7569878e-12
1.7229226e-12
1.688687e-12
1.6542868e-12
1.6206004e-12
1.5886625e-12
1.558525e-12
1.5300048e-12
1.5029847e-12
1.4773338e-12
1.4529375e-12
1.4296917e-12
1.4075019e-12
1.3862826e-12
1.3659555e-12
1.346448e-12
1.3276911e-12
1.3096189e-12
1.2921635e-12
1.2752602e-12
1.258821e-12
1.2427883e-12
1.2269523e-12
1.2114302e-12
1.1950695e-12
1.1808261e-12
1.1593534e-12
6.5665703e-09
5.2441003e-09
4.826202e-09
4.6204809e-09
4.4913542e-09
4.4012523e-09
4.3348354e-09
4.2841352e-09
4.2444373e-09
4.2127274e-09
4.1869744e-09
4.1657541e-09
4.148033e-09
4.1330376e-09
4.1201621e-09
4.1089264e-09
4.0988611e-09
4.0896704e-09
4.0803958e-09
4.0719566e-09
4.0565264e-09
4.0562015e-09
3.9554335e-09
3.6167278e-09
3.4380147e-11
1.1592144e-11
1.487153e-11
6.7025722e-12
1.0774372e-11
5.2129554e-12
8.9769329e-12
4.4502026e-12
7.8886103e-12
7.2159273e-12
7.1151785e-12
6.7106945e-12
6.5164485e-12
6.2511436e-12
6.053242e-12
5.8543473e-12
5.6795751e-12
5.5156249e-12
5.3647216e-12
5.2240384e-12
5.0927756e-12
4.969771e-12
4.8541214e-12
4.7450291e-12
4.6418262e-12
4.54394e-12
4.4508692e-12
4.3621745e-12
4.2774709e-12
4.1964168e-12
4.1187117e-12
4.044089e-12
3.9723073e-12
3.9031472e-12
3.8364142e-12
3.7719332e-12
3.7095445e-12
3.6491047e-12
3.5904837e-12
3.5335598e-12
3.4782222e-12
3.4243705e-12
3.3719176e-12
3.3207735e-12
3.2708553e-12
3.2220899e-12
3.1744095e-12
3.1277488e-12
3.0820472e-12
3.037249e-12
2.9933016e-12
2.950158e-12
2.9077775e-12
2.8661173e-12
2.8251373e-12
2.784784e-12
2.745026e-12
2.705839e-12
2.6671875e-12
2.6290383e-12
2.5913607e-12
2.5541255e-12
2.5173062e-12
2.4808775e-12
2.4448132e-12
2.4090883e-12
2.3736791e-12
2.3385624e-12
2.3037158e-12
2.269117e-12
2.2347444e-12
2.2005787e-12
2.1665988e-12
2.132783e-12
2.099111e-12
2.0655624e-12
2.0321167e-12
1.9987528e-12
1.9654498e-12
1.932188e-12
1.8989455e-12
1.8656993e-12
1.8324266e-12
1.7991036e-12
1.7657045e-12
1.7322033e-12
1.6985728e-12
1.6647702e-12
1.6308013e-12
1.5975324e-12
1.5659862e-12
1.5362155e-12
1.5080401e-12
1.4813446e-12
1.4560001e-12
1.4318934e-12
1.408922e-12
1.3869926e-12
1.3660211e-12
1.3459301e-12
1.3266478e-12
1.3081063e-12
1.2902406e-12
1.2729835e-12
1.2562712e-12
1.2400166e-12
1.2241629e-12
1.2085028e-12
1.1931523e-12
1.1769697e-12
1.1628792e-12
1.1416426e-12
6.5688305e-09
5.234652e-09
4.8133084e-09
4.6059445e-09
4.4758067e-09
4.3850092e-09
4.3180852e-09
4.2670012e-09
4.2270047e-09
4.1950576e-09
4.169113e-09
4.147736e-09
4.1298854e-09
4.1147821e-09
4.1018167e-09
4.0905064e-09
4.0803805e-09
4.0711429e-09
4.0618378e-09
4.0533897e-09
4.0379876e-09
4.0378063e-09
3.9371911e-09
3.6058797e-09
3.5045571e-11
1.145691e-11
1.4405106e-11
6.6054554e-12
1.0451339e-11
5.1223107e-12
8.7186668e-12
4.372794e-12
7.6728358e-12
7.0276315e-12
6.9279973e-12
6.5391874e-12
6.3518232e-12
6.0965915e-12
5.9060045e-12
5.7145413e-12
5.5462073e-12
5.3882355e-12
5.2427673e-12
5.1070965e-12
4.9804692e-12
4.8617744e-12
4.7501377e-12
4.64479e-12
4.5450891e-12
4.4504851e-12
4.3604973e-12
4.2747042e-12
4.1927366e-12
4.1142668e-12
4.0390066e-12
3.9667004e-12
3.8971167e-12
3.8300444e-12
3.7652971e-12
3.7027071e-12
3.6421213e-12
3.5834022e-12
3.526425e-12
3.4710731e-12
3.41724e-12
3.36483e-12
3.313761e-12
3.2639456e-12
3.2153041e-12
3.1677658e-12
3.1212659e-12
3.0757414e-12
3.0311342e-12
2.9873908e-12
2.9444605e-12
2.9022991e-12
2.8608687e-12
2.8201282e-12
2.7800386e-12
2.7405447e-12
2.7016185e-12
2.663239e-12
2.6253714e-12
2.5879833e-12
2.5510451e-12
2.5145286e-12
2.4784084e-12
2.4426604e-12
2.4072591e-12
2.3721804e-12
2.3374017e-12
2.3029006e-12
2.2686556e-12
2.234645e-12
2.2008481e-12
2.1672463e-12
2.1338193e-12
2.100546e-12
2.0674069e-12
2.0343822e-12
2.0014519e-12
1.9685958e-12
1.9357935e-12
1.9030259e-12
1.8702717e-12
1.8375084e-12
1.8047139e-12
1.771865e-12
1.7389364e-12
1.7059026e-12
1.6727371e-12
1.6393978e-12
1.6058905e-12
1.5730689e-12
1.5419424e-12
1.512565e-12
1.4847595e-12
1.4584124e-12
1.4333968e-12
1.4096014e-12
1.3869249e-12
1.3652757e-12
1.3445709e-12
1.324734e-12
1.3056945e-12
1.2873852e-12
1.2697423e-12
1.2526993e-12
1.2361932e-12
1.2201383e-12
1.2044783e-12
1.1890086e-12
1.173844e-12
1.157855e-12
1.1439306e-12
1.1229506e-12
6.5716829e-09
5.2231967e-09
4.7976487e-09
4.5882829e-09
4.4569139e-09
4.36527e-09
4.2977292e-09
4.2461783e-09
4.2058187e-09
4.1735833e-09
4.1474058e-09
4.1258382e-09
4.1078298e-09
4.0925952e-09
4.0795199e-09
4.0681181e-09
4.0579172e-09
4.0486209e-09
4.0392759e-09
4.0308131e-09
4.0154361e-09
4.0154175e-09
3.9149401e-09
3.5926364e-09
3.5801538e-11
1.1314253e-11
1.3914454e-11
6.5018998e-12
1.0109982e-11
5.0254816e-12
8.4450861e-12
4.2900582e-12
7.4438936e-12
6.8275435e-12
6.7290975e-12
6.3567959e-12
6.1766983e-12
5.9320958e-12
5.749239e-12
5.5656313e-12
5.4041078e-12
5.2524629e-12
5.11275e-12
4.9823896e-12
4.8606766e-12
4.746553e-12
4.6391748e-12
4.5378024e-12
4.4418208e-12
4.3507041e-12
4.2639931e-12
4.1812852e-12
4.1022277e-12
4.0265076e-12
3.9538497e-12
3.8840099e-12
3.8167671e-12
3.751919e-12
3.6892878e-12
3.6287134e-12
3.5700498e-12
3.5131658e-12
3.4579422e-12
3.4042676e-12
3.3520403e-12
3.3011693e-12
3.2515779e-12
3.2031817e-12
3.1559037e-12
3.1096766e-12
3.064438e-12
3.0201278e-12
2.9766903e-12
2.9340745e-12
2.8922317e-12
2.8511207e-12
2.8107067e-12
2.7709503e-12
2.7318135e-12
2.6932392e-12
2.6552032e-12
2.6176881e-12
2.5806596e-12
2.5440864e-12
2.5079399e-12
2.4721932e-12
2.4368219e-12
2.4018029e-12
2.3671119e-12
2.3327257e-12
2.2986227e-12
2.2647814e-12
2.2311811e-12
2.1978011e-12
2.1646216e-12
2.1316246e-12
2.0987905e-12
2.0660992e-12
2.0335319e-12
2.0010693e-12
1.9686924e-12
1.9363815e-12
1.9041168e-12
1.87188e-12
1.8396504e-12
1.8074061e-12
1.7751257e-12
1.7427865e-12
1.710364e-12
1.6778333e-12
1.6451684e-12
1.6123281e-12
1.5793183e-12
1.5469788e-12
1.5163051e-12
1.4873522e-12
1.4599462e-12
1.4339755e-12
1.4093156e-12
1.3858568e-12
1.3634996e-12
1.3421538e-12
1.3217379e-12
1.3021767e-12
1.2834005e-12
1.2653433e-12
1.2479424e-12
1.2311322e-12
1.2148506e-12
1.1990129e-12
1.1835639e-12
1.168302e-12
1.15334e-12
1.137563e-12
1.1238202e-12
1.1031208e-12
6.5752526e-09
5.2095182e-09
4.7789108e-09
4.5671394e-09
4.4342926e-09
4.3416336e-09
4.2733533e-09
4.221243e-09
4.1804485e-09
4.1478676e-09
4.1214112e-09
4.099615e-09
4.0814176e-09
4.0660252e-09
4.0528179e-09
4.0413058e-09
4.031014e-09
4.0216459e-09
4.0122504e-09
4.0037662e-09
3.988411e-09
3.9885763e-09
3.8882201e-09
3.5767111e-09
3.6667883e-11
1.1163518e-11
1.3396877e-11
6.3910336e-12
9.7480933e-12
4.921599e-12
8.154276e-12
4.2012392e-12
7.2000952e-12
6.6141178e-12
6.516943e-12
6.1620771e-12
5.9896752e-12
5.7563224e-12
5.5816606e-12
5.4063825e-12
5.2520867e-12
5.1071596e-12
4.9735616e-12
4.8488464e-12
4.7323613e-12
4.6231034e-12
4.5202602e-12
4.4231235e-12
4.3311064e-12
4.2437086e-12
4.1604935e-12
4.0810783e-12
4.005128e-12
3.9323449e-12
3.8624676e-12
3.7952641e-12
3.7305244e-12
3.6680553e-12
3.6076881e-12
3.549271e-12
3.4926654e-12
3.4377467e-12
3.3844015e-12
3.3325241e-12
3.2820179e-12
3.2327967e-12
3.1847897e-12
3.1379155e-12
3.0921004e-12
3.04728e-12
3.003395e-12
2.9603882e-12
2.9182067e-12
2.8768015e-12
2.8361267e-12
2.796144e-12
2.7568223e-12
2.7181235e-12
2.6800109e-12
2.6424248e-12
2.6053458e-12
2.5687601e-12
2.5326341e-12
2.4969374e-12
2.4616426e-12
2.4267241e-12
2.3921586e-12
2.3579242e-12
2.3239976e-12
2.2903569e-12
2.2569814e-12
2.2238505e-12
2.1909446e-12
2.1582439e-12
2.1257293e-12
2.0933839e-12
2.0611889e-12
2.0291249e-12
1.997174e-12
1.9653176e-12
1.9335374e-12
1.9018145e-12
1.87013e-12
1.8384661e-12
1.8068028e-12
1.775119e-12
1.7433939e-12
1.7116056e-12
1.6797302e-12
1.6477434e-12
1.6156201e-12
1.58332e-12
1.5508489e-12
1.5190319e-12
1.488849e-12
1.4603565e-12
1.4333841e-12
1.4078223e-12
1.3835488e-12
1.360456e-12
1.3384462e-12
1.3174307e-12
1.2973296e-12
1.2780687e-12
1.2595797e-12
1.2417977e-12
1.2246611e-12
1.2081052e-12
1.1920689e-12
1.176469e-12
1.1612511e-12
1.1462168e-12
1.1314772e-12
1.115933e-12
1.1023898e-12
1.081999e-12
6.5796976e-09
5.1933821e-09
4.7567503e-09
4.54212e-09
4.4075192e-09
4.3136563e-09
4.2444996e-09
4.1917266e-09
4.1504171e-09
4.1174273e-09
4.0906405e-09
4.0685739e-09
4.0501526e-09
4.0345732e-09
4.0212092e-09
4.0095659e-09
3.9991656e-09
3.989711e-09
3.9802531e-09
3.9717403e-09
3.9564029e-09
3.956775e-09
3.8565225e-09
3.5577832e-09
3.76687e-11
1.1004349e-11
1.2850342e-11
6.2720447e-12
9.3638386e-12
4.8098285e-12
7.8445805e-12
4.1056035e-12
6.9399441e-12
6.3859586e-12
6.2901462e-12
5.9537145e-12
5.7894732e-12
5.5680416e-12
5.4020794e-12
5.2356466e-12
5.089033e-12
4.9512497e-12
4.8241595e-12
4.7054558e-12
4.594542e-12
4.4904729e-12
4.3924688e-12
4.2998539e-12
4.2120712e-12
4.1286475e-12
4.0491699e-12
3.9732767e-12
3.9006513e-12
3.8310124e-12
3.764113e-12
3.6997341e-12
3.637677e-12
3.5777587e-12
3.5198197e-12
3.4637173e-12
3.4093206e-12
3.3565119e-12
3.3051841e-12
3.2552374e-12
3.2065806e-12
3.1591328e-12
3.1128294e-12
3.0675921e-12
3.0233506e-12
2.9800438e-12
2.9376156e-12
2.8960118e-12
2.8551823e-12
2.815081e-12
2.7756641e-12
2.7368971e-12
2.6987524e-12
2.6611938e-12
2.6241853e-12
2.5876646e-12
2.5516174e-12
2.5160341e-12
2.4808816e-12
2.4461305e-12
2.4117548e-12
2.37773e-12
2.3440343e-12
2.3106469e-12
2.2775457e-12
2.2447101e-12
2.2121202e-12
2.1797568e-12
2.147601e-12
2.1156343e-12
2.0838384e-12
2.0521973e-12
2.0206932e-12
1.9893075e-12
1.9580232e-12
1.9268225e-12
1.8956881e-12
1.8646017e-12
1.8335452e-12
1.8025016e-12
1.7714517e-12
1.7403752e-12
1.7092521e-12
1.678061e-12
1.646779e-12
1.6153826e-12
1.5838473e-12
1.5521338e-12
1.5202481e-12
1.4889991e-12
1.4593502e-12
1.4313591e-12
1.404859e-12
1.3797426e-12
1.3558906e-12
1.3331972e-12
1.3115666e-12
1.2909119e-12
1.2711549e-12
1.2522226e-12
1.2340479e-12
1.2165672e-12
1.1997202e-12
1.1834433e-12
1.1676762e-12
1.1523373e-12
1.1373733e-12
1.1225894e-12
1.1080944e-12
1.0928071e-12
1.079484e-12
1.0594336e-12
6.5852158e-09
5.1745389e-09
4.7307945e-09
4.5127962e-09
4.3761325e-09
4.2808551e-09
4.2106695e-09
4.1571191e-09
4.1152055e-09
4.0817362e-09
4.0545622e-09
4.0321785e-09
4.0134946e-09
3.997696e-09
3.984148e-09
3.9723503e-09
3.9618219e-09
3.9522645e-09
3.9427312e-09
3.9341815e-09
3.9188577e-09
3.9194615e-09
3.8192948e-09
3.5354992e-09
3.8833443e-11
1.0836789e-11
1.2273611e-11
6.1442046e-12
8.9558438e-12
4.6893856e-12
7.5146719e-12
4.0024522e-12
6.6621907e-12
6.1418645e-12
6.047513e-12
5.7305587e-12
5.5749666e-12
5.3661628e-12
5.2094333e-12
5.0523914e-12
4.913942e-12
4.7837557e-12
4.6635916e-12
4.5512902e-12
4.4463151e-12
4.3477809e-12
4.2549417e-12
4.167156e-12
4.0838982e-12
4.0047235e-12
3.9292441e-12
3.8571204e-12
3.7880552e-12
3.7217848e-12
3.6580772e-12
3.5967269e-12
3.5375477e-12
3.4803667e-12
3.4250348e-12
3.3714184e-12
3.319395e-12
3.2688541e-12
3.2196954e-12
3.1718253e-12
3.1251582e-12
3.0796189e-12
3.0351494e-12
2.9916749e-12
2.9491283e-12
2.9074523e-12
2.866594e-12
2.8265026e-12
2.7871309e-12
2.7484355e-12
2.7103754e-12
2.6729201e-12
2.636046e-12
2.5997184e-12
2.563902e-12
2.5285316e-12
2.4935987e-12
2.4590982e-12
2.4249976e-12
2.3912684e-12
2.3578861e-12
2.3248275e-12
2.2920723e-12
2.2596007e-12
2.2273924e-12
2.1954275e-12
2.1636878e-12
2.1321548e-12
2.100811e-12
2.0696387e-12
2.038621e-12
2.0077427e-12
1.9769868e-12
1.946336e-12
1.9157741e-12
1.8852842e-12
1.8548497e-12
1.8244535e-12
1.7940782e-12
1.7637077e-12
1.7333236e-12
1.7029065e-12
1.6724371e-12
1.6418949e-12
1.611258e-12
1.5805035e-12
1.5496077e-12
1.5185328e-12
1.4872845e-12
1.4566546e-12
1.4275879e-12
1.4001436e-12
1.3741589e-12
1.3495292e-12
1.3261378e-12
1.3038811e-12
1.2826655e-12
1.2624058e-12
1.2430256e-12
1.2244535e-12
1.2066236e-12
1.1894736e-12
1.1729446e-12
1.1569741e-12
1.141503e-12
1.1264515e-12
1.1117671e-12
1.0972591e-12
1.0830337e-12
1.0680303e-12
1.0549504e-12
1.0352761e-12
6.5920556e-09
5.1527293e-09
4.7006462e-09
4.4787096e-09
4.3396381e-09
4.242712e-09
4.1713282e-09
4.116873e-09
4.0742568e-09
4.04023e-09
4.012606e-09
3.9898538e-09
3.9708647e-09
3.9548111e-09
3.941049e-09
3.9290715e-09
3.9183933e-09
3.9087153e-09
3.8990923e-09
3.8904965e-09
3.8751813e-09
3.8760436e-09
3.7759462e-09
3.5094737e-09
4.0198318e-11
1.0661416e-11
1.1666402e-11
6.0068999e-12
8.5233056e-12
4.5595579e-12
7.1636357e-12
3.8911385e-12
6.3659016e-12
5.8808867e-12
5.7881012e-12
5.4916788e-12
5.3452349e-12
5.1497801e-12
5.0028307e-12
4.8557411e-12
4.7259536e-12
4.6038329e-12
4.4910292e-12
4.3855367e-12
4.2868834e-12
4.1942459e-12
4.1069132e-12
4.0242793e-12
3.9458519e-12
3.8712158e-12
3.8000096e-12
3.731917e-12
3.6666613e-12
3.6039969e-12
3.5437081e-12
3.4856034e-12
3.4295097e-12
3.375265e-12
3.3227307e-12
3.2717833e-12
3.2223088e-12
3.1742048e-12
3.1273777e-12
3.0817404e-12
3.0372137e-12
2.993728e-12
2.9512326e-12
2.9096561e-12
2.8689352e-12
2.8290162e-12
2.7898498e-12
2.7513887e-12
2.7135888e-12
2.6764098e-12
2.6398134e-12
2.6037738e-12
2.5682715e-12
2.5332731e-12
2.4987444e-12
2.4646162e-12
2.4308871e-12
2.3975568e-12
2.3645931e-12
2.3319687e-12
2.2996604e-12
2.2676468e-12
2.2359088e-12
2.2044282e-12
2.1731859e-12
2.1421635e-12
2.1113439e-12
2.08071e-12
2.0502455e-12
2.0199338e-12
1.9897591e-12
1.9597073e-12
1.9297625e-12
1.8999083e-12
1.8701296e-12
1.8404106e-12
1.8107355e-12
1.7810882e-12
1.7514524e-12
1.7218127e-12
1.6921518e-12
1.662451e-12
1.6326921e-12
1.6028556e-12
1.5729202e-12
1.5428643e-12
1.512665e-12
1.4822856e-12
1.4517322e-12
1.4217773e-12
1.3933459e-12
1.3664986e-12
1.3410772e-12
1.3169794e-12
1.2940918e-12
1.2723131e-12
1.2515518e-12
1.2317251e-12
1.2127581e-12
1.1945811e-12
1.1771296e-12
1.1603428e-12
1.1441634e-12
1.1285299e-12
1.1133846e-12
1.0986493e-12
1.084273e-12
1.0700693e-12
1.0561415e-12
1.0414519e-12
1.0286408e-12
1.0093824e-12
6.6005285e-09
5.1276898e-09
4.6658886e-09
4.4393763e-09
4.2975136e-09
4.1986791e-09
4.12591e-09
4.0704095e-09
4.0269823e-09
3.9923123e-09
3.9641691e-09
3.940992e-09
3.9216509e-09
3.9053033e-09
3.891294e-09
3.8791087e-09
3.8682573e-09
3.8584389e-09
3.8487104e-09
3.8400585e-09
3.8247468e-09
3.8258961e-09
3.7258544e-09
3.4792904e-09
4.1808052e-11
1.0479512e-11
1.1029567e-11
5.8596735e-12
8.0661171e-12
4.4197342e-12
6.7910722e-12
3.7710892e-12
6.0505426e-12
5.6024006e-12
5.5112914e-12
5.236427e-12
5.0996237e-12
4.918229e-12
4.7816036e-12
4.645026e-12
4.5243986e-12
4.4108147e-12
4.3058092e-12
4.207537e-12
4.1155944e-12
4.029222e-12
3.9477444e-12
3.8705927e-12
3.7973089e-12
3.7275091e-12
3.6608595e-12
3.5970681e-12
3.5358798e-12
3.4770679e-12
3.4204335e-12
3.3658002e-12
3.3130085e-12
3.2619074e-12
3.2123701e-12
3.164283e-12
3.1175418e-12
3.0720518e-12
3.027727e-12
2.9844872e-12
2.9422594e-12
2.9009803e-12
2.8606069e-12
2.8210714e-12
2.7823144e-12
2.7442859e-12
2.7069407e-12
2.6702349e-12
2.6341279e-12
2.5985825e-12
2.5635633e-12
2.5290499e-12
2.4950271e-12
2.4614629e-12
2.4283235e-12
2.3955355e-12
2.3631056e-12
2.3310387e-12
2.2993028e-12
2.2678717e-12
2.2367239e-12
2.2058395e-12
2.175201e-12
2.1447917e-12
2.114594e-12
2.0845909e-12
2.0547668e-12
2.0251057e-12
1.9955928e-12
1.9662126e-12
1.9369506e-12
1.9077938e-12
1.8787275e-12
1.8497365e-12
1.8208066e-12
1.7919232e-12
1.7630716e-12
1.7342367e-12
1.7054031e-12
1.6765566e-12
1.6476808e-12
1.6187581e-12
1.5897712e-12
1.5607016e-12
1.5315292e-12
1.5022333e-12
1.472792e-12
1.4431701e-12
1.4133738e-12
1.3841548e-12
1.3564165e-12
1.3302209e-12
1.3054147e-12
1.2818983e-12
1.2595616e-12
1.2383059e-12
1.2180422e-12
1.1986896e-12
1.1801756e-12
1.1624319e-12
1.1453957e-12
1.1290078e-12
1.1132124e-12
1.0979494e-12
1.0831624e-12
1.0687754e-12
1.0547385e-12
1.0408702e-12
1.0272704e-12
1.0129275e-12
1.0004134e-12
9.8161462e-13
6.6110253e-09
5.0991613e-09
4.6260927e-09
4.3942945e-09
4.2492157e-09
4.1481864e-09
4.0738261e-09
4.0171264e-09
3.9727692e-09
3.9373623e-09
3.9086246e-09
3.8849609e-09
3.8652169e-09
3.8485327e-09
3.8342404e-09
3.821817e-09
3.8107665e-09
3.8007866e-09
3.7909354e-09
3.7822164e-09
3.7669023e-09
3.7683689e-09
3.6683759e-09
3.4445038e-09
4.3718127e-11
1.0293291e-11
1.0365277e-11
5.7022762e-12
7.5850072e-12
4.2694403e-12
6.3972119e-12
3.6418341e-12
5.7160755e-12
5.3061884e-12
5.2168712e-12
4.9645145e-12
4.837817e-12
4.6711541e-12
4.545372e-12
4.4198428e-12
4.3088562e-12
4.2042656e-12
4.1074849e-12
4.0168354e-12
3.9319858e-12
3.8522421e-12
3.7769651e-12
3.7056238e-12
3.6377961e-12
3.5731306e-12
3.5113218e-12
3.4521034e-12
3.3952424e-12
3.340532e-12
3.2877909e-12
3.2368582e-12
3.1875885e-12
3.1398427e-12
3.0935058e-12
3.0484753e-12
3.0046561e-12
2.9619622e-12
2.9203153e-12
2.8796423e-12
2.839877e-12
2.8009627e-12
2.7628642e-12
2.7255178e-12
2.6888679e-12
2.6528687e-12
2.617479e-12
2.5826586e-12
2.5483705e-12
2.5145809e-12
2.4812574e-12
2.4483858e-12
2.4159552e-12
2.3839348e-12
2.3522913e-12
2.3209463e-12
2.2899158e-12
2.2592101e-12
2.2287975e-12
2.1986528e-12
2.1687563e-12
2.1390898e-12
2.1096374e-12
2.080384e-12
2.0513138e-12
2.0224111e-12
1.9936619e-12
1.9650516e-12
1.9365666e-12
1.908193e-12
1.8799175e-12
1.8517283e-12
1.823612e-12
1.7955547e-12
1.7675432e-12
1.7395642e-12
1.7116041e-12
1.683649e-12
1.6556846e-12
1.6276976e-12
1.5996729e-12
1.571594e-12
1.5434447e-12
1.5152077e-12
1.4868638e-12
1.4583935e-12
1.4297761e-12
1.4009781e-12
1.3720056e-12
1.343588e-12
1.3166049e-12
1.2911198e-12
1.2669846e-12
1.2441028e-12
1.2223677e-12
1.2016836e-12
1.1819639e-12
1.1631301e-12
1.145112e-12
1.1278429e-12
1.1112618e-12
1.0953114e-12
1.0799373e-12
1.0650811e-12
1.0506877e-12
1.0366834e-12
1.0230198e-12
1.0095206e-12
9.9628214e-13
9.8232156e-13
9.7013498e-13
9.5184339e-13
6.6240361e-09
5.0668994e-09
4.5808265e-09
4.3429532e-09
4.1941899e-09
4.0906512e-09
4.0144747e-09
3.9564076e-09
3.9109914e-09
3.8747457e-09
3.8453319e-09
3.821115e-09
3.8009131e-09
3.7838462e-09
3.7692322e-09
3.756538e-09
3.7452608e-09
3.7350963e-09
3.725104e-09
3.716306e-09
3.7009834e-09
3.7027985e-09
3.6028513e-09
3.4046469e-09
4.5997605e-11
1.0106188e-11
9.6771902e-12
5.5347304e-12
7.0816848e-12
4.1083834e-12
5.9830392e-12
3.5030404e-12
5.3630648e-12
4.9925339e-12
4.9051284e-12
4.676098e-12
4.5599211e-12
4.408587e-12
4.2941176e-12
4.1801249e-12
4.0792202e-12
3.9840449e-12
3.8958862e-12
3.8132366e-12
3.7358408e-12
3.6630709e-12
3.5943237e-12
3.5291074e-12
3.4670366e-12
3.407793e-12
3.351101e-12
3.2967201e-12
3.2444404e-12
3.1940758e-12
3.1454629e-12