/*--------------------------------*- C++ -*----------------------------------*\
| =========                 |                                                 |
| \\      /  F ield         | OpenFOAM: The Open Source CFD Toolbox           |
|  \\    /   O peration     | Version:  2206                                  |
|   \\  /    A nd           | Website:  www.openfoam.com                      |
|    \\/     M anipulation  |                                                 |
\*---------------------------------------------------------------------------*/
FoamFile
{
    version     2.0;
    format      ascii;
    arch        "LSB;label=32;scalar=64";
    class       volScalarField;
    location    "2000";
    object      p;
}
// * * * * * * * * * * * * * * * * * * * * * * * * * * * * * * * * * * * * * //

dimensions      [0 2 -2 0 0 0 0];

internalField   nonuniform List<scalar> 
13056
(
0.011679464
0.011786053
0.012007571
0.012287048
0.012628147
0.013030132
0.013489744
0.014006162
0.014580996
0.015217564
0.015920884
0.016698165
0.017559314
0.018518494
0.019594381
0.020817081
0.022221053
0.02388697
0.025861331
0.028461294
0.03153577
0.036951521
0.041864683
0.082559638
0.051911738
0.0014919715
0.00075377498
0.0018414824
0.0023534546
0.0027766108
0.0030433014
0.0032351962
0.0033754041
0.003473562
0.0035423377
0.0035913992
0.0036264049
0.0036508929
0.0036673634
0.0036778455
0.0036837155
0.0036858566
0.0036850386
0.0036818834
0.0036767866
0.0036700498
0.0036619525
0.0036526985
0.003642468
0.0036313812
0.003619522
0.0036069837
0.0035938336
0.0035801337
0.0035659432
0.0035512851
0.0035361772
0.0035206478
0.0035047179
0.0034884004
0.0034717106
0.0034546654
0.0034372571
0.0034194779
0.003401333
0.0033828202
0.0033639375
0.003344679
0.0033250436
0.0033050297
0.0032846119
0.0032637722
0.0032425035
0.003220792
0.0031986212
0.0031759787
0.0031528429
0.0031292068
0.0031050456
0.0030803136
0.0030549961
0.0030290683
0.0030024999
0.002975263
0.0029473253
0.0029186557
0.0028892238
0.0028589764
0.0028278631
0.0027958445
0.0027628707
0.0027288875
0.0026938421
0.0026576678
0.002620312
0.0025817
0.0025417329
0.002500338
0.0024574243
0.0024128926
0.0023666403
0.0023185462
0.0022684991
0.0022163602
0.0021619597
0.002105148
0.0020457482
0.0019835723
0.0019184096
0.0018500665
0.0017782924
0.0017028227
0.0016237857
0.001541699
0.0014583618
0.0013760371
0.0012953648
0.0012162269
0.0011386429
0.0010626439
0.00098827645
0.00091561993
0.0008447837
0.00077591589
0.00070919316
0.00064484822
0.00058320955
0.00052468552
0.00046989613
0.00041945895
0.00037492905
0.00033664112
0.00031043999
0.00029008539
0.00043630789
-0.00039492729
0.011679464
0.011786053
0.012007572
0.012287048
0.012628147
0.013030132
0.013489744
0.014006162
0.014580996
0.015217564
0.015920884
0.016698165
0.017559314
0.018518494
0.019594382
0.020817082
0.022221054
0.023886972
0.025861334
0.028461298
0.031535776
0.036951532
0.041864721
0.082554426
0.051923448
0.0014995611
0.00075576305
0.0018423444
0.002353981
0.0027769828
0.003043583
0.0032354198
0.0033755871
0.0034737152
0.0035424686
0.0035915126
0.0036265042
0.0036509807
0.0036674417
0.0036779158
0.0036837791
0.0036859144
0.0036850913
0.0036819317
0.0036768311
0.0036700909
0.0036619905
0.0036527338
0.0036425008
0.0036314119
0.0036195507
0.0036070106
0.0035938589
0.0035801574
0.0035659655
0.0035513061
0.0035361971
0.0035206666
0.0035047356
0.0034884172
0.0034717265
0.0034546806
0.0034372715
0.0034194916
0.003401346
0.0033828325
0.0033639493
0.0033446902
0.0033250543
0.0033050399
0.0032846216
0.0032637815
0.0032425124
0.0032208005
0.0031986293
0.0031759864
0.0031528502
0.0031292139
0.0031050523
0.0030803201
0.0030550022
0.0030290742
0.0030025056
0.0029752684
0.0029473305
0.0029186606
0.0028892285
0.0028589809
0.0028278674
0.0027958486
0.0027628746
0.0027288913
0.0026938456
0.0026576712
0.0026203153
0.0025817031
0.0025417359
0.0025003408
0.002457427
0.0024128952
0.0023666427
0.0023185485
0.0022685013
0.0022163623
0.0021619616
0.0021051499
0.00204575
0.001983574
0.0019184112
0.001850068
0.0017782938
0.0017028241
0.001623787
0.0015417001
0.0014583629
0.0013760381
0.0012953658
0.0012162278
0.0011386438
0.0010626447
0.00098827725
0.0009156207
0.00084478443
0.0007759166
0.00070919383
0.00064484887
0.00058321017
0.00052468613
0.00046989671
0.00041945952
0.00037492961
0.00033664167
0.00031044054
0.00029008599
0.0004363085
-0.00039492689
0.011679464
0.011786053
0.012007572
0.012287048
0.012628147
0.013030132
0.013489744
0.014006162
0.014580996
0.015217564
0.015920884
0.016698165
0.017559315
0.018518495
0.019594383
0.020817083
0.022221056
0.023886975
0.025861337
0.028461303
0.031535782
0.036951544
0.041864754
0.082549574
0.051939405
0.0015066239
0.00075795236
0.001843352
0.0023545964
0.0027774177
0.0030439122
0.0032356811
0.003375801
0.0034738944
0.0035426215
0.003591645
0.0036266202
0.0036510833
0.0036675333
0.003677998
0.0036838534
0.0036859819
0.003685153
0.0036819882
0.0036768831
0.0036701389
0.003662035
0.0036527751
0.0036425393
0.0036314478
0.0036195843
0.003607042
0.0035938884
0.0035801851
0.0035659916
0.0035513307
0.0035362203
0.0035206886
0.0035047564
0.0034884369
0.0034717452
0.0034546983
0.0034372883
0.0034195076
0.0034013612
0.003382847
0.003363963
0.0033447033
0.0033250668
0.0033050518
0.003284633
0.0032637923
0.0032425228
0.0032208104
0.0031986388
0.0031759954
0.0031528589
0.0031292221
0.0031050602
0.0030803276
0.0030550094
0.0030290811
0.0030025121
0.0029752747
0.0029473365
0.0029186663
0.002889234
0.0028589861
0.0028278724
0.0027958534
0.0027628792
0.0027288956
0.0026938498
0.0026576752
0.0026203191
0.0025817067
0.0025417393
0.0025003441
0.0024574301
0.0024128982
0.0023666456
0.0023185512
0.0022685039
0.0022163647
0.002161964
0.0021051521
0.002045752
0.0019835759
0.0019184131
0.0018500697
0.0017782954
0.0017028256
0.0016237884
0.0015417015
0.0014583642
0.0013760393
0.0012953669
0.0012162289
0.0011386448
0.0010626457
0.00098827819
0.0009156216
0.00084478529
0.00077591742
0.00070919462
0.00064484963
0.00058321091
0.00052468684
0.0004698974
0.00041946019
0.00037493026
0.00033664231
0.0003104412
0.00029008664
0.00043630922
-0.00039492645
0.011679464
0.011786053
0.012007572
0.012287048
0.012628147
0.013030132
0.013489744
0.014006162
0.014580996
0.015217565
0.015920885
0.016698166
0.017559315
0.018518496
0.019594384
0.020817084
0.022221057
0.023886977
0.02586134
0.028461308
0.031535788
0.036951554
0.041864786
0.082544865
0.051957085
0.0015116295
0.00075998688
0.0018443285
0.0023551928
0.0027778392
0.0030442313
0.0032359345
0.0033760083
0.0034740681
0.0035427697
0.0035917734
0.0036267327
0.0036511828
0.003667622
0.0036780777
0.0036839254
0.0036860474
0.0036852127
0.003682043
0.0036769335
0.0036701854
0.0036620781
0.0036528151
0.0036425766
0.0036314826
0.0036196168
0.0036070724
0.003593917
0.003580212
0.0035660169
0.0035513546
0.0035362428
0.0035207099
0.0035047765
0.0034884559
0.0034717633
0.0034547154
0.0034373046
0.003419523
0.0034013759
0.003382861
0.0033639764
0.003344716
0.0033250789
0.0033050634
0.003284644
0.0032638029
0.0032425328
0.00322082
0.0031986479
0.0031760042
0.0031528672
0.0031292301
0.0031050679
0.0030803349
0.0030550164
0.0030290878
0.0030025185
0.0029752808
0.0029473423
0.0029186719
0.0028892393
0.0028589912
0.0028278773
0.0027958581
0.0027628836
0.0027288999
0.0026938539
0.0026576791
0.0026203228
0.0025817103
0.0025417427
0.0025003473
0.0024574332
0.0024129011
0.0023666483
0.0023185539
0.0022685064
0.0022163671
0.0021619662
0.0021051542
0.002045754
0.0019835778
0.0019184149
0.0018500714
0.001778297
0.0017028271
0.0016237898
0.0015417028
0.0014583654
0.0013760405
0.0012953681
0.00121623
0.0011386458
0.0010626467
0.0009882791
0.00091562246
0.00084478612
0.00077591821
0.00070919539
0.00064485036
0.00058321161
0.00052468752
0.00046989806
0.00041946083
0.0003749309
0.00033664293
0.00031044183
0.00029008725
0.00043630991
-0.00039492604
0.011679464
0.011786053
0.012007572
0.012287048
0.012628147
0.013030132
0.013489744
0.014006163
0.014580996
0.015217565
0.015920885
0.016698166
0.017559316
0.018518497
0.019594385
0.020817086
0.022221059
0.023886979
0.025861343
0.028461312
0.031535794
0.036951565
0.041864821
0.08253976
0.051975869
0.0015173799
0.00076207081
0.0018453344
0.0023558074
0.0027782734
0.00304456
0.0032361955
0.0033762218
0.003474247
0.0035429225
0.0035919056
0.0036268485
0.0036512853
0.0036677134
0.0036781599
0.0036839996
0.0036861148
0.0036852743
0.0036820994
0.0036769854
0.0036702334
0.0036621225
0.0036528564
0.003642615
0.0036315184
0.0036196503
0.0036071038
0.0035939464
0.0035802397
0.003566043
0.0035513792
0.003536266
0.0035207318
0.0035047973
0.0034884756
0.0034717819
0.0034547331
0.0034373214
0.003419539
0.0034013911
0.0033828754
0.0033639901
0.0033447291
0.0033250914
0.0033050752
0.0032846553
0.0032638137
0.0032425431
0.0032208298
0.0031986573
0.0031760132
0.0031528758
0.0031292383
0.0031050757
0.0030803424
0.0030550236
0.0030290946
0.0030025251
0.0029752871
0.0029473483
0.0029186777
0.0028892448
0.0028589965
0.0028278823
0.0027958629
0.0027628882
0.0027289043
0.002693858
0.0026576831
0.0026203266
0.0025817139
0.0025417461
0.0025003506
0.0024574363
0.0024129041
0.0023666512
0.0023185566
0.0022685089
0.0022163695
0.0021619685
0.0021051564
0.0020457561
0.0019835798
0.0019184167
0.0018500732
0.0017782987
0.0017028287
0.0016237913
0.0015417042
0.0014583667
0.0013760417
0.0012953692
0.0012162311
0.0011386469
0.0010626477
0.00098828004
0.00091562336
0.00084478698
0.00077591904
0.00070919617
0.00064485112
0.00058321234
0.00052468823
0.00046989875
0.0004194615
0.00037493155
0.00033664357
0.00031044248
0.00029008788
0.00043631063
-0.00039492562
0.011679464
0.011786053
0.012007572
0.012287048
0.012628148
0.013030132
0.013489745
0.014006163
0.014580997
0.015217565
0.015920886
0.016698167
0.017559317
0.018518497
0.019594386
0.020817087
0.022221061
0.023886982
0.025861347
0.028461318
0.031535802
0.036951577
0.041864862
0.082534079
0.051995444
0.0015246519
0.00076429609
0.0018464056
0.0023564619
0.0027787359
0.0030449101
0.0032364735
0.0033764493
0.0034744375
0.0035430851
0.0035920465
0.0036269719
0.0036513945
0.0036678108
0.0036782473
0.0036840787
0.0036861866
0.0036853399
0.0036821595
0.0036770407
0.0036702844
0.0036621698
0.0036529003
0.0036426558
0.0036315565
0.0036196859
0.0036071373
0.0035939778
0.0035802692
0.0035660708
0.0035514053
0.0035362907
0.0035207551
0.0035048194
0.0034884965
0.0034718017
0.0034547519
0.0034373393
0.003419556
0.0034014072
0.0033828908
0.0033640047
0.0033447431
0.0033251047
0.0033050879
0.0032846674
0.0032638252
0.0032425541
0.0032208403
0.0031986674
0.0031760228
0.003152885
0.0031292471
0.0031050841
0.0030803504
0.0030550313
0.003029102
0.0030025321
0.0029752938
0.0029473547
0.0029186838
0.0028892507
0.0028590021
0.0028278877
0.002795868
0.0027628931
0.0027289089
0.0026938625
0.0026576873
0.0026203306
0.0025817177
0.0025417498
0.0025003541
0.0024574396
0.0024129073
0.0023666542
0.0023185594
0.0022685117
0.0022163721
0.002161971
0.0021051587
0.0020457583
0.0019835819
0.0019184187
0.001850075
0.0017783004
0.0017028303
0.0016237929
0.0015417057
0.0014583681
0.001376043
0.0012953704
0.0012162322
0.001138648
0.0010626487
0.00098828104
0.00091562431
0.00084478789
0.00077591991
0.00070919701
0.00064485193
0.00058321312
0.00052468898
0.00046989947
0.00041946221
0.00037493224
0.00033664426
0.00031044317
0.00029008854
0.00043631139
-0.00039492518
0.011679464
0.011786053
0.012007572
0.012287048
0.012628148
0.013030133
0.013489745
0.014006163
0.014580997
0.015217566
0.015920886
0.016698168
0.017559318
0.018518499
0.019594387
0.020817089
0.022221064
0.023886986
0.025861351
0.028461325
0.031535811
0.036951591
0.04186491
0.082527726
0.052016059
0.0015326306
0.00076669193
0.0018475581
0.0023571663
0.0027792336
0.0030452869
0.0032367726
0.0033766941
0.0034746426
0.0035432601
0.003592198
0.0036271047
0.0036515119
0.0036679155
0.0036783414
0.0036841637
0.0036862639
0.0036854104
0.0036822242
0.0036771002
0.0036703394
0.0036622207
0.0036529475
0.0036426998
0.0036315976
0.0036197243
0.0036071732
0.0035940115
0.0035803009
0.0035661006
0.0035514335
0.0035363173
0.0035207803
0.0035048431
0.003488519
0.0034718231
0.0034547722
0.0034373585
0.0034195742
0.0034014246
0.0033829073
0.0033640205
0.0033447581
0.0033251189
0.0033051015
0.0032846804
0.0032638376
0.003242566
0.0032208517
0.0031986782
0.0031760331
0.0031528949
0.0031292565
0.0031050931
0.003080359
0.0030550395
0.0030291098
0.0030025396
0.002975301
0.0029473616
0.0029186904
0.0028892569
0.0028590081
0.0028278934
0.0027958735
0.0027628983
0.0027289139
0.0026938673
0.0026576919
0.002620335
0.0025817219
0.0025417538
0.0025003579
0.0024574432
0.0024129107
0.0023666574
0.0023185625
0.0022685146
0.0022163749
0.0021619736
0.0021051612
0.0020457607
0.0019835841
0.0019184208
0.001850077
0.0017783023
0.0017028321
0.0016237945
0.0015417072
0.0014583696
0.0013760444
0.0012953718
0.0012162335
0.0011386492
0.0010626498
0.00098828211
0.00091562534
0.00084478887
0.00077592085
0.00070919791
0.00064485279
0.00058321396
0.00052468979
0.00046990026
0.00041946297
0.00037493299
0.00033664499
0.00031044391
0.00029008926
0.00043631221
-0.00039492469
0.011679464
0.011786053
0.012007572
0.012287048
0.012628148
0.013030133
0.013489745
0.014006163
0.014580997
0.015217566
0.015920887
0.016698168
0.017559319
0.0185185
0.019594389
0.020817092
0.022221067
0.02388699
0.025861357
0.028461334
0.031535822
0.03695161
0.041864966
0.08252056
0.052037986
0.0015411797
0.00076928809
0.0018488072
0.0023579298
0.0027797731
0.0030456953
0.0032370968
0.0033769594
0.0034748648
0.0035434498
0.0035923623
0.0036272486
0.0036516392
0.0036680291
0.0036784434
0.0036842559
0.0036863476
0.0036854868
0.0036822943
0.0036771647
0.0036703989
0.0036622758
0.0036529988
0.0036427475
0.0036316421
0.0036197659
0.0036072122
0.0035940481
0.0035803353
0.003566133
0.003551464
0.0035363461
0.0035208075
0.0035048689
0.0034885434
0.0034718462
0.0034547941
0.0034373793
0.003419594
0.0034014435
0.0033829252
0.0033640375
0.0033447743
0.0033251344
0.0033051163
0.0032846945
0.0032638511
0.0032425788
0.0032208639
0.0031986899
0.0031760443
0.0031529056
0.0031292667
0.0031051029
0.0030803684
0.0030550484
0.0030291184
0.0030025478
0.0029753088
0.0029473691
0.0029186975
0.0028892638
0.0028590146
0.0028278996
0.0027958794
0.002762904
0.0027289193
0.0026938725
0.0026576968
0.0026203397
0.0025817264
0.0025417581
0.002500362
0.0024574471
0.0024129144
0.002366661
0.0023185659
0.0022685178
0.0022163779
0.0021619765
0.002105164
0.0020457633
0.0019835866
0.0019184231
0.0018500792
0.0017783044
0.001702834
0.0016237963
0.0015417089
0.0014583712
0.0013760459
0.0012953732
0.0012162348
0.0011386504
0.001062651
0.00098828327
0.00091562645
0.00084478993
0.00077592187
0.00070919889
0.00064485373
0.00058321487
0.00052469066
0.00046990111
0.0004194638
0.0003749338
0.00033664579
0.00031044472
0.00029009004
0.0004363131
-0.00039492417
0.011679464
0.011786053
0.012007572
0.012287048
0.012628148
0.013030133
0.013489745
0.014006164
0.014580998
0.015217567
0.015920888
0.016698169
0.01755932
0.018518502
0.019594392
0.020817095
0.022221071
0.023886995
0.025861364
0.028461344
0.031535836
0.036951633
0.041865034
0.082512401
0.052061451
0.0015504593
0.00077212238
0.0018501712
0.0023587639
0.0027803624
0.0030461414
0.003237451
0.0033772492
0.0034751076
0.003543657
0.0035925417
0.0036274058
0.0036517782
0.0036681531
0.0036785548
0.0036843565
0.0036864391
0.0036855703
0.0036823708
0.0036772352
0.003670464
0.0036623361
0.0036530547
0.0036427996
0.0036316907
0.0036198114
0.0036072548
0.0035940881
0.0035803729
0.0035661684
0.0035514974
0.0035363776
0.0035208372
0.0035048971
0.0034885701
0.0034718715
0.0034548181
0.0034374021
0.0034196157
0.003401464
0.0033829448
0.0033640562
0.0033447921
0.0033251514
0.0033051325
0.0032847099
0.0032638658
0.0032425928
0.0032208773
0.0031987027
0.0031760565
0.0031529172
0.0031292779
0.0031051135
0.0030803786
0.0030550582
0.0030291277
0.0030025567
0.0029753173
0.0029473772
0.0029187053
0.0028892712
0.0028590217
0.0028279064
0.0027958859
0.0027629102
0.0027289253
0.0026938781
0.0026577022
0.0026203448
0.0025817313
0.0025417627
0.0025003664
0.0024574514
0.0024129184
0.0023666648
0.0023185695
0.0022685213
0.0022163812
0.0021619796
0.0021051669
0.0020457661
0.0019835892
0.0019184256
0.0018500816
0.0017783066
0.0017028361
0.0016237983
0.0015417108
0.0014583729
0.0013760476
0.0012953747
0.0012162363
0.0011386518
0.0010626524
0.00098828455
0.00091562766
0.0008447911
0.00077592298
0.00070919996
0.00064485476
0.00058321586
0.00052469162
0.00046990204
0.0004194647
0.00037493469
0.00033664666
0.0003104456
0.00029009089
0.00043631407
-0.0003949236
0.011679464
0.011786053
0.012007572
0.012287048
0.012628148
0.013030133
0.013489746
0.014006164
0.014580998
0.015217568
0.015920889
0.016698171
0.017559322
0.018518504
0.019594394
0.020817099
0.022221075
0.023887002
0.025861372
0.028461357
0.031535854
0.036951661
0.041865114
0.082503036
0.052086664
0.0015606299
0.00077523721
0.0018516704
0.0023596808
0.0027810102
0.0030466318
0.0032378403
0.0033775678
0.0034753744
0.0035438847
0.0035927389
0.0036275786
0.0036519311
0.0036682894
0.0036786772
0.0036844672
0.0036865396
0.0036856621
0.003682455
0.0036773126
0.0036705355
0.0036624023
0.0036531162
0.0036428568
0.0036317441
0.0036198613
0.0036073016
0.003594132
0.0035804141
0.0035662073
0.003551534
0.0035364122
0.0035208699
0.003504928
0.0034885994
0.0034718993
0.0034548444
0.0034374271
0.0034196395
0.0034014866
0.0033829663
0.0033640767
0.0033448116
0.00332517
0.0033051502
0.0032847268
0.0032638819
0.0032426083
0.003220892
0.0031987167
0.0031760699
0.0031529301
0.0031292902
0.0031051253
0.0030803898
0.0030550689
0.0030291379
0.0030025665
0.0029753267
0.0029473862
0.0029187138
0.0028892794
0.0028590295
0.0028279139
0.0027958931
0.0027629171
0.0027289318
0.0026938843
0.0026577082
0.0026203505
0.0025817367
0.0025417679
0.0025003713
0.002457456
0.0024129229
0.0023666691
0.0023185736
0.0022685251
0.0022163848
0.002161983
0.0021051702
0.0020457692
0.0019835921
0.0019184284
0.0018500842
0.001778309
0.0017028384
0.0016238005
0.0015417128
0.0014583748
0.0013760494
0.0012953765
0.0012162379
0.0011386534
0.0010626539
0.00098828594
0.000915629
0.00084479237
0.0007759242
0.00070920114
0.00064485589
0.00058321694
0.00052469267
0.00046990306
0.00041946569
0.00037493566
0.00033664762
0.00031044657
0.00029009182
0.00043631514
-0.00039492297
0.011679464
0.011786053
0.012007572
0.012287049
0.012628149
0.013030134
0.013489746
0.014006165
0.014580999
0.015217569
0.01592089
0.016698172
0.017559324
0.018518507
0.019594398
0.020817103
0.022221081
0.02388701
0.025861383
0.028461373
0.031535875
0.036951697
0.041865209
0.082492207
0.05211383
0.0015718396
0.00077867886
0.0018533273
0.0023606945
0.0027817264
0.0030471739
0.0032382706
0.0033779199
0.0034756694
0.0035441365
0.003592957
0.0036277695
0.0036521
0.0036684401
0.0036788126
0.0036845895
0.0036866508
0.0036857636
0.003682548
0.0036773982
0.0036706145
0.0036624755
0.0036531841
0.0036429201
0.0036318031
0.0036199165
0.0036073533
0.0035941805
0.0035804598
0.0035662502
0.0035515745
0.0035364504
0.0035209061
0.0035049622
0.0034886317
0.00347193
0.0034548736
0.0034374548
0.0034196657
0.0034015116
0.0033829901
0.0033640993
0.0033448331
0.0033251905
0.0033051698
0.0032847455
0.0032638997
0.0032426253
0.0032209083
0.0031987323
0.0031760848
0.0031529443
0.0031293037
0.0031051382
0.0030804022
0.0030550807
0.0030291493
0.0030025773
0.002975337
0.0029473961
0.0029187233
0.0028892884
0.0028590382
0.0028279222
0.002795901
0.0027629246
0.002728939
0.0026938912
0.0026577147
0.0026203568
0.0025817427
0.0025417736
0.0025003768
0.0024574612
0.0024129278
0.0023666737
0.002318578
0.0022685293
0.0022163888
0.0021619868
0.0021051738
0.0020457726
0.0019835954
0.0019184314
0.001850087
0.0017783118
0.001702841
0.0016238029
0.0015417151
0.001458377
0.0013760514
0.0012953783
0.0012162397
0.0011386551
0.0010626555
0.00098828749
0.00091563047
0.00084479378
0.00077592555
0.00070920243
0.00064485714
0.00058321815
0.00052469383
0.00046990418
0.00041946679
0.00037493674
0.00033664867
0.00031044764
0.00029009286
0.00043631632
-0.00039492228
0.011679464
0.011786053
0.012007573
0.012287049
0.012628149
0.013030134
0.013489747
0.014006166
0.014581
0.01521757
0.015920891
0.016698174
0.017559326
0.01851851
0.019594402
0.020817109
0.022221089
0.02388702
0.025861395
0.028461393
0.031535901
0.03695174
0.041865323
0.08247961
0.052143132
0.0015842483
0.00078249828
0.0018551665
0.0023618199
0.0027825214
0.0030477757
0.0032387484
0.0033783109
0.0034759969
0.003544416
0.003593199
0.0036279816
0.0036522875
0.0036686073
0.0036789628
0.0036847253
0.0036867742
0.0036858762
0.0036826512
0.0036774932
0.0036707022
0.0036625567
0.0036532596
0.0036429904
0.0036318687
0.0036199778
0.0036074107
0.0035942344
0.0035805104
0.0035662979
0.0035516195
0.0035364929
0.0035209462
0.0035050001
0.0034886677
0.003471964
0.0034549059
0.0034374855
0.0034196949
0.0034015394
0.0033830165
0.0033641244
0.0033448571
0.0033252133
0.0033051916
0.0032847663
0.0032639196
0.0032426442
0.0032209264
0.0031987495
0.0031761012
0.00315296
0.0031293188
0.0031051526
0.0030804159
0.0030550939
0.0030291618
0.0030025893
0.0029753485
0.0029474071
0.0029187338
0.0028892985
0.0028590478
0.0028279314
0.0027959097
0.002762933
0.002728947
0.0026938989
0.002657722
0.0026203637
0.0025817493
0.0025417799
0.0025003828
0.002457467
0.0024129333
0.0023666789
0.0023185829
0.002268534
0.0022163933
0.0021619911
0.0021051778
0.0020457764
0.0019835989
0.0019184348
0.0018500902
0.0017783148
0.0017028438
0.0016238055
0.0015417176
0.0014583793
0.0013760536
0.0012953805
0.0012162417
0.001138657
0.0010626573
0.0009882892
0.00091563211
0.00084479535
0.00077592706
0.00070920387
0.00064485853
0.00058321948
0.00052469513
0.00046990544
0.00041946801
0.00037493793
0.00033664985
0.00031044883
0.000290094
0.00043631763
-0.0003949215
0.011679464
0.011786054
0.012007573
0.012287049
0.012628149
0.013030135
0.013489748
0.014006167
0.014581001
0.015217571
0.015920893
0.016698177
0.017559329
0.018518514
0.019594407
0.020817115
0.022221097
0.023887032
0.025861411
0.028461416
0.031535932
0.036951792
0.041865458
0.082464878
0.052174735
0.0015980365
0.000786752
0.0018572152
0.0023630741
0.0027834074
0.0030484464
0.0032392808
0.0033787465
0.0034763617
0.0035447274
0.0035934686
0.0036282178
0.0036524965
0.0036687937
0.0036791302
0.0036848766
0.0036869116
0.0036860017
0.0036827663
0.0036775991
0.0036707999
0.0036626472
0.0036533436
0.0036430686
0.0036319417
0.0036200461
0.0036074747
0.0035942945
0.0035805669
0.0035663511
0.0035516696
0.0035365401
0.0035209909
0.0035050424
0.0034887077
0.003472002
0.0034549419
0.0034375197
0.0034197274
0.0034015703
0.0033830459
0.0033641524
0.0033448838
0.0033252388
0.0033052158
0.0032847894
0.0032639416
0.0032426653
0.0032209465
0.0031987687
0.0031761196
0.0031529775
0.0031293356
0.0031051686
0.0030804313
0.0030551085
0.0030291758
0.0030026027
0.0029753613
0.0029474193
0.0029187455
0.0028893097
0.0028590585
0.0028279416
0.0027959195
0.0027629423
0.0027289559
0.0026939074
0.0026577301
0.0026203715
0.0025817567
0.002541787
0.0025003895
0.0024574733
0.0024129394
0.0023666847
0.0023185884
0.0022685392
0.0022163983
0.0021619958
0.0021051823
0.0020457806
0.0019836029
0.0019184386
0.0018500938
0.0017783181
0.0017028469
0.0016238085
0.0015417203
0.0014583819
0.0013760561
0.0012953828
0.0012162439
0.0011386591
0.0010626593
0.00098829112
0.00091563394
0.00084479709
0.00077592873
0.00070920548
0.00064486007
0.00058322097
0.00052469656
0.00046990683
0.00041946937
0.00037493926
0.00033665116
0.00031045015
0.00029009528
0.00043631908
-0.00039492064
0.011679464
0.011786054
0.012007573
0.01228705
0.01262815
0.013030135
0.013489748
0.014006168
0.014581003
0.015217573
0.015920896
0.01669818
0.017559333
0.018518519
0.019594413
0.020817123
0.022221108
0.023887046
0.025861429
0.028461443
0.031535968
0.036951853
0.041865618
0.082447569
0.052208761
0.0016134081
0.00079150297
0.001859504
0.0023644757
0.0027843974
0.0030491958
0.0032398757
0.0033792332
0.0034767694
0.0035450753
0.0035937699
0.0036284817
0.00365273
0.0036690019
0.0036793172
0.0036850456
0.0036870652
0.0036861419
0.0036828948
0.0036777173
0.0036709091
0.0036627483
0.0036534376
0.003643156
0.0036320233
0.0036201224
0.0036075462
0.0035943616
0.00358063
0.0035664104
0.0035517256
0.003536593
0.0035210408
0.0035050897
0.0034887525
0.0034720444
0.0034549822
0.0034375579
0.0034197637
0.0034016048
0.0033830788
0.0033641837
0.0033449136
0.0033252672
0.0033052429
0.0032848152
0.0032639663
0.0032426888
0.003220969
0.0031987902
0.0031761401
0.0031529972
0.0031293543
0.0031051866
0.0030804484
0.0030551249
0.0030291915
0.0030026177
0.0029753757
0.002947433
0.0029187586
0.0028893222
0.0028590704
0.002827953
0.0027959304
0.0027629527
0.0027289659
0.0026939169
0.0026577392
0.0026203801
0.002581765
0.0025417948
0.002500397
0.0024574805
0.0024129461
0.0023666912
0.0023185946
0.0022685451
0.0022164038
0.002162001
0.0021051872
0.0020457853
0.0019836074
0.0019184428
0.0018500978
0.0017783219
0.0017028505
0.0016238118
0.0015417235
0.0014583849
0.0013760589
0.0012953854
0.0012162464
0.0011386614
0.0010626615
0.00098829325
0.00091563597
0.00084479904
0.0007759306
0.00070920727
0.00064486179
0.00058322263
0.00052469817
0.00046990839
0.00041947088
0.00037494075
0.00033665262
0.00031045163
0.00029009671
0.00043632071
-0.00039491968
0.011679464
0.011786054
0.012007573
0.01228705
0.01262815
0.013030136
0.013489749
0.014006169
0.014581004
0.015217575
0.015920898
0.016698183
0.017559338
0.018518524
0.019594421
0.020817133
0.02222112
0.023887063
0.02586145
0.028461474
0.031536011
0.036951924
0.041865807
0.082427152
0.052245284
0.0016305947
0.00079682148
0.0018620667
0.0023660457
0.0027855064
0.0030500352
0.003240542
0.0033797784
0.0034772261
0.003545465
0.0035941074
0.0036287773
0.0036529914
0.0036692351
0.0036795267
0.0036852349
0.0036872372
0.0036862989
0.0036830388
0.0036778498
0.0036710314
0.0036628616
0.0036535427
0.003643254
0.0036321147
0.0036202078
0.0036076262
0.0035944367
0.0035807006
0.0035664769
0.0035517882
0.0035366522
0.0035210967
0.0035051426
0.0034888026
0.0034720919
0.0034550272
0.0034376007
0.0034198044
0.0034016435
0.0033831156
0.0033642188
0.003344947
0.003325299
0.0033052732
0.0032848442
0.0032639939
0.0032427152
0.0032209941
0.0031988143
0.0031761631
0.0031530191
0.0031293753
0.0031052066
0.0030804676
0.0030551433
0.003029209
0.0030026345
0.0029753917
0.0029474483
0.0029187733
0.0028893362
0.0028590838
0.0028279658
0.0027959426
0.0027629644
0.002728977
0.0026939275
0.0026577494
0.0026203898
0.0025817742
0.0025418036
0.0025004054
0.0024574885
0.0024129538
0.0023666984
0.0023186015
0.0022685516
0.00221641
0.0021620069
0.0021051928
0.0020457906
0.0019836124
0.0019184475
0.0018501022
0.0017783261
0.0017028544
0.0016238155
0.0015417269
0.0014583881
0.001376062
0.0012953883
0.0012162492
0.0011386641
0.001062664
0.00098829564
0.00091563826
0.00084480123
0.00077593269
0.00070920928
0.00064486373
0.0005832245
0.00052469997
0.00046991013
0.00041947258
0.00037494241
0.00033665425
0.00031045328
0.00029009831
0.00043632254
-0.00039491861
0.011679464
0.011786054
0.012007574
0.012287051
0.012628151
0.013030137
0.013489751
0.01400617
0.014581006
0.015217578
0.015920902
0.016698187
0.017559343
0.018518531
0.019594429
0.020817144
0.022221134
0.023887082
0.025861474
0.02846151
0.03153606
0.036952003
0.04186603
0.082402989
0.052284304
0.0016498619
0.00080278626
0.0018649416
0.0023678078
0.0027867508
0.0030509773
0.0032412896
0.0033803901
0.0034777385
0.0035459023
0.003594486
0.003629109
0.0036532848
0.0036694968
0.0036797617
0.0036854473
0.0036874302
0.0036864751
0.0036832003
0.0036779984
0.0036711686
0.0036629887
0.0036536608
0.0036433638
0.0036322172
0.0036203037
0.003607716
0.003594521
0.0035807798
0.0035665515
0.0035518586
0.0035367186
0.0035211595
0.0035052019
0.0034888588
0.0034721452
0.0034550778
0.0034376487
0.00341985
0.0034016869
0.0033831569
0.0033642581
0.0033449844
0.0033253347
0.0033053073
0.0032848767
0.0032640249
0.0032427448
0.0032210224
0.0031988412
0.0031761889
0.0031530437
0.0031293988
0.0031052291
0.0030804891
0.0030551638
0.0030292287
0.0030026533
0.0029754097
0.0029474655
0.0029187897
0.0028893519
0.0028590988
0.0028279801
0.0027959563
0.0027629775
0.0027289895
0.0026939395
0.0026577608
0.0026204007
0.0025817846
0.0025418135
0.0025004148
0.0024574975
0.0024129623
0.0023667066
0.0023186092
0.002268559
0.002216417
0.0021620135
0.0021051991
0.0020457965
0.001983618
0.0019184528
0.0018501072
0.0017783308
0.0017028588
0.0016238197
0.0015417308
0.0014583918
0.0013760654
0.0012953916
0.0012162523
0.001138667
0.0010626668
0.00098829832
0.00091564082
0.00084480368
0.00077593503
0.00070921153
0.00064486589
0.00058322659
0.00052470199
0.00046991209
0.00041947448
0.00037494428
0.00033665609
0.00031045514
0.0002901001
0.00043632458
-0.0003949174
0.011679464
0.011786055
0.012007574
0.012287051
0.012628152
0.013030138
0.013489752
0.014006172
0.014581009
0.015217581
0.015920905
0.016698192
0.017559349
0.018518539
0.019594439
0.020817157
0.022221151
0.023887104
0.025861502
0.028461551
0.031536116
0.036952092
0.041866293
0.082374312
0.052325723
0.0016715179
0.00080948569
0.0018681713
0.0023697883
0.0027881494
0.0030520359
0.0032421299
0.0033810776
0.0034783142
0.0035463937
0.0035949115
0.0036294817
0.0036536145
0.0036697908
0.0036800258
0.0036856859
0.003687647
0.0036866731
0.0036833817
0.0036781654
0.0036713228
0.0036631315
0.0036537934
0.0036434873
0.0036323324
0.0036204114
0.0036078169
0.0035946157
0.0035808689
0.0035666353
0.0035519376
0.0035367932
0.00352123
0.0035052686
0.003488922
0.0034722051
0.0034551346
0.0034377027
0.0034199013
0.0034017357
0.0033832033
0.0033643023
0.0033450265
0.0033253748
0.0033053455
0.0032849131
0.0032640597
0.003242778
0.0032210541
0.0031988716
0.0031762178
0.0031530714
0.0031294253
0.0031052544
0.0030805133
0.0030551869
0.0030292508
0.0030026744
0.0029754299
0.0029474848
0.0029188082
0.0028893696
0.0028591157
0.0028279963
0.0027959717