/*--------------------------------*- C++ -*----------------------------------*\
| =========                 |                                                 |
| \\      /  F ield         | OpenFOAM: The Open Source CFD Toolbox           |
|  \\    /   O peration     | Version:  2206                                  |
|   \\  /    A nd           | Website:  www.openfoam.com                      |
|    \\/     M anipulation  |                                                 |
\*---------------------------------------------------------------------------*/
FoamFile
{
    version     2.0;
    format      ascii;
    arch        "LSB;label=32;scalar=64";
    class       surfaceScalarField;
    location    "2000";
    object      phi;
}
// * * * * * * * * * * * * * * * * * * * * * * * * * * * * * * * * * * * * * //

dimensions      [0 3 -1 0 0 0 0];

oriented        oriented;

internalField   nonuniform List<scalar> 
25880
(
2.0046146e-06
3.9570566e-11
2.00452e-06
9.4596389e-11
2.0044007e-06
1.1930891e-10
2.004265e-06
1.3565555e-10
2.0041086e-06
1.5643115e-10
2.0039291e-06
1.794864e-10
2.003724e-06
2.0509158e-10
2.0034894e-06
2.3460777e-10
2.0032202e-06
2.6918932e-10
2.0029102e-06
3.1004235e-10
2.0025514e-06
3.587398e-10
2.0021338e-06
4.1767734e-10
2.0016439e-06
4.8980589e-10
2.0010629e-06
5.8100187e-10
2.000367e-06
6.9590175e-10
1.999512e-06
8.5507161e-10
1.9984576e-06
1.0544188e-09
1.9970568e-06
1.4007679e-09
1.9952958e-06
1.7609881e-09
1.99248e-06
2.8157942e-09
1.9889825e-06
3.4974594e-09
1.9807745e-06
8.2080068e-09
1.977091e-06
3.6835397e-09
9.9323149e-07
9.8385951e-07
4.3846491e-09
9.8884684e-07
2.1073463e-09
2.2773028e-09
1.5967557e-09
5.1059058e-10
1.3492329e-09
2.4752282e-10
1.1967602e-09
1.524727e-10
1.0880279e-09
1.0873225e-10
1.0049462e-09
8.3081741e-11
9.3834232e-10
6.6603858e-11
8.8330075e-10
5.5041568e-11
8.3672346e-10
4.6577292e-11
7.9655163e-10
4.0171835e-11
7.6138958e-10
3.5162042e-11
7.302469e-10
3.1142682e-11
7.0238841e-10
2.7858488e-11
6.7725347e-10
2.513494e-11
6.5440929e-10
2.2844182e-11
6.3351376e-10
2.0895536e-11
6.1429125e-10
1.9222509e-11
5.9652e-10
1.777125e-11
5.8001688e-10
1.6503117e-11
5.6462877e-10
1.5388115e-11
5.5022753e-10
1.4401237e-11
5.3670447e-10
1.3523064e-11
5.2396695e-10
1.2737514e-11
5.1193561e-10
1.2031339e-11
5.005418e-10
1.139381e-11
4.8972555e-10
1.0816257e-11
4.7943434e-10
1.0291204e-11
4.6962202e-10
9.8123228e-12
4.6024785e-10
9.3741668e-12
4.5127592e-10
8.9719343e-12
4.4267415e-10
8.6017641e-12
4.3441369e-10
8.2604626e-12
4.2646863e-10
7.9450613e-12
4.1881569e-10
7.652943e-12
4.1143377e-10
7.3819165e-12
4.0430382e-10
7.1299475e-12
3.9740868e-10
6.8951465e-12
3.9073261e-10
6.6760632e-12
3.8426112e-10
6.471493e-12
3.7798092e-10
6.2802026e-12
3.7187985e-10
6.1010697e-12
3.659467e-10
5.9331456e-12
3.601711e-10
5.7755988e-12
3.5454354e-10
5.6275613e-12
3.4905533e-10
5.4882146e-12
3.4369828e-10
5.3570456e-12
3.3846467e-10
5.233608e-12
3.3334734e-10
5.1173303e-12
3.2833963e-10
5.0077158e-12
3.2343528e-10
4.9043454e-12
3.1862843e-10
4.8068485e-12
3.1391355e-10
4.7148799e-12
3.0928559e-10
4.62796e-12
3.0473981e-10
4.5457847e-12
3.0027152e-10
4.4682932e-12
2.9587629e-10
4.3952299e-12
2.9155e-10
4.3262881e-12
2.8728871e-10
4.2612832e-12
2.8308868e-10
4.2000355e-12
2.7894629e-10
4.1423886e-12
2.7485816e-10
4.0881311e-12
2.7082113e-10
4.0370304e-12
2.6683209e-10
3.9890385e-12
2.6288795e-10
3.9441369e-12
2.5898578e-10
3.9021735e-12
2.5512275e-10
3.8630293e-12
2.5129613e-10
3.8266244e-12
2.4750323e-10
3.7928952e-12
2.4374144e-10
3.7617904e-12
2.400083e-10
3.7331407e-12
2.3630141e-10
3.7068877e-12
2.3261828e-10
3.6831357e-12
2.2895644e-10
3.6618399e-12
2.2531351e-10
3.6429298e-12
2.2168711e-10
3.6263995e-12
2.1807485e-10
3.612258e-12
2.1447432e-10
3.600527e-12
2.1088319e-10
3.5911305e-12
2.072991e-10
3.5840868e-12
2.0371956e-10
3.5795486e-12
2.00142e-10
3.5775603e-12
1.9656385e-10
3.5781473e-12
1.9298241e-10
3.5814426e-12
1.8939485e-10
3.5875598e-12
1.857983e-10
3.5965481e-12
1.8218916e-10
3.6091386e-12
1.785651e-10
3.6240561e-12
1.7492407e-10
3.6410365e-12
1.7141447e-10
3.5096016e-12
1.6810816e-10
3.3063084e-12
1.6498544e-10
3.1227218e-12
1.6203148e-10
2.953959e-12
1.5923242e-10
2.7990604e-12
1.5657499e-10
2.6574255e-12
1.5404724e-10
2.5277506e-12
1.5163835e-10
2.4088893e-12
1.4933852e-10
2.2998342e-12
1.4713884e-10
2.1996776e-12
1.4503118e-10
2.1076588e-12
1.4300791e-10
2.023265e-12
1.4106177e-10
1.9461424e-12
1.3918561e-10
1.8761599e-12
1.373724e-10
1.8132096e-12
1.3561416e-10
1.7582458e-12
1.3390313e-10
1.7110276e-12
1.3222587e-10
1.6772589e-12
1.3057642e-10
1.6494548e-12
1.2890634e-10
1.6700723e-12
1.272947e-10
1.6116477e-12
1.2545855e-10
1.8361479e-12
1.0859634e-12
2.0344878e-06
7.9793769e-11
2.0343917e-06
1.907673e-10
2.0342704e-06
2.4061772e-10
2.0341324e-06
2.735876e-10
2.0339734e-06
3.1548612e-10
2.0337909e-06
3.619813e-10
2.0335824e-06
4.1361771e-10
2.0333438e-06
4.7313988e-10
2.0330701e-06
5.4287551e-10
2.0327549e-06
6.2525648e-10
2.0323902e-06
7.2345422e-10
2.0319656e-06
8.4229899e-10
2.0314676e-06
9.8774027e-10
2.030877e-06
1.1716263e-09
2.0301696e-06
1.4033041e-09
2.0293005e-06
1.7242398e-09
2.0282287e-06
2.1261756e-09
2.026805e-06
2.8244936e-09
2.0250152e-06
3.5507555e-09
2.0221536e-06
5.6773603e-09
2.0185994e-06
7.0517052e-09
2.0102585e-06
1.6548871e-08
2.0065105e-06
7.4315625e-09
1.0144086e-06
1.9759614e-06
1.3378277e-08
1.9898772e-06
6.4479656e-09
9.2076144e-09
4.8858774e-09
2.0726788e-09
4.1284962e-09
1.0049041e-09
3.6619322e-09
6.1903665e-10
3.3292132e-09
4.4145125e-10
3.0749865e-09
3.3730848e-10
2.8711834e-09
2.7040697e-10
2.7027602e-09
2.2346474e-10
2.5602381e-09
1.8909944e-10
2.4373167e-09
1.6309319e-10
2.3297252e-09
1.4275352e-10
2.2344328e-09
1.2643515e-10
2.1491897e-09
1.1310157e-10
2.0722804e-09
1.0204419e-10
2.0023807e-09
9.274394e-11
1.9384435e-09
8.483268e-11
1.8796257e-09
7.8040357e-11
1.8252485e-09
7.214842e-11
1.7747516e-09
6.7e-11
1.7276665e-09
6.2473238e-11
1.6836011e-09
5.8466653e-11
1.6422227e-09
5.49014e-11
1.6032481e-09
5.1712186e-11
1.5664342e-09
4.8845223e-11
1.531571e-09
4.6256955e-11
1.4984751e-09
4.3912179e-11
1.4669858e-09
4.178055e-11
1.4369617e-09
3.9836367e-11
1.4082784e-09
3.8057524e-11
1.3808258e-09
3.6424526e-11
1.3545058e-09
3.4921697e-11
1.3292302e-09
3.3536069e-11
1.3049197e-09
3.2255592e-11
1.281503e-09
3.106964e-11
1.2589156e-09
2.9969317e-11
1.2370992e-09
2.8946365e-11
1.2160012e-09
2.7993113e-11
1.1955736e-09
2.7103673e-11
1.175772e-09
2.6273152e-11
1.1565556e-09
2.5496545e-11
1.1378874e-09
2.4769296e-11
1.119733e-09
2.4087553e-11
1.1020606e-09
2.3447939e-11
1.0848413e-09
2.2846932e-11
1.0680483e-09
2.2281209e-11
1.0516566e-09
2.1748686e-11
1.0356427e-09
2.124755e-11
1.0199845e-09
2.0775483e-11
1.0046618e-09
2.0330466e-11
9.8965534e-10
1.99108e-11
9.7494721e-10
1.951498e-11
9.6052049e-10
1.9141603e-11
9.4635972e-10
1.8788723e-11
9.324504e-10
1.8455106e-11
9.1877819e-10
1.8140504e-11
9.0532954e-10
1.784388e-11
8.9209184e-10
1.7563988e-11
8.7905304e-10
1.7300079e-11
8.6620165e-10
1.7051424e-11
8.5352666e-10
1.6817388e-11
8.4101768e-10
1.6597111e-11
8.2866505e-10
1.6389652e-11
8.1645928e-10
1.6194813e-11
8.043909e-10
1.601252e-11
7.9245091e-10
1.5842156e-11
7.806307e-10
1.5683238e-11
7.6892189e-10
1.553544e-11
7.5731628e-10
1.5398505e-11
7.4580584e-10
1.5272225e-11
7.3438307e-10
1.5155912e-11
7.2304063e-10
1.504933e-11
7.1177086e-10
1.4952901e-11
7.0056626e-10
1.4866444e-11
6.8941952e-10
1.4789672e-11
6.7832336e-10
1.4722562e-11
6.6727046e-10
1.466515e-11
6.5625347e-10
1.4617524e-11
6.4526522e-10
1.4579376e-11
6.3429853e-10
1.455078e-11
6.2334572e-10
1.4532355e-11
6.12399e-10
1.4524283e-11
6.0145048e-10
1.4526666e-11
5.9049188e-10
1.4540044e-11
5.7951456e-10
1.4564878e-11
5.6850974e-10
1.4601369e-11
5.574664e-10
1.4652483e-11
5.4637741e-10
1.4713043e-11
5.3523646e-10
1.4781991e-11
5.2449766e-10
1.4248395e-11
5.1438092e-10
1.3423049e-11
5.0482593e-10
1.2677711e-11
4.9578733e-10
1.1992562e-11
4.8722269e-10
1.13637e-11
4.7909143e-10
1.0788686e-11
4.7135695e-10
1.0262227e-11
4.6398617e-10
9.7796692e-12
4.5694909e-10
9.3369228e-12
4.5021846e-10
8.9303019e-12
4.437694e-10
8.5567189e-12
4.3757857e-10
8.2140913e-12
4.3162374e-10
7.9009819e-12
4.2588304e-10
7.6168592e-12
4.2033496e-10
7.361284e-12
4.1495508e-10
7.1381298e-12
4.0971969e-10
6.9464164e-12
4.0458765e-10
6.8093011e-12
3.9954072e-10
6.6963844e-12
3.9443074e-10
6.7800444e-12
3.8950021e-10
6.542182e-12
3.8387765e-10
7.4587062e-12
4.4017637e-12
2.0946796e-06
1.2128949e-10
2.0945804e-06
2.9000012e-10
2.0944552e-06
3.6580773e-10
2.0943128e-06
4.1593618e-10
2.0941487e-06
4.7963223e-10
2.0939603e-06
5.5031491e-10
2.0937451e-06
6.2881121e-10
2.093499e-06
7.1929273e-10
2.0932166e-06
8.2529758e-10
2.0928913e-06
9.5052192e-10
2.092515e-06
1.0997857e-09
2.0920768e-06
1.28043e-09
2.0915631e-06
1.5014963e-09
2.0909537e-06
1.7809918e-09
2.0902239e-06
2.1331194e-09
2.0893272e-06
2.6209005e-09
2.0882216e-06
3.2317726e-09
2.0867531e-06
4.2930736e-09
2.084907e-06
5.3967956e-09
2.0819558e-06
8.6285852e-09
2.0782903e-06
1.0717181e-08
2.0696889e-06
2.5150332e-08
2.0658184e-06
1.1302004e-08
1.051087e-06
2.9906928e-06
2.3132146e-08
3.0178321e-06
1.1174193e-08
2.1165567e-08
8.4673801e-09
4.7794917e-09
7.1548503e-09
2.3174338e-09
6.3462509e-09
1.4276361e-09
5.7696215e-09
1.0180806e-09
5.3290275e-09
7.7790258e-10
4.9758243e-09
6.2361015e-10
4.6839373e-09
5.1535169e-10
4.4369394e-09
4.3609739e-10
4.2239116e-09
3.7612099e-10
4.0374517e-09
3.2921337e-10
3.8723069e-09
2.9158e-10
3.7245782e-09
2.6083023e-10
3.5912925e-09
2.3532988e-10
3.4701546e-09
2.1388185e-10
3.3593501e-09
1.9563718e-10
3.2574176e-09
1.7997287e-10
3.163181e-09
1.6638506e-10
3.0756689e-09
1.5451205e-10
2.9940696e-09
1.4407259e-10
2.9177034e-09
1.3483277e-10
2.8459941e-09
1.2661074e-10
2.7784504e-09
1.1925592e-10
2.7146513e-09
1.1264427e-10
2.6542329e-09
1.0667533e-10
2.5968772e-09
1.0126792e-10
2.5423057e-09
9.6352063e-11
2.4902736e-09
9.1868485e-11
2.4405649e-09
8.7766205e-11
2.3929891e-09
8.4000272e-11
2.3473763e-09
8.0534525e-11
2.3035733e-09
7.7339062e-11
2.2614428e-09
7.4386093e-11
2.2208613e-09
7.1651113e-11
2.1817171e-09
6.9113608e-11
2.1439089e-09
6.6754529e-11
2.1073458e-09
6.4556192e-11
2.0719445e-09
6.2505013e-11
2.0376279e-09
6.0589711e-11
2.0043257e-09
5.8798743e-11
1.9719734e-09
5.71216e-11
1.9405116e-09
5.5549401e-11
1.9098851e-09
5.4074358e-11
1.8800437e-09
5.2688348e-11
1.8509412e-09
5.138371e-11
1.8225343e-09
5.0155635e-11
1.7947819e-09
4.8999943e-11
1.7676461e-09
4.7911287e-11
1.7410915e-09
4.6885016e-11
1.7150851e-09
4.5917205e-11
1.6895957e-09
4.5004385e-11
1.664594e-09
4.4143323e-11
1.6400532e-09
4.3329532e-11
1.6159481e-09
4.2560165e-11
1.592254e-09
4.1834647e-11
1.5689473e-09
4.1150587e-11
1.5460062e-09
4.0505117e-11
1.5234097e-09
3.9896505e-11
1.5011381e-09
3.932307e-11
1.4791721e-09
3.8783349e-11
1.4574939e-09
3.827536e-11
1.4360866e-09
3.7796928e-11
1.4149338e-09
3.7347603e-11
1.3940191e-09
3.692721e-11
1.3733269e-09
3.6534326e-11
1.3528423e-09
3.6167836e-11
1.3325508e-09
3.5826993e-11
1.3124381e-09
3.5511203e-11
1.2924903e-09
3.5219982e-11
1.2726945e-09
3.4951748e-11
1.2530379e-09
3.4705956e-11
1.2335072e-09
3.4483576e-11
1.2140895e-09
3.4284193e-11
1.194772e-09
3.4107146e-11
1.1755422e-09
3.395238e-11
1.1563873e-09
3.3819981e-11
1.1372947e-09
3.3710148e-11
1.1182519e-09
3.3622173e-11
1.0992465e-09
3.3556227e-11
1.0802651e-09
3.3513737e-11
1.0612942e-09
3.3495122e-11
1.0423203e-09
3.3500617e-11
1.0233289e-09
3.3531469e-11
1.004305e-09
3.3588739e-11
9.8523348e-10
3.3672891e-11
9.6609519e-10
3.3790766e-11
9.4687781e-10
3.3930426e-11
9.2757036e-10
3.4089446e-11
9.0895984e-10
3.2858908e-11
8.9142737e-10
3.0955524e-11
8.7486843e-10
2.923665e-11
8.592044e-10
2.7656595e-11
8.4436175e-10
2.6206347e-11
8.3027016e-10
2.4880279e-11
8.168662e-10
2.3666188e-11
8.0409253e-10
2.2553336e-11
7.9189716e-10
2.1532295e-11
7.8023289e-10
2.0594564e-11
7.6905659e-10
1.9733022e-11
7.5832781e-10
1.8942867e-11
7.4800801e-10
1.8220783e-11
7.3805933e-10
1.7565543e-11
7.2844448e-10
1.6976135e-11
7.1912112e-10
1.6461489e-11
7.100482e-10
1.6019341e-11
7.0115441e-10
1.5703089e-11
6.9240816e-10
1.5442634e-11
6.8355277e-10
1.5635432e-11
6.7500877e-10
1.5086182e-11
6.6526191e-10
1.7205562e-11
1.014332e-11
2.1860868e-06
1.6470225e-10
2.185983e-06
3.9384276e-10
2.1858519e-06
4.9683831e-10
2.1857029e-06
5.6493049e-10
2.1855311e-06
6.5143941e-10
2.185334e-06
7.4743495e-10
2.1851088e-06
8.5403877e-10
2.1848512e-06
9.7691531e-10
2.1845556e-06
1.120869e-09
2.1842152e-06
1.2909182e-09
2.1838214e-06
1.493607e-09
2.1833629e-06
1.738902e-09
2.1828253e-06
2.0390781e-09
2.1821877e-06
2.4185832e-09
2.1814242e-06
2.8966963e-09
2.1804861e-06
3.5589812e-09
2.1793295e-06
4.3883623e-09
2.1777933e-06
5.8292586e-09
2.1758624e-06
7.3276694e-09
2.172776e-06
1.1715023e-08
2.1689427e-06
1.4550426e-08
2.1599482e-06
3.4144877e-08
2.155894e-06
1.5356172e-08
1.1041184e-06
4.0424684e-06
3.4223499e-08
4.087727e-06
1.6568755e-08
3.8820311e-08
1.2555535e-08
8.7927116e-09
1.0609374e-08
4.2635956e-09
9.4103238e-09
2.626686e-09
8.5552659e-09
1.8731385e-09
7.90193e-09
1.4312385e-09
7.3781864e-09
1.1473537e-09
6.9453662e-09
9.4817198e-10
6.5791103e-09
8.0235326e-10
6.2632278e-09
6.9200349e-10
5.9867418e-09
6.0569934e-10
5.7418627e-09
5.3645914e-10
5.5228089e-09
4.7988401e-10
5.3251716e-09
4.3296714e-10
5.1455474e-09
3.9350605e-10
4.9812458e-09
3.5993884e-10
4.8300998e-09
3.3111888e-10
4.6903654e-09
3.0611949e-10
4.5606021e-09
2.8427526e-10
4.4396064e-09
2.6506835e-10
4.3263705e-09
2.4806865e-10
4.2200398e-09
2.3294151e-10
4.1198858e-09
2.1940989e-10
4.0252845e-09
2.0724558e-10
3.935696e-09
1.9626377e-10
3.8506489e-09
1.8631508e-10
3.7697302e-09
1.7727076e-10
3.6925769e-09
1.6902176e-10
3.6188688e-09
1.6147428e-10
3.5483235e-09
1.5454562e-10
3.4806887e-09
1.4816926e-10
3.4157376e-09
1.4229017e-10
3.3532665e-09
1.3685723e-10
3.2930923e-09
1.3182535e-10
3.2350491e-09
1.2715679e-10
3.1789871e-09
1.228165e-10
3.1247714e-09
1.1877195e-10
3.0722782e-09
1.1499815e-10
3.0213936e-09
1.1147433e-10
2.9720131e-09
1.0817927e-10
2.9240411e-09
1.0509362e-10
2.8773894e-09
1.0220105e-10
2.8319765e-09
9.9487236e-11
2.7877277e-09
9.6937224e-11
2.7445744e-09
9.4536924e-11
2.7024526e-09
9.2277487e-11
2.6613013e-09
9.015122e-11
2.6210643e-09
8.8148286e-11
2.5816892e-09
8.626013e-11
2.5431269e-09
8.447953e-11
2.5053312e-09
8.2800105e-11
2.4682586e-09
8.1215902e-11
2.4318694e-09
7.9718674e-11
2.3961264e-09
7.8303178e-11
2.3609927e-09
7.6968354e-11
2.3264335e-09
7.5709806e-11
2.2924164e-09
7.4522257e-11
2.2589103e-09
7.340252e-11
2.2258859e-09
7.2347502e-11
2.1933147e-09
7.135451e-11
2.1611702e-09
7.0419901e-11
2.1294275e-09
6.9539675e-11
2.0980621e-09
6.8712998e-11
2.0670497e-09
6.7939549e-11
2.0363673e-09
6.7216713e-11
2.0059927e-09
6.6542438e-11
1.9759044e-09
6.5915349e-11
1.9460812e-09
6.533435e-11
1.9165027e-09
6.4798556e-11
1.8871494e-09
6.4305055e-11
1.8580025e-09
6.3852842e-11
1.8290423e-09
6.3443704e-11
1.8002497e-09
6.3076874e-11
1.7716057e-09
6.2751141e-11
1.7430916e-09
6.24664e-11
1.7146888e-09
6.2222809e-11
1.6863782e-09
6.2020737e-11
1.6581415e-09
6.1858879e-11
1.6299602e-09
6.1737553e-11
1.6018146e-09
6.1659379e-11
1.5736845e-09
6.162513e-11
1.5455499e-09
6.1635241e-11
1.5173894e-09
6.1692003e-11
1.4891808e-09
6.179737e-11
1.4609015e-09
6.1952195e-11
1.4325232e-09
6.2169059e-11
1.4040276e-09
6.2426009e-11
1.3753984e-09
6.2718608e-11
1.3478027e-09
6.0454656e-11
1.3218055e-09
5.6952738e-11
1.2972518e-09
5.3790288e-11
1.2740251e-09
5.0883264e-11
1.2520164e-09
4.8215062e-11
1.2311214e-09
4.5775329e-11
1.211246e-09
4.3541612e-11
1.1923051e-09
4.1494158e-11
1.1742218e-09
3.9615618e-11
1.156926e-09
3.7890351e-11
1.1403538e-09
3.6305257e-11
1.1244452e-09
3.4851499e-11
1.109143e-09
3.3522976e-11
1.0943911e-09
3.2317432e-11
1.0801342e-09
3.1232998e-11
1.0663096e-09
3.0286102e-11
1.0528564e-09
2.9472578e-11
1.0396688e-09
2.8890644e-11
1.0267001e-09
2.8411376e-11
1.0135697e-09
2.876578e-11
1.0009013e-09
2.7754606e-11
9.8644695e-10
3.1659905e-11
1.8654096e-11
2.3100717e-06
2.1071307e-10
2.3099616e-06
5.0393293e-10
2.3098226e-06
6.3578449e-10
2.3096646e-06
7.2293166e-10
2.3094824e-06
8.3362956e-10
2.3092734e-06
9.5646315e-10
2.3090346e-06
1.0928654e-09
2.3087614e-06
1.2500827e-09
2.308448e-06
1.4342616e-09
2.3080871e-06
1.6518213e-09
2.3076696e-06
1.911132e-09
2.3071836e-06
2.2249421e-09
2.3066137e-06
2.6089509e-09
2.3059378e-06
3.0944292e-09
2.3051285e-06
3.7060303e-09
2.3041343e-06
4.5531986e-09
2.3029086e-06
5.6140633e-09
2.3012808e-06
7.4570699e-09
2.2992349e-06
9.3735214e-09
2.2959652e-06
1.4984719e-08
2.2919046e-06
1.8611056e-08
2.2823773e-06
4.3672162e-08
2.2780743e-06
1.9659219e-08
1.1746351e-06
5.1459075e-06
4.7304633e-08
5.2150575e-06
2.2954342e-08
6.3170602e-08
1.7394941e-08
1.4352112e-08
1.4698768e-08
6.9597688e-09
1.3037484e-08
4.2879697e-09
1.1852818e-08
3.0578054e-09
1.0947634e-08
2.336422e-09
1.0222005e-08
1.8729828e-09
9.6223486e-09
1.5478283e-09
9.1149167e-09
1.3097851e-09
8.677277e-09
1.1296431e-09
8.2942207e-09
9.8875568e-10
7.9549547e-09
8.7572512e-10
7.6514688e-09
7.8336988e-10
7.3776547e-09
7.0678128e-10
7.1287968e-09
6.4236391e-10
6.9011675e-09
5.8756818e-10
6.6917647e-09
5.4052164e-10
6.4981721e-09
4.9971209e-10
6.3183939e-09
4.6405346e-10
6.1507625e-09
4.3269974e-10
5.993882e-09
4.0494919e-10
5.846568e-09
3.8025546e-10
5.7078116e-09
3.5816629e-10
5.5767481e-09
3.3830915e-10
5.4526295e-09
3.2038234e-10
5.3348026e-09
3.0414201e-10
5.2226953e-09
2.8937798e-10
5.1158049e-09
2.7591223e-10
5.0136875e-09
2.6359167e-10
4.9159518e-09
2.5228128e-10
4.8222486e-09
2.4187247e-10
4.7322634e-09
2.322754e-10
4.645714e-09
2.2340663e-10
4.5623468e-09
2.1519255e-10
4.481932e-09
2.0757156e-10
4.4042621e-09
2.0048644e-10
4.3291499e-09
1.938841e-10
4.2564243e-09
1.8772373e-10
4.1859272e-09
1.8197143e-10
4.117514e-09
1.7659255e-10
4.0510521e-09
1.7155552e-10
3.9864194e-09
1.6683368e-10
3.923503e-09
1.6240363e-10
3.8621993e-09
1.5824097e-10
3.8024135e-09
1.5432271e-10
3.7440566e-09
1.506344e-10
3.6870443e-09
1.4716347e-10
3.6312988e-09
1.4389387e-10
3.5767472e-09
1.4081163e-10
3.5233218e-09
1.3790497e-10
3.4709584e-09
1.3516347e-10
3.4195969e-09
1.3257741e-10
3.3691823e-09
1.3013333e-10
3.3196628e-09
1.2782267e-10
3.2709874e-09
1.256437e-10
3.223108e-09
1.2358924e-10
3.1759796e-09
1.2165068e-10
3.1295593e-09
1.1982281e-10
3.0838062e-09
1.1810059e-10
3.0386811e-09
1.1647963e-10
2.994147e-09
1.1495397e-10
2.9501696e-09
1.1351709e-10
2.906715e-09
1.1216762e-10
2.8637495e-09
1.1090504e-10
2.8212411e-09
1.0972508e-10
2.7791592e-09
1.0862439e-10
2.7374738e-09
1.0760072e-10
2.6961559e-09
1.066523e-10
2.6551768e-09
1.0577767e-10
2.6145097e-09
1.0497208e-10
2.5741287e-09
1.0423388e-10
2.5340064e-09
1.0356601e-10
2.4941161e-09
1.0296719e-10
2.4544318e-09
1.0243547e-10
2.4149275e-09
1.0197065e-10
2.3755773e-09
1.0157302e-10
2.3363549e-09
1.0124315e-10
2.2972348e-09
1.0097894e-10
2.2581915e-09
1.0078089e-10
2.2191976e-09
1.0065328e-10
2.1802253e-09
1.0059737e-10
2.1412467e-09
1.0061388e-10
2.1022322e-09
1.0070654e-10
2.063151e-09
1.0087854e-10
2.0239719e-09
1.0113128e-10
1.9846557e-09
1.0148529e-10
1.945177e-09
1.0190474e-10
1.9055131e-09
1.0238243e-10
1.867281e-09
9.8686769e-11
1.8312636e-09
9.297017e-11
1.7972462e-09
8.780772e-11
1.7650672e-09
8.3062263e-11
1.7345755e-09
7.8706672e-11
1.7056268e-09
7.472403e-11
1.6780908e-09
7.1077688e-11
1.6518495e-09
6.7735403e-11
1.6267963e-09
6.466885e-11
1.6028341e-09
6.18525e-11
1.5798744e-09
5.9264966e-11
1.5578341e-09
5.6891821e-11
1.536634e-09
5.4723105e-11
1.5161963e-09
5.275513e-11
1.4964444e-09
5.0984847e-11
1.4772915e-09
4.9439062e-11
1.4586531e-09
4.8110977e-11
1.4403829e-09
4.7160868e-11
1.4224158e-09
4.6378395e-11
1.4042253e-09
4.6956331e-11
1.3866748e-09
4.5305115e-11
1.3666481e-09
5.168654e-11
3.0443296e-11
2.4684818e-06
2.6005249e-10
2.4683637e-06
6.2203004e-10
2.4682146e-06
7.8487819e-10
2.4680451e-06
8.924799e-10
2.4678496e-06
1.0291308e-09
2.4676253e-06
1.1807573e-09
2.467369e-06
1.3491252e-09
2.4670759e-06
1.5431769e-09
2.4667397e-06
1.7704977e-09
2.4663525e-06
2.039009e-09
2.4659046e-06
2.3590379e-09
2.4653832e-06
2.7463137e-09
2.464772e-06
3.2202053e-09
2.4640471e-06
3.8192958e-09
2.4631792e-06
4.5739943e-09
2.462113e-06
5.6193397e-09
2.4607988e-06
6.9283033e-09
2.4590536e-06
9.202251e-09
2.4568605e-06
1.1566642e-08
2.4533561e-06
1.8489098e-08
2.4490043e-06
2.2962865e-08
2.4387949e-06
5.3881539e-08
2.4341727e-06
2.4281467e-08
1.2640866e-06
6.3159936e-06
6.3140957e-08
6.4160031e-06
3.0712904e-08
9.5598656e-08
2.3275146e-08
2.1789869e-08
1.966773e-08
1.0567185e-08
1.7444761e-08
6.5109381e-09
1.5859579e-08
4.6429882e-09
1.464837e-08
3.5476312e-09
1.3677428e-08
2.8439241e-09
1.287505e-08
2.350207e-09
1.2196076e-08
1.9887589e-09
1.1610491e-08
1.7152279e-09
1.1097944e-08
1.5013032e-09
1.0643991e-08
1.3296779e-09
1.0237914e-08
1.1894465e-09
9.8715401e-09
1.0731553e-09
9.5385589e-09
9.7534507e-10
9.2339824e-09
8.9214465e-10
8.9537942e-09
8.2070986e-10
8.6947608e-09
7.5874554e-10
8.4542113e-09
7.0460291e-10
8.2299149e-09
6.5699616e-10
8.0200035e-09
6.1486056e-10
7.8228926e-09
5.7736636e-10
7.6372321e-09
5.4382686e-10
7.4618648e-09
5.1367645e-10
7.2957901e-09
4.8645699e-10
7.1381339e-09
4.6179822e-10
6.9881308e-09
4.3938103e-10
6.845108e-09
4.1893511e-10
6.7084716e-09
4.0022799e-10
6.5776982e-09
3.8305472e-10
6.4523203e-09
3.6725036e-10
6.3319172e-09
3.5267852e-10
6.2161113e-09
3.392125e-10
6.1045633e-09
3.2674055e-10
5.9969658e-09
3.1516911e-10
5.8930409e-09
3.0441133e-10
5.7925384e-09
2.9438658e-10
5.6952292e-09
2.8503291e-10
5.6009018e-09
2.7629883e-10
5.5093626e-09
2.6813174e-10
5.4204345e-09
2.6048371e-10
5.3339539e-09
2.5331424e-10
5.2497697e-09
2.4658781e-10
5.1677433e-09
2.402674e-10
5.0877479e-09
2.3431806e-10
5.0096645e-09
2.2871787e-10
4.9333802e-09
2.2344774e-10
4.8587908e-09
2.1848331e-10
4.785799e-09
2.1380336e-10
4.714314e-09
2.0938999e-10
4.6442501e-09
2.052274e-10
4.5755267e-09
2.0130082e-10
4.5080702e-09
1.9758982e-10
4.4418114e-09
1.9408141e-10
4.3766822e-09
1.9077294e-10
4.3126179e-09
1.8765353e-10
4.2495585e-09
1.8471009e-10
4.1874465e-09
1.8193474e-10
4.1262273e-09
1.7931979e-10
4.0658484e-09
1.7685858e-10
4.0062603e-09
1.7454208e-10
3.947417e-09
1.7236037e-10
3.8892732e-09
1.7031139e-10
3.8317839e-09
1.6839434e-10
3.7749063e-09
1.6660273e-10
3.7185992e-09
1.6493149e-10
3.6628227e-09
1.633772e-10
3.6075378e-09
1.6193715e-10
3.5527064e-09
1.6060914e-10
3.4982925e-09
1.5938597e-10
3.4442612e-09
1.5826513e-10
3.3905762e-09
1.5725105e-10
3.3372015e-09
1.5634184e-10
3.2841025e-09
1.5553449e-10
3.2312444e-09
1.5482874e-10
3.1785925e-09
1.5422499e-10
3.1261115e-09
1.5372414e-10
3.0737674e-09
1.5332297e-10
3.0215261e-09
1.5302226e-10
2.9693508e-09
1.5282851e-10
2.9172046e-09
1.5274363e-10
2.8650498e-09
1.527687e-10
2.8128469e-09
1.5290939e-10
2.7605549e-09
1.5317056e-10
2.7081319e-09
1.5355431e-10
2.6555253e-09
1.5409182e-10
2.6027014e-09
1.547287e-10
2.5496297e-09
1.5545409e-10
2.4984737e-09
1.4984279e-10
2.450281e-09
1.4116284e-10
2.4047645e-09
1.3332428e-10
2.3617078e-09
1.2611894e-10
2.3209089e-09
1.1950556e-10
2.2821745e-09
1.1345845e-10
2.2453302e-09
1.0792197e-10
2.2102185e-09
1.0284715e-10
2.1766963e-09
9.8190985e-11
2.1446341e-09
9.3914718e-11
2.1139132e-09
8.9985874e-11
2.0844225e-09
8.6382541e-11
2.056056e-09
8.3089596e-11
2.0287097e-09
8.0101437e-11
2.0022811e-09
7.7413429e-11
1.9766539e-09
7.5066256e-11
1.9517153e-09
7.3049604e-11
1.9272694e-09
7.1606733e-11
1.9032293e-09
7.0418491e-11
1.8788907e-09
7.1294967e-11
1.8554084e-09
6.8787372e-11
1.8286113e-09
7.848361e-11
4.6216357e-11
2.6636779e-06
3.1351495e-10
2.6635499e-06
7.5005097e-10
2.6633882e-06
9.4655452e-10
2.6632044e-06
1.0763473e-09
2.6629923e-06
1.2411382e-09
2.6627491e-06
1.4239811e-09
2.6624712e-06
1.6270006e-09
2.6621534e-06
1.8609767e-09
2.6617889e-06
2.1350537e-09
2.6613691e-06
2.4587795e-09
2.6608836e-06
2.8446004e-09
2.6603184e-06
3.3114736e-09
2.6596559e-06
3.8827405e-09
2.6588703e-06
4.6049021e-09
2.6579297e-06
5.5145952e-09
2.6567744e-06
6.774574e-09
2.6553505e-06
8.3522009e-09
2.65346e-06
1.1092769e-08
2.6510846e-06
1.3942093e-08
2.6472897e-06
2.2283938e-08
2.6425776e-06
2.7675026e-08
2.6315242e-06
6.4934857e-08
2.6265058e-06
2.9299923e-08
1.3742827e-06
7.5682167e-06
8.2654634e-08
7.7076312e-06
4.0308489e-08
1.379448e-07
3.0547974e-08
3.1550385e-08
2.5813593e-08
1.5301566e-08
2.2895865e-08
9.4286659e-09
2.0815288e-08
6.7235654e-09
1.9225559e-08
5.1373601e-09
1.7951198e-08
4.1182848e-09
1.6898079e-08
3.4033258e-09
1.6006933e-08
2.8799054e-09
1.5238362e-08
2.4837982e-09
1.4565655e-08
2.1740107e-09
1.3969853e-08
1.9254796e-09
1.3436889e-08
1.7224109e-09
1.2956034e-08
1.5540103e-09
1.2519007e-08
1.4123723e-09
1.211926e-08
1.2918914e-09
1.1751523e-08
1.1884473e-09
1.141155e-08
1.0987178e-09
1.1095838e-08
1.0203156e-09
1.0801457e-08
9.5137718e-10
1.0525956e-08
8.9036164e-10
1.0267255e-08
8.3606722e-10
1.0023582e-08
7.8749955e-10
9.7934189e-09
7.4383956e-10
9.575452e-09
7.0442384e-10
9.3685341e-09
6.6871618e-10
9.1716606e-09
6.3625448e-10
8.9839484e-09
6.0664734e-10
8.8046183e-09
5.7955811e-10
8.632983e-09
5.5469e-10
8.4684292e-09
5.318042e-10
8.3104045e-09
5.1070316e-10
8.1584136e-09
4.9120342e-10
8.012011e-09
4.7314318e-10
7.8707931e-09
4.5638693e-10
7.7343955e-09
4.4080892e-10
7.6024897e-09
4.2629241e-10
7.474775e-09
4.1274765e-10
7.3509737e-09
4.0010011e-10
7.2308318e-09
3.882736e-10
7.1141168e-09
3.7719873e-10
7.0006142e-09
3.6681685e-10
6.8901255e-09
3.5707652e-10
6.7824688e-09
3.4792412e-10
6.6774778e-09
3.3930909e-10
6.574996e-09
3.3119964e-10
6.4748756e-09
3.2356813e-10
6.3769796e-09
3.1637929e-10
6.2811806e-09
3.096024e-10
6.187359e-09
3.0321155e-10
6.0954026e-09
2.9718384e-10
6.0052055e-09
2.9149788e-10
5.9166712e-09
2.8612411e-10
5.8297089e-09
2.810437e-10
5.7442291e-09
2.7625281e-10
5.6601469e-09
2.7173569e-10
5.5773836e-09
2.674734e-10
5.4958638e-09
2.6345449e-10
5.4155158e-09
2.5966787e-10
5.3362705e-09
2.5610387e-10
5.2580631e-09
2.5274942e-10
5.1808333e-09
2.4959017e-10
5.1045216e-09
2.4662312e-10
5.0290688e-09
2.438471e-10
4.9544188e-09
2.4125273e-10
4.8805177e-09
2.3883266e-10
4.8073129e-09
2.3658195e-10
4.7347534e-09
2.3449666e-10
4.6627889e-09
2.3257362e-10
4.5913725e-09
2.3080239e-10
4.5204583e-09
2.2917935e-10
4.4499984e-09
2.277109e-10
4.379946e-09
2.263943e-10
4.3102553e-09
2.2522521e-10
4.2408808e-09
2.2420324e-10
4.1717768e-09
2.2332897e-10
4.1028972e-09
2.2260371e-10
4.0341974e-09
2.220228e-10
3.9656323e-09
2.2158737e-10
3.897154e-09
2.2130681e-10
3.8287137e-09
2.2118391e-10
3.7602622e-09
2.2122021e-10
3.6917476e-09
2.2142396e-10
3.623116e-09
2.2180215e-10
3.5543124e-09
2.2235787e-10
3.4852681e-09
2.231362e-10
3.4159383e-09
2.2405848e-10
3.3462833e-09
2.2510903e-10
3.2791426e-09
2.1698353e-10
3.2158912e-09
2.0441424e-10
3.1561521e-09
1.9306335e-10
3.0996416e-09
1.8262947e-10
3.0460943e-09
1.7305283e-10
2.9952566e-09
1.6429617e-10
2.9468996e-09
1.5627894e-10
2.9008166e-09
1.4893022e-10
2.8568198e-09
1.4218774e-10
2.8147392e-09
1.3599537e-10
2.774419e-09
1.3030608e-10
2.7357133e-09
1.2508815e-10
2.6984833e-09
1.2031966e-10
2.6625922e-09
1.1599251e-10
2.6279057e-09
1.1209996e-10
2.594271e-09
1.0870092e-10
2.5615402e-09
1.0578045e-10
2.5294562e-09
1.0369066e-10
2.497905e-09
1.0196976e-10
2.4659627e-09
1.0323725e-10
2.4351443e-09
9.96058e-11
2.3999736e-09
1.1365425e-10
6.6917206e-11
2.8985688e-06
3.7197515e-10
2.8984288e-06
8.9011064e-10
2.8982518e-06
1.1235045e-09
2.8980505e-06
1.2775983e-09
2.8978185e-06
1.4731833e-09
2.8975523e-06
1.6901833e-09
2.8972482e-06
1.931113e-09
2.8969004e-06
2.2087611e-09
2.8965015e-06
2.533977e-09
2.8960422e-06
2.9180857e-09
2.8955109e-06
3.3758491e-09
2.8948926e-06
3.9297512e-09
2.8941679e-06
4.6074726e-09
2.8933087e-06
5.4641654e-09
2.89228e-06
6.5432642e-09
2.8910168e-06
8.0378067e-09
2.88946e-06
9.9089971e-09
2.8873933e-06
1.3159378e-08
2.884797e-06
1.6538405e-08
2.8806505e-06
2.6430472e-08
2.8755021e-06
3.282345e-08
2.8634273e-06
7.7009589e-08
2.8579272e-06
3.4800071e-08
1.5074467e-06
8.9186972e-06
1.0697663e-07
9.1081013e-06
5.2314995e-08
1.9260644e-07
3.9648573e-08
4.4216807e-08
3.3504124e-08
2.1446016e-08
2.9716968e-08
1.3215822e-08
2.7016466e-08
9.4240677e-09
2.4953067e-08
7.2007593e-09
2.329902e-08
5.7723309e-09
2.1932138e-08
4.7702081e-09
2.0775491e-08
4.0365527e-09
1.9777945e-08
3.4813443e-09
1.8904825e-08
3.0471304e-09
1.8131525e-08
2.6987795e-09
1.7439784e-08
2.4141519e-09
1.6815678e-08
2.1781168e-09
1.6248456e-08
1.9795935e-09
1.5729622e-08
1.8107257e-09
1.5252334e-08
1.6657357e-09
1.4811082e-08
1.5399692e-09
1.4401317e-08
1.4300806e-09
1.4019239e-08
1.3334554e-09
1.3661665e-08
1.2479355e-09
1.3325896e-08
1.1718359e-09
1.3009633e-08
1.1037631e-09
1.2710904e-08
1.0425689e-09
1.2428004e-08
9.8732361e-10
1.2159444e-08
9.3727555e-10
1.1903922e-08
8.9177706e-10
1.166029e-08
8.5027953e-10
1.1427537e-08
8.1231113e-10
1.1204771e-08
7.774559e-10
1.0991196e-08
7.4537908e-10
1.0786095e-08
7.158038e-10
1.0588826e-08
6.8847289e-10
1.0398809e-08
6.6315959e-10
1.0215522e-08
6.3967398e-10
1.0038491e-08
6.1783979e-10
9.8672905e-09
5.9749341e-10
9.7015291e-09
5.7850905e-10
9.5408469e-09
5.6078223e-10
9.3849144e-09
5.4420616e-10
9.2334295e-09
5.2868359e-10
9.0861141e-09
5.1413232e-10
8.9427103e-09
5.0048024e-10
8.8029822e-09
4.8765222e-10
8.6667139e-09
4.7557739e-10
8.5337024e-09
4.6421117e-10
8.4037557e-09
4.5351484e-10
8.2766961e-09
4.4343894e-10
8.152358e-09
4.3394044e-10
8.0305866e-09
4.2498301e-10
7.9112358e-09
4.1653455e-10
7.7941686e-09
4.0856509e-10
7.6792595e-09
4.0103321e-10
7.5663907e-09
3.9391252e-10
7.4554459e-09
3.8719761e-10
7.3463152e-09
3.808664e-10
7.2388962e-09
3.7489236e-10
7.1330913e-09
3.6925946e-10
7.028807e-09
3.6395213e-10
6.9259541e-09
3.5895681e-10
6.8244483e-09
3.5425521e-10
6.7242113e-09
3.4982721e-10
6.6251658e-09
3.456686e-10
6.5272351e-09
3.4177772e-10
6.4303464e-09
3.3814146e-10
6.3344296e-09
3.3474949e-10
6.2394166e-09
3.3159489e-10
6.1452412e-09
3.2867216e-10
6.051838e-09
3.2597682e-10
5.9591461e-09
3.2349427e-10
5.867106e-09
3.2121943e-10
5.7756556e-09
3.1916126e-10
5.684734e-09
3.1731592e-10