/*--------------------------------*- C++ -*----------------------------------*\
| =========                 |                                                 |
| \\      /  F ield         | OpenFOAM: The Open Source CFD Toolbox           |
|  \\    /   O peration     | Version:  2206                                  |
|   \\  /    A nd           | Website:  www.openfoam.com                      |
|    \\/     M anipulation  |                                                 |
\*---------------------------------------------------------------------------*/
FoamFile
{
    version     2.0;
    format      ascii;
    arch        "LSB;label=32;scalar=64";
    class       volVectorField;
    location    "2000";
    object      U;
}
// * * * * * * * * * * * * * * * * * * * * * * * * * * * * * * * * * * * * * //

dimensions      [0 1 -1 0 0 0 0];

internalField   nonuniform List<vector> 
13056
(
(1 4.9352211e-10 4.2471673e-25)
(0.99996287 1.3390691e-09 0)
(0.99990681 1.9165266e-09 0)
(0.99984424 2.472244e-09 0)
(0.99977206 3.2332705e-09 0)
(0.99968885 4.2055382e-09 0)
(0.99959371 5.4445263e-09 0)
(0.99948504 7.0511041e-09 0)
(0.99936057 9.1509223e-09 0)
(0.99921753 1.1906811e-08 0)
(0.99905246 1.5540018e-08 0)
(0.99886102 2.036846e-08 0)
(0.99863738 2.6822967e-08 0)
(0.99837423 3.5617599e-08 0)
(0.99805999 4.7570107e-08 0)
(0.99768247 6.4858783e-08 0)
(0.99721041 8.8216865e-08 0)
(0.99663353 1.2832382e-07 0)
(0.99582006 1.7510569e-07 0)
(0.99487709 3.0080196e-07 0)
(0.99303215 3.9664477e-07 0)
(0.99137118 9.7509551e-07 0)
(0.98490717 4.5211279e-07 -4.7470179e-21)
(0.98757313 0.00012291754 7.7497402e-18)
(0.0031394729 0.00012342663 0)
(0.0012263835 6.4670306e-08 -1.0294757e-20)
(0.00087461062 4.6271058e-08 3.416573e-18)
(0.00071778867 5.3097837e-09 0)
(0.00062791241 3.2435048e-09 0)
(0.00056578843 2.2918366e-09 0)
(0.00051949723 1.7350724e-09 0)
(0.00048294061 1.3776864e-09 0)
(0.00045307623 1.1273878e-09 0)
(0.00042804729 9.4443377e-10 0)
(0.00040662244 8.0615897e-10 0)
(0.00038798066 6.9816066e-10 0)
(0.00037155158 6.1164704e-10 0)
(0.00035691806 5.4105361e-10 0)
(0.00034376421 4.8258932e-10 0)
(0.00033184689 4.3348756e-10 0)
(0.00032097768 3.9176974e-10 0)
(0.00031100382 3.5599104e-10 1.700616e-25)
(0.00030180321 3.2499062e-10 0)
(0.00029327681 2.9792877e-10 0)
(0.00028534104 2.7415482e-10 0)
(0.00027792674 2.5312894e-10 0)
(0.00027097529 2.3443071e-10 0)
(0.00026443691 2.1771362e-10 0)
(0.00025826899 2.0269284e-10 0)
(0.00025243497 1.8913726e-10 0)
(0.00024690296 1.7685893e-10 0)
(0.00024164503 1.6569678e-10 0)
(0.00023663673 1.5551465e-10 0)
(0.00023185647 1.461959e-10 0)
(0.00022728522 1.3763867e-10 0)
(0.00022290617 1.2975985e-10 0)
(0.00021870416 1.2248971e-10 0)
(0.00021466555 1.1576468e-10 0)
(0.00021077815 1.0952905e-10 0)
(0.00020703092 1.0373552e-10 0)
(0.00020341386 9.8341013e-11 0)
(0.00019991797 9.3306303e-11 0)
(0.00019653512 8.8599872e-11 0)
(0.00019325777 8.4194748e-11 0)
(0.00019007897 8.0064692e-11 0)
(0.00018699242 7.6186068e-11 0)
(0.00018399231 7.2538442e-11 0)
(0.00018107326 6.9103706e-11 0)
(0.0001782303 6.5864119e-11 0)
(0.00017545891 6.2803339e-11 0)
(0.00017275494 5.9909311e-11 0)
(0.00017011439 5.7171166e-11 0)
(0.00016753355 5.4577122e-11 0)
(0.00016500898 5.2116759e-11 0)
(0.00016253746 4.9780945e-11 0)
(0.000160116 4.7561428e-11 0)
(0.00015774173 4.5450594e-11 0)
(0.00015541199 4.3439885e-11 0)
(0.00015312441 4.1522846e-11 0)
(0.00015087663 3.9695523e-11 0)
(0.00014866634 3.7952292e-11 0)
(0.00014649143 3.6287388e-11 0)
(0.00014434989 3.4696352e-11 0)
(0.0001422398 3.3174955e-11 0)
(0.00014015934 3.1719338e-11 0)
(0.00013810674 3.0325396e-11 0)
(0.00013608038 2.8989087e-11 0)
(0.00013407873 2.7707907e-11 0)
(0.00013210021 2.6479607e-11 0)
(0.00013014332 2.5301101e-11 0)
(0.00012820664 2.4169683e-11 0)
(0.00012628877 2.3083016e-11 0)
(0.00012438837 2.203895e-11 0)
(0.0001225041 2.10355e-11 0)
(0.00012063469 2.0070101e-11 0)
(0.00011877896 1.914095e-11 0)
(0.00011693569 1.8247135e-11 0)
(0.00011510361 1.7386966e-11 0)
(0.00011328152 1.655872e-11 0)
(0.00011146825 1.5761044e-11 0)
(0.00010966259 1.499269e-11 0)
(0.00010786335 1.4252496e-11 0)
(0.00010606932 1.3538951e-11 0)
(0.00010427937 1.2850988e-11 0)
(0.00010249227 1.2188031e-11 0)
(0.00010070675 1.1549089e-11 0)
(9.8921526e-05 1.0933135e-11 0)
(9.7135296e-05 1.0339492e-11 0)
(9.5346651e-05 9.7674036e-12 0)
(9.3554168e-05 9.2159297e-12 0)
(9.1756391e-05 8.6858177e-12 0)
(8.9951141e-05 8.1729226e-12 0)
(8.8138326e-05 7.6760016e-12 0)
(8.6356791e-05 7.2116233e-12 0)
(8.4659705e-05 6.7939387e-12 0)
(8.3058159e-05 6.416733e-12 0)
(8.1544234e-05 6.0699626e-12 0)
(8.0111058e-05 5.7516781e-12 0)
(7.8751672e-05 5.4606501e-12 0)
(7.7459802e-05 5.1941981e-12 0)
(7.622979e-05 4.9499667e-12 0)
(7.5056506e-05 4.7258857e-12 0)
(7.3935295e-05 4.5200901e-12 0)
(7.2861935e-05 4.331017e-12 0)
(7.183253e-05 4.1576128e-12 0)
(7.0843367e-05 3.9991523e-12 0)
(6.9890906e-05 3.8553667e-12 0)
(6.8971563e-05 3.7260361e-12 0)
(6.8081906e-05 3.6131176e-12 0)
(6.7217399e-05 3.516138e-12 0)
(6.6374851e-05 3.4467607e-12 0)
(6.554403e-05 3.3898144e-12 0)
(6.4729235e-05 3.4319153e-12 0)
(6.3877805e-05 1.3867363e-11 0)
(6.3121781e-05 3.7472816e-12 2.5825224e-24)
(6.2043068e-05 9.366225e-12 0)
(1 1.4891389e-09 0)
(0.99996282 4.0408847e-09 0)
(0.99990665 5.7838219e-09 0)
(0.99984397 7.4609756e-09 0)
(0.99977166 9.7576315e-09 0)
(0.99968829 1.2691747e-08 0)
(0.99959298 1.6430714e-08 0)
(0.99948411 2.1278897e-08 0)
(0.99935942 2.7615433e-08 0)
(0.99921612 3.5931631e-08 0)
(0.99905077 4.6895049e-08 0)
(0.998859 6.1464903e-08 0)
(0.99863498 8.0941053e-08 0)
(0.9983714 1.0747789e-07 0)
(0.99805665 1.4354248e-07 0)
(0.99767853 1.9570682e-07 0)
(0.99720573 2.6618222e-07 0)
(0.99662799 3.871886e-07 0)
(0.99581335 5.2832925e-07 0)
(0.99486906 9.0753949e-07 0)
(0.99302171 1.1966889e-06 0)
(0.99135857 2.941836e-06 0)
(0.98488638 1.3630246e-06 1.6971236e-20)
(0.98755177 0.00036943782 -6.4998597e-21)
(0.0094294711 0.00037145632 0)
(0.0036972775 1.2047681e-06 0)
(0.0026368592 2.6423889e-07 2.1165333e-22)
(0.0021641114 1.2647315e-07 0)
(0.0018931214 7.7223151e-08 0)
(0.0017058165 5.4573587e-08 0)
(0.0015662455 4.131268e-08 0)
(0.0014560274 3.2803415e-08 0)
(0.0013659861 2.6843498e-08 0)
(0.0012905242 2.2487204e-08 0)
(0.001225929 1.9194642e-08 0)
(0.0011697249 1.6623111e-08 0)
(0.0011201922 1.4563161e-08 0)
(0.0010760731 1.2882461e-08 0)
(0.0010364152 1.1490518e-08 0)
(0.0010004854 1.0321317e-08 0)
(0.0009677156 9.3279627e-09 0)
(0.00093764524 8.4760119e-09 -2.5139703e-25)
(0.00090990626 7.7378549e-09 -3.1233095e-25)
(0.00088419991 7.0935066e-09 0)
(0.00086027427 6.5274334e-09 0)
(0.00083792085 6.026799e-09 0)
(0.00081696289 5.5815909e-09 0)
(0.00079725028 5.1835556e-09 0)
(0.0007786546 4.8259132e-09 0)
(0.00076106561 4.5031586e-09 0)
(0.00074438713 4.2108151e-09 0)
(0.00072853497 3.9450487e-09 0)
(0.00071343546 3.7026165e-09 0)
(0.00069902343 3.4807417e-09 0)
(0.00068524157 3.2770003e-09 0)
(0.00067203917 3.0894114e-09 0)
(0.00065937052 2.9163144e-09 0)
(0.00064719452 2.7561969e-09 0)
(0.00063547438 2.6077317e-09 0)
(0.00062417688 2.4697927e-09 0)
(0.0006132718 2.3413543e-09 0)
(0.00060273205 2.2214833e-09 0)
(0.0005925331 2.1094283e-09 0)
(0.00058265219 2.0045468e-09 0)
(0.00057306845 1.9062146e-09 0)
(0.00056376282 1.8138689e-09 0)
(0.00055471778 1.7270231e-09 0)
(0.00054591714 1.645246e-09 0)
(0.00053734589 1.5681152e-09 0)
(0.00052899045 1.4952423e-09 0)
(0.00052083825 1.4263393e-09 0)
(0.00051287726 1.3611475e-09 0)
(0.00050509626 1.2993867e-09 0)
(0.00049748494 1.2408088e-09 0)
(0.00049003357 1.1851962e-09 0)
(0.0004827331 1.1323526e-09 0)
(0.00047557491 1.0820965e-09 0)
(0.00046855099 1.0342245e-09 0)
(0.00046165417 9.8858297e-10 0)
(0.00045487734 9.4507699e-10 0)
(0.00044821353 9.0357324e-10 0)
(0.00044165639 8.6393444e-10 0)
(0.00043519986 8.2605431e-10 0)
(0.00042883816 7.898322e-10 0)
(0.00042256578 7.5517622e-10 0)
(0.00041637739 7.2198865e-10 0)
(0.00041026811 6.9017343e-10 0)
(0.00040423333 6.596707e-10 0)
(0.00039826831 6.3042685e-10 0)
(0.00039236849 6.0236859e-10 0)
(0.00038652959 5.7543143e-10 0)
(0.00038074739 5.4955973e-10 0)
(0.00037501787 5.2470235e-10 0)
(0.000369337 5.0081185e-10 0)
(0.0003637009 4.778274e-10 0)
(0.00035810608 4.5570605e-10 0)
(0.0003525488 4.3442586e-10 0)
(0.00034702525 4.1394678e-10 0)
(0.00034153185 3.9422773e-10 0)
(0.000336065 3.752365e-10 0)
(0.00033062112 3.5694341e-10 0)
(0.00032519659 3.3932069e-10 0)
(0.00031978776 3.223325e-10 0)
(0.00031439124 3.0595341e-10 0)
(0.00030900333 2.9016962e-10 0)
(0.00030362016 2.7495759e-10 0)
(0.00029823789 2.6029286e-10 0)
(0.00029285258 2.4615934e-10 0)
(0.00028746 2.3253893e-10 0)
(0.00028205584 2.1940937e-10 0)
(0.00027663573 2.0678836e-10 0)
(0.00027119308 1.9457699e-10 0)
(0.00026572762 1.8274721e-10 0)
(0.00026035647 1.7169195e-10 0)
(0.00025523992 1.6174669e-10 0)
(0.00025041142 1.527655e-10 0)
(0.00024584709 1.4450951e-10 0)
(0.00024152621 1.3693179e-10 0)
(0.0002374278 1.3000292e-10 0)
(0.00023353295 1.2365914e-10 0)
(0.00022982459 1.1784437e-10 0)
(0.00022628726 1.1250933e-10 0)
(0.00022290693 1.076096e-10 0)
(0.00021967086 1.0310798e-10 0)
(0.00021656731 9.8979377e-11 0)
(0.0002135851 9.5206474e-11 0)
(0.00021071353 9.1782873e-11 0)
(0.00020794182 8.8703288e-11 0)
(0.00020525961 8.6014396e-11 0)
(0.00020265324 8.3704405e-11 0)
(0.00020011308 8.2052383e-11 0)
(0.00019760829 8.0692041e-11 0)
(0.00019515181 8.1700673e-11 0)
(0.00019258499 7.917387e-11 0)
(0.00019030565 8.9851044e-11 -3.994478e-24)
(0.00018705344 5.3309144e-11 2.4118843e-25)
(1 2.5087491e-09 0)
(0.99996274 6.8081606e-09 0)
(0.99990645 9.745328e-09 0)
(0.99984362 1.2571345e-08 0)
(0.99977113 1.6441011e-08 0)
(0.99968757 2.1384683e-08 0)
(0.99959204 2.7684342e-08 0)
(0.99948292 3.5852735e-08 0)
(0.99935794 4.6528574e-08 0)
(0.99921432 6.0539524e-08 0)
(0.9990486 7.9010126e-08 0)
(0.99885641 1.0355621e-07 0)
(0.99863191 1.3636737e-07 0)
(0.99836777 1.8107262e-07 0)
(0.99805238 2.418274e-07 0)
(0.99767349 3.2970187e-07 0)
(0.99719977 4.4841928e-07 0)
(0.99662093 6.522514e-07 0)
(0.99580479 8.899913e-07 0)
(0.99485882 1.5287138e-06 0)
(0.99300841 2.0157477e-06 0)
(0.9913425 4.9552282e-06 0)
(0.98485997 2.2975439e-06 -8.991594e-21)
(0.98752465 0.00061969285 5.3647787e-55)
(0.015822888 0.00062428779 -5.3638452e-55)
(0.0062231077 3.4190727e-06 0)
(0.0044383944 7.6892629e-07 -1.0980075e-22)
(0.0036427328 3.7034605e-07 0)
(0.003186569 2.2614163e-07 0)
(0.0028712841 1.598135e-07 0)
(0.002636346 1.2097962e-07 0)
(0.00245082 9.6060366e-08 0)
(0.0022992572 7.8607434e-08 0)
(0.0021722357 6.585031e-08 0)
(0.0020635062 5.6208284e-08 0)
(0.0019689013 4.8677815e-08 0)
(0.0018855262 4.2645518e-08 0)
(0.0018112636 3.7723821e-08 0)
(0.0017445104 3.3647721e-08 0)
(0.0016840324 3.0223911e-08 0)
(0.0016288736 2.7315054e-08 0)
(0.0015782584 2.4820257e-08 0)
(0.0015315677 2.2658697e-08 0)
(0.0014882982 2.0771859e-08 0)
(0.0014480261 1.9114219e-08 0)
(0.0014104005 1.764821e-08 0)
(0.0013751236 1.6344507e-08 0)
(0.001341943 1.5178941e-08 0)
(0.0013106425 1.4131659e-08 0)
(0.0012810364 1.3186539e-08 0)
(0.0012529629 1.2330471e-08 0)
(0.0012262803 1.1552229e-08 0)
(0.0012008646 1.0842317e-08 0)
(0.001176606 1.0192604e-08 0)
(0.0011534082 9.5959899e-09 0)
(0.0011311857 9.0466759e-09 0)
(0.0011098616 8.5397982e-09 0)
(0.0010893668 8.070928e-09 0)
(0.0010696393 7.6361793e-09 0)
(0.0010506231 7.2322545e-09 0)
(0.0010322676 6.85615e-09 0)
(0.0010145269 6.5051336e-09 0)
(0.00099735986 6.1770048e-09 0)
(0.00098072817 5.8698818e-09 0)
(0.00096459667 5.5819372e-09 0)
(0.00094893328 5.3115227e-09 0)
(0.00093370854 5.0572135e-09 0)
(0.00091889518 4.8177467e-09 0)
(0.00090446792 4.5918859e-09 0)
(0.0008904039 4.3784934e-09 0)
(0.000876682 4.1767261e-09 0)
(0.00086328194 3.9858259e-09 0)
(0.00085018485 3.8049729e-09 0)
(0.00083737335 3.6334401e-09 0)
(0.0008248311 3.4705906e-09 0)
(0.00081254282 3.3158497e-09 0)
(0.00080049405 3.1686854e-09 0)
(0.00078867128 3.0285026e-09 0)
(0.00077706245 2.8948514e-09 0)
(0.00076565559 2.7674536e-09 0)
(0.00075443896 2.6459188e-09 0)
(0.00074340187 2.5298452e-09 0)
(0.00073253415 2.4189214e-09 0)
(0.00072182604 2.3128528e-09 0)
(0.00071126826 2.2113703e-09 0)
(0.00070085187 2.1141876e-09 0)
(0.00069056864 2.0210237e-09 0)
(0.00068041081 1.9317031e-09 0)
(0.00067037039 1.8460688e-09 0)
(0.00066043971 1.7639063e-09 0)
(0.00065061158 1.6850266e-09 0)
(0.00064087889 1.6092669e-09 0)
(0.00063123487 1.5364775e-09 0)
(0.00062167274 1.4665193e-09 0)
(0.00061218598 1.3992143e-09 0)
(0.00060276867 1.3344368e-09 0)
(0.00059341457 1.2721223e-09 0)
(0.00058411724 1.2121538e-09 0)
(0.00057487067 1.1544108e-09 0)
(0.00056566877 1.0987991e-09 0)
(0.00055650556 1.0452317e-09 0)
(0.00054737489 9.9362737e-10 0)
(0.00053827068 9.4388112e-10 0)
(0.00052918717 8.9591851e-10 0)
(0.00052011814 8.4969907e-10 0)
(0.00051105709 8.051539e-10 0)
(0.00050199758 7.6221143e-10 0)
(0.00049293294 7.2082445e-10 0)
(0.00048385606 6.8093998e-10 0)
(0.0004747597 6.4249289e-10 0)
(0.00046563647 6.0553492e-10 0)
(0.00045647532 5.6977652e-10 0)
(0.00044727577 5.3513592e-10 0)
(0.00043823495 5.0276323e-10 0)
(0.00042962268 4.7364034e-10 0)
(0.00042149528 4.4734058e-10 0)
(0.00041381252 4.2316463e-10 0)
(0.00040653955 4.0097493e-10 0)
(0.00039964105 3.8068522e-10 0)
(0.00039308517 3.6210881e-10 0)
(0.0003868432 3.4508146e-10 0)
(0.00038088911 3.2945888e-10 0)
(0.00037519929 3.15111e-10 0)
(0.0003697523 3.0192888e-10 0)
(0.00036452836 2.8983904e-10 0)
(0.00035950866 2.7879075e-10 0)
(0.00035467521 2.6876526e-10 0)
(0.00035000985 2.5974707e-10 0)
(0.00034549514 2.5187283e-10 0)
(0.00034110808 2.4510796e-10 0)
(0.00033683248 2.4026955e-10 0)
(0.00033261645 2.3628493e-10 0)
(0.00032848174 2.3923625e-10 0)
(0.00032416145 2.3039605e-10 0)
(0.00032032484 2.6322003e-10 0)
(0.00031485066 1.5496358e-10 0)
(1 3.568178e-09 8.7635939e-25)
(0.99996265 9.6841898e-09 0)
(0.9999062 1.3863236e-08 0)
(0.99984318 1.7883624e-08 0)
(0.99977049 2.3388365e-08 0)
(0.99968668 3.0420816e-08 0)
(0.99959087 3.9382003e-08 0)
(0.99948144 5.1001185e-08 0)
(0.99935611 6.6186782e-08 0)
(0.9992121 8.6115913e-08 0)
(0.99904592 1.1238787e-07 0)
(0.99885321 1.473006e-07 0)
(0.99862812 1.939679e-07 0)
(0.99836329 2.5755054e-07 0)
(0.99804709 3.4395745e-07 0)
(0.99766726 4.6893096e-07 0)
(0.99719239 6.3776295e-07 0)
(0.99661219 9.2762947e-07 0)
(0.9957942 1.2657015e-06 0)
(0.99484617 2.1739384e-06 0)
(0.99299198 2.8664868e-06 0)
(0.99132267 7.0463569e-06 0)
(0.98482743 3.26964e-06 0)
(0.98749124 0.00087738115 -2.798872e-55)
(0.022411915 0.0008857631 2.7983876e-55)
(0.0088414902 7.056629e-06 0)
(0.0063060569 1.5881136e-06 0)
(0.0051756878 7.6373504e-07 0)
(0.0045275294 4.6637709e-07 0)
(0.0040795583 3.2958509e-07 0)
(0.0037457444 2.4949686e-07 0)
(0.0034821419 1.9810447e-07 0)
(0.0032667962 1.6211117e-07 0)
(0.0030863201 1.3580186e-07 0)
(0.0029318345 1.1591687e-07 0)
(0.0027974182 1.0038671e-07 0)
(0.0026789576 8.7946341e-08 0)
(0.0025734445 7.7796387e-08 0)
(0.0024786009 6.9390316e-08 0)
(0.0023926734 6.2329472e-08 0)
(0.0023143033 5.6330638e-08 0)
(0.002242389 5.1185675e-08 0)
(0.0021760507 4.6727957e-08 0)
(0.0021145734 4.2836825e-08 0)
(0.0020573547 3.9418334e-08 0)
(0.0020038961 3.6395044e-08 0)
(0.0019537747 3.3706472e-08 0)
(0.0019066317 3.1302776e-08 0)
(0.0018621598 2.9143013e-08 0)
(0.0018200955 2.7193936e-08 0)
(0.0017802086 2.5428508e-08 0)
(0.001742298 2.3823577e-08 0)
(0.0017061873 2.235956e-08 0)
(0.0016717207 2.1019686e-08 0)
(0.0016387612 1.9789319e-08 0)
(0.0016071875 1.8656496e-08 0)
(0.0015768903 1.7611188e-08 0)
(0.0015477712 1.664426e-08 0)
(0.0015197424 1.57477e-08 0)
(0.0014927243 1.4914706e-08 0)
(0.0014666446 1.4139085e-08 0)
(0.0014414387 1.3415201e-08 0)
(0.0014170478 1.2738519e-08 0)
(0.0013934175 1.2105154e-08 0)
(0.0013704978 1.1511341e-08 0)
(0.0013482433 1.0953679e-08 0)
(0.001326612 1.042923e-08 0)
(0.0013055652 9.93539e-09 0)
(0.0012850669 9.4696089e-09 0)
(0.0012650848 9.0295408e-09 0)
(0.0012455887 8.6134466e-09 0)
(0.0012265499 8.2197631e-09 0)
(0.0012079415 7.8467992e-09 0)
(0.0011897389 7.4930561e-09 0)
(0.0011719189 7.1572199e-09 0)
(0.0011544597 6.8381056e-09 0)
(0.0011373408 6.5346163e-09 0)
(0.001120543 6.2455248e-09 0)
(0.0011040492 5.969903e-09 0)
(0.0010878423 5.707177e-09 0)
(0.0010719057 5.4565421e-09 0)
(0.0010562242 5.2171695e-09 0)
(0.0010407833 4.9884171e-09 0)
(0.0010255692 4.7696773e-09 0)
(0.0010105687 4.5603951e-09 0)
(0.00099576911 4.3599804e-09 0)
(0.00098115869 4.1678533e-09 0)
(0.00096672643 3.9836521e-09 0)
(0.000952461 3.8070529e-09 0)
(0.00093835149 3.6376134e-09 0)
(0.00092438765 3.4749439e-09 0)
(0.00091055945 3.3187086e-09 0)
(0.00089685721 3.1685987e-09 0)
(0.00088327133 3.0243275e-09 0)
(0.00086979252 2.885528e-09 0)
(0.0008564124 2.7519406e-09 0)
(0.00084312207 2.6234327e-09 0)
(0.00082991242 2.4997627e-09 0)
(0.00081677488 2.3806823e-09 0)
(0.00080370081 2.2659971e-09 0)
(0.00079068169 2.1555278e-09 0)
(0.00077770883 2.0491069e-09 0)
(0.00076477354 1.9465177e-09 0)
(0.00075186767 1.8476069e-09 0)
(0.00073898239 1.7522909e-09 0)
(0.00072610844 1.6604277e-09 0)
(0.00071323666 1.5718696e-09 0)
(0.00070035761 1.4865194e-09 0)
(0.00068746116 1.4042676e-09 0)
(0.00067453703 1.3249801e-09 0)
(0.00066157473 1.2487635e-09 0)
(0.00064855856 1.1750208e-09 0)
(0.00063548782 1.1035838e-09 0)
(0.00062264259 1.0368236e-09 0)
(0.00061040625 9.7676447e-10 0)
(0.00059885881 9.2252735e-10 0)
(0.00058794315 8.7267067e-10 0)
(0.0005776097 8.2690977e-10 0)
(0.00056780828 7.8506731e-10 0)
(0.00055849368 7.4675807e-10 0)
(0.00054962508 7.1164338e-10 0)
(0.00054116551 6.7942565e-10 0)
(0.0005330814 6.4983661e-10 0)
(0.00052534231 6.2265165e-10 0)
(0.00051792015 5.9771919e-10 0)
(0.00051078816 5.7493459e-10 0)
(0.0005039208 5.5425918e-10 0)
(0.00049729227 5.3566096e-10 0)
(0.00049087779 5.1942167e-10 0)
(0.0004846447 5.0546992e-10 0)
(0.00047856998 4.9549045e-10 0)
(0.00047257994 4.872716e-10 0)
(0.00046670543 4.9335322e-10 0)
(0.00046056748 4.7586512e-10 0)
(0.00045511642 5.4294042e-10 0)
(0.00044733871 3.1989251e-10 0)
(1 4.683909e-09 0)
(0.99996254 1.2713894e-08 0)
(0.99990589 1.8202088e-08 0)
(0.99984265 2.3481124e-08 0)
(0.9997697 3.0708621e-08 0)
(0.9996856 3.9941779e-08 0)
(0.99958946 5.1706966e-08 0)
(0.99947965 6.696145e-08 0)
(0.99935389 8.6897681e-08 0)
(0.99920939 1.1306075e-07 0)
(0.99904266 1.4754984e-07 0)
(0.99884933 1.9338106e-07 0)
(0.99862351 2.5464117e-07 0)
(0.99835785 3.3810353e-07 0)
(0.99804068 4.5152261e-07 0)
(0.99765971 6.1555915e-07 0)
(0.99718345 8.3715402e-07 0)
(0.9966016 1.2175933e-06 0)
(0.99578138 1.6612785e-06 0)
(0.99483084 2.8531816e-06 0)
(0.99297209 3.7620358e-06 0)
(0.99129867 9.2474656e-06 0)
(0.98478809 4.2947196e-06 0)
(0.98745085 0.0011461487 0)
(0.02928983 0.0011596112 0)
(0.011591413 1.2267638e-05 0)
(0.0082676716 2.7546767e-06 0)
(0.0067858236 1.3243774e-06 0)
(0.0059359866 8.0877947e-07 0)
(0.0053486449 5.7155383e-07 0)
(0.0049109725 4.3266707e-07 0)
(0.004565361 3.4354233e-07 0)
(0.0042830202 2.8112414e-07 0)
(0.0040463979 2.354993e-07 0)
(0.0038438527 2.0101529e-07 0)
(0.0036676211 1.7408348e-07 0)
(0.0035123092 1.5251001e-07 0)
(0.0033739728 1.3490853e-07 0)
(0.0032496252 1.2033123e-07 0)
(0.0031369675 1.0808677e-07 0)
(0.0030342183 9.7684036e-08 0)
(0.0029399332 8.876197e-08 0)
(0.0028529588 8.1031714e-08 0)
(0.0027723573 7.428405e-08 0)
(0.0026973394 6.8355955e-08 0)
(0.0026272512 6.3113205e-08 0)
(0.0025615384 5.8450899e-08 0)
(0.0024997305 5.4282604e-08 0)
(0.0024414246 5.0537321e-08 0)
(0.0023862752 4.7157395e-08 0)
(0.0023339807 4.4095937e-08 0)
(0.0022842771 4.13128e-08 0)
(0.0022369334 3.8774024e-08 0)
(0.0021917452 3.6450528e-08 0)
(0.002148533 3.4316932e-08 0)
(0.0021071376 3.2352487e-08 0)
(0.0020674157 3.0539802e-08 0)
(0.0020292385 2.886304e-08 0)
(0.0019924907 2.7308302e-08 0)
(0.001957068 2.5863795e-08 0)
(0.0019228757 2.4518779e-08 0)
(0.0018898289 2.3263484e-08 0)
(0.0018578506 2.2090039e-08 0)
(0.0018268696 2.0991714e-08 0)
(0.0017968203 1.9961974e-08 0)
(0.001767643 1.8994925e-08 0)
(0.0017392828 1.8085471e-08 0)
(0.0017116888 1.7229096e-08 0)
(0.0016848142 1.6421379e-08 0)
(0.0016586161 1.5658251e-08 0)
(0.0016330553 1.4936697e-08 0)
(0.0016080941 1.4254005e-08 0)
(0.0015836972 1.3607244e-08 0)
(0.0015598322 1.2993813e-08 0)
(0.0015364689 1.2411435e-08 0)
(0.0015135786 1.1858055e-08 0)
(0.0014911345 1.1331769e-08 0)
(0.0014691113 1.0830452e-08 0)
(0.0014474867 1.0352493e-08 0)
(0.0014262383 9.8968964e-09 0)
(0.0014053443 9.4622671e-09 0)
(0.0013847847 9.0471678e-09 0)
(0.0013645406 8.6504852e-09 0)
(0.0013445938 8.2711655e-09 0)
(0.001324927 7.9082463e-09 0)
(0.0013055236 7.5607044e-09 0)
(0.0012863683 7.2275344e-09 0)
(0.0012674465 6.9081087e-09 0)
(0.0012487435 6.6018655e-09 0)
(0.0012302449 6.3080381e-09 0)
(0.0012119373 6.0259508e-09 0)
(0.0011938075 5.7550209e-09 0)
(0.0011758428 5.4947132e-09 0)
(0.0011580307 5.2445305e-09 0)
(0.001140359 5.0038363e-09 0)
(0.0011228167 4.7721807e-09 0)
(0.0011053921 4.5493334e-09 0)
(0.0010880732 4.3348754e-09 0)
(0.0010708489 4.1283764e-09 0)
(0.0010537079 3.9294992e-09 0)
(0.0010366388 3.7379328e-09 0)
(0.0010196304 3.5533867e-09 0)
(0.0010026713 3.3754854e-09 0)
(0.00098575075 3.2039628e-09 0)
(0.00096885719 3.038674e-09 0)
(0.00095197847 2.8793726e-09 0)
(0.00093510261 2.7258027e-09 0)
(0.00091821721 2.5777955e-09 0)
(0.00090130899 2.4351616e-09 0)
(0.00088436449 2.2976679e-09 0)
(0.00086736994 2.1654994e-09 0)
(0.00085030477 2.037621e-09 0)
(0.00083316805 1.9137421e-09 0)
(0.00081632697 1.7979729e-09 0)
(0.0008002842 1.6938226e-09 0)
(0.00078514463 1.5997684e-09 0)
(0.00077083338 1.5133111e-09 0)
(0.00075728545 1.4339565e-09 0)
(0.00074443506 1.3613968e-09 0)
(0.00073222291 1.2949641e-09 0)
(0.00072059551 1.2340711e-09 0)
(0.00070950438 1.1782017e-09 0)
(0.00069890551 1.1268907e-09 0)
(0.00068875899 1.0797486e-09 0)
(0.00067902799 1.0365125e-09 0)
(0.00066967743 9.9700095e-10 0)
(0.00066067383 9.6114681e-10 0)
(0.00065198335 9.2889456e-10 0)
(0.00064357353 9.007326e-10 0)
(0.00063540155 8.7653716e-10 0)
(0.00062743722 8.5922889e-10 0)
(0.00061958397 8.4497424e-10 0)
(0.00061188217 8.5551045e-10 0)
(0.00060383532 8.2544895e-10 0)
(0.00059668859 9.4163498e-10 -5.1457792e-24)
(0.00058649144 5.5472847e-10 3.1072928e-25)
(1 5.8735429e-09 0)
(0.99996241 1.5945336e-08 0)
(0.99990553 2.2831031e-08 0)
(0.99984202 2.9453119e-08 0)
(0.99976876 3.8518493e-08 0)
(0.99968431 5.009931e-08 0)
(0.99958777 6.4855546e-08 0)
(0.99947751 8.3987565e-08 0)
(0.99935124 1.0899064e-07 0)
(0.99920616 1.4180217e-07 0)
(0.99903877 1.8505416e-07 0)
(0.99884468 2.4252822e-07 0)
(0.998618 3.193481e-07 0)
(0.99835134 4.2400573e-07 0)
(0.998033 5.6622201e-07 0)
(0.99765067 7.7189912e-07 0)
(0.99717275 1.0497323e-06 0)
(0.99658893 1.5266999e-06 0)
(0.99576605 2.0829279e-06 0)
(0.99481252 3.5770652e-06 0)
(0.99294833 4.7163838e-06 0)
(0.99127 1.1592878e-05 0)
(0.98474117 5.389412e-06 0)
(0.98740269 0.0014296891 0)
(0.036552097 0.0014498119 0)
(0.014513814 1.9229115e-05 0)
(0.010352463 4.3366481e-06 0)
(0.0084971397 2.0850894e-06 0)
(0.0074329313 1.2734131e-06 0)
(0.006697457 8.9989627e-07 0)
(0.0061493945 6.8122178e-07 0)
(0.005716619 5.4089383e-07 0)
(0.0053630725 4.4261798e-07 0)
(0.0050667754 3.7078254e-07 0)
(0.0048131508 3.16488e-07 0)
(0.0045924767 2.7408456e-07 0)
(0.0043979984 2.4011794e-07 0)
(0.0042247769 2.1240518e-07 0)
(0.004069072 1.8945389e-07 0)
(0.0039280053 1.7017561e-07 0)
(0.0037993458 1.5379712e-07 0)
(0.0036812846 1.3974977e-07 6.7661823e-25)
(0.0035723782 1.2757892e-07 0)
(0.0034714515 1.1695521e-07 -6.6995599e-35)
(0.0033775165 1.0762178e-07 0)
(0.0032897543 9.9367401e-08 0)
(0.003207471 9.2026903e-08 0)
(0.0031300771 8.5464197e-08 0)
(0.0030570685 7.95675e-08 0)
(0.0029880122 7.4246035e-08 0)
(0.0029225308 6.9425979e-08 0)
(0.0028602936 6.5044119e-08 0)
(0.0028010114 6.104699e-08 0)
(0.0027444283 5.7388806e-08 0)
(0.0026903194 5.4029607e-08 0)
(0.0026384854 5.0936727e-08 0)
(0.0025887471 4.8082781e-08 0)
(0.0025409429 4.5442835e-08 0)
(0.0024949285 4.2995009e-08 0)
(0.0024505734 4.0720734e-08 0)
(0.002407759 3.8603101e-08 0)
(0.0023663788 3.6626727e-08 0)
(0.0023263367 3.4779222e-08 0)
(0.0022875433 3.3049986e-08 0)
(0.0022499166 3.1428733e-08 0)
(0.0022133817 2.9906182e-08 0)
(0.00217787 2.8474312e-08 0)
(0.0021433178 2.7126009e-08 0)
(0.0021096662 2.5854315e-08 0)
(0.0020768619 2.4652825e-08 0)
(0.0020448555 2.351679e-08 0)
(0.0020135998 2.2441939e-08 0)
(0.0019830508 2.1423659e-08 0)
(0.001953168 2.0457855e-08 0)
(0.0019239131 1.9540942e-08 0)
(0.0018952507 1.8669684e-08 0)
(0.0018671469 1.7841085e-08 0)
(0.0018395702 1.7051796e-08 0)
(0.0018124926 1.6299283e-08 0)
(0.001785886 1.5581979e-08 0)
(0.0017597231 1.4897685e-08 0)
(0.0017339791 1.424414e-08 0)
(0.00170863 1.3619591e-08 0)
(0.0016836533 1.3022379e-08 0)
(0.0016590272 1.2450988e-08 0)
(0.0016347309 1.1903808e-08 0)
(0.0016107452 1.1379255e-08 0)
(0.001587052 1.0876342e-08 0)
(0.0015636326 1.0394183e-08 0)
(0.0015404692 9.9315723e-09 0)
(0.001517545 9.4874455e-09 0)
(0.0014948434 9.0608853e-09 0)
(0.0014723487 8.6510489e-09 0)
(0.0014500449 8.2571536e-09 0)
(0.0014279169 7.8781974e-09 0)
(0.001405951 7.5134718e-09 0)
(0.0013841324 7.1626142e-09 0)
(0.0013624463 6.8249648e-09 0)
(0.0013408786 6.4998465e-09 0)
(0.0013194151 6.1867281e-09 0)
(0.0012980417 5.8851201e-09 0)
(0.0012767444 5.5945649e-09 0)
(0.0012555087 5.3144717e-09 0)
(0.0012343212 5.0444212e-09 0)
(0.0012131676 4.7841853e-09 0)
(0.0011920326 4.5333762e-09 0)
(0.0011709012 4.291591e-09 0)
(0.0011497578 4.0585638e-09 0)
(0.0011285858 3.8339964e-09 0)
(0.0011073684 3.6175221e-09 0)
(0.0010860884 3.4094316e-09 0)
(0.0010647199 3.2080959e-09 0)
(0.0010432618 3.0130584e-09 0)
(0.0010221738 2.8307886e-09 0)
(0.0010020855 2.66681e-09 0)
(0.00098312823 2.5187269e-09 0)
(0.00096520809 2.3826053e-09 0)
(0.00094824378 2.2576672e-09 0)
(0.0009321529 2.1434269e-09 0)
(0.00091686121 2.0388331e-09 0)
(0.00090230172 1.942961e-09 0)
(0.00088841373 1.8549982e-09 0)
(0.00087514214 1.7742122e-09 0)
(0.00086243697 1.6999898e-09 0)
(0.00085025211 1.6319169e-09 0)
(0.00083854364 1.5697079e-09 0)
(0.00082726963 1.513257e-09 0)
(0.0008163877 1.4624767e-09 0)
(0.00080585723 1.4181357e-09 0)
(0.00079562459 1.3800392e-09 0)
(0.000785652 1.3527838e-09 0)
(0.00077581858 1.3303377e-09 0)
(0.00076617477 1.3469078e-09 0)
(0.00075609939 1.2995557e-09 0)
(0.00074715051 1.4826506e-09 0)
(0.00073438196 8.7318931e-10 -1.7734637e-25)
(1 7.1560961e-09 0)
(0.99996225 1.9430546e-08 0)
(0.9999051 2.7825018e-08 0)
(0.99984127 3.5896403e-08 0)
(0.99976765 4.6944514e-08 0)
(0.99968278 6.1057892e-08 0)
(0.99958576 7.9040511e-08 0)
(0.99947496 1.023548e-07 0)
(0.99934809 1.3282249e-07 0)
(0.99920232 1.7280382e-07 0)
(0.99903415 2.2550512e-07 0)
(0.99883917 2.9553294e-07 0)
(0.99861146 3.8912842e-07 0)
(0.99834362 5.1663533e-07 0)
(0.99802391 6.8989279e-07 0)
(0.99763995 9.4045027e-07 0)
(0.99716007 1.2788896e-06 0)
(0.99657392 1.8598688e-06 0)
(0.99574788 2.5373459e-06 0)
(0.99479082 4.35704e-06 0)
(0.9929202 5.7446117e-06 0)
(0.99123607 1.4119557e-05 0)
(0.98468571 6.5717856e-06 0)
(0.98734582 0.0017318023 0)
(0.044297418 0.001760501 0)
(0.01765219 2.8403015e-05 0)
(0.01259149 6.4296257e-06 0)
(0.010335147 3.0916329e-06 0)
(0.0090406748 1.8882585e-06 0)
(0.0081460966 1.334382e-06 0)
(0.007479466 1.0101263e-06 0)
(0.006953072 8.0204017e-07 0)
(0.0065230475 6.5631483e-07 0)
(0.0061626573 5.4979545e-07 0)
(0.0058541721 4.6928594e-07 0)
(0.005585766 4.0640935e-07 0)
(0.0053492227 3.5604339e-07 0)
(0.0051385343 3.1495087e-07 0)
(0.0049491517 2.8091874e-07 0)
(0.0047775735 2.5233303e-07 0)
(0.0046210864 2.2804725e-07 0)
(0.0044774899 2.0721791e-07 0)
(0.0043450286 1.8917112e-07 0)
(0.0042222728 1.7341856e-07 7.2268375e-35)
(0.0041080209 1.5957908e-07 0)
(0.0040012771 1.4733965e-07 0)
(0.003901197 1.364553e-07 0)
(0.003807064 1.2672426e-07 0)
(0.0037182648 1.1798077e-07 0)
(0.0036342727 1.1009022e-07 0)
(0.0035546286 1.0294315e-07 0)
(0.0034789305 9.6445833e-08 0)
(0.0034068264 9.0518983e-08 0)
(0.0033380053 8.5094714e-08 0)
(0.0032721934 8.0113775e-08 0)
(0.0032091486 7.552773e-08 0)
(0.0031486526 7.1295969e-08 0)
(0.0030905091 6.7381522e-08 0)
(0.0030345425 6.3751946e-08 0)
(0.002980594 6.0379708e-08 0)
(0.0029285195 5.7239734e-08 0)
(0.0028781895 5.4309218e-08 0)
(0.0028294869 5.1569785e-08 0)
(0.002782303 4.9005717e-08 0)
(0.0027365382 4.6601764e-08 0)
(0.0026921014 4.4344164e-08 0)
(0.002648909 4.2221022e-08 0)
(0.0026068836 4.0221792e-08 0)
(0.0025659537 3.8336156e-08 0)
(0.0025260542 3.6554618e-08 0)
(0.0024871253 3.4870133e-08 0)
(0.0024491095 3.3276373e-08 0)
(0.0024119532 3.1766491e-08 0)
(0.0023756071 3.0334422e-08 0)
(0.0023400248 2.8974846e-08 0)
(0.002305163 2.7682965e-08 0)
(0.0022709808 2.6454339e-08 0)
(0.0022374396 2.5284002e-08 0)
(0.0022045055 2.4168196e-08 0)
(0.0021721442 2.3104594e-08 0)
(0.0021403227 2.208994e-08 0)
(0.0021090105 2.112088e-08 0)
(0.0020781788 2.0194814e-08 0)
(0.0020478 1.9309282e-08 0)
(0.0020178476 1.8462037e-08 0)
(0.0019882963 1.7650691e-08 0)
(0.0019591228 1.6872898e-08 0)
(0.001930305 1.612719e-08 0)
(0.0019018203 1.5412257e-08 0)
(0.001873647 1.4726309e-08 0)
(0.0018457645 1.4067768e-08 0)
(0.0018181529 1.3435275e-08 0)
(0.0017907928 1.2827579e-08 0)
(0.001763665 1.2243521e-08 0)
(0.001736751 1.1681614e-08 0)
(0.0017100341 1.1140807e-08 0)
(0.0016834964 1.0620564e-08 0)
(0.0016571199 1.0119905e-08 0)
(0.0016308873 9.6378275e-09 0)
(0.0016047814 9.1735427e-09 0)
(0.0015787853 8.7263254e-09 0)
(0.0015528815 8.2954969e-09 0)
(0.0015270528 7.8801813e-09 0)
(0.0015012828 7.4797567e-09 0)
(0.0014755539 7.0938848e-09 0)
(0.0014498476 6.7219909e-09 0)
(0.0014241456 6.3634772e-09 0)
(0.0013984292 6.0179498e-09 0)
(0.0013726779 5.6849663e-09 0)
(0.0013468714 5.3639831e-09 0)
(0.0013209887 5.0554308e-09 0)
(0.0012949984 4.7568949e-09 0)
(0.0012688992 4.4677e-09 0)
(0.0012432501 4.1974359e-09 0)
(0.0012188169 3.9542902e-09 0)
(0.0011957593 3.7347141e-09 0)
(0.0011739632 3.5328759e-09 0)
(0.0011533297 3.3476204e-09 0)
(0.0011337585 3.1782273e-09 0)