/*--------------------------------*- C++ -*----------------------------------*\
| =========                 |                                                 |
| \\      /  F ield         | OpenFOAM: The Open Source CFD Toolbox           |
|  \\    /   O peration     | Version:  2206                                  |
|   \\  /    A nd           | Website:  www.openfoam.com                      |
|    \\/     M anipulation  |                                                 |
\*---------------------------------------------------------------------------*/
FoamFile
{
    version     2.0;
    format      ascii;
    arch        "LSB;label=32;scalar=64";
    class       volVectorField;
    location    "2000";
    object      wallShearStress;
}
// * * * * * * * * * * * * * * * * * * * * * * * * * * * * * * * * * * * * * //

dimensions      [0 2 -2 0 0 0 0];

internalField   uniform (0 0 0);

boundaryField
{
    bottom
    {
        type            calculated;
        value           nonuniform List<vector> 
112
(
(-0.046982532 -0.0024784523 0)
(-0.018353043 -4.0981744e-06 -2.0753532e-16)
(-0.013088701 -1.5478207e-06 1.7908534e-19)
(-0.010741833 -4.0618103e-07 -2.2719146e-17)
(-0.0093968191 -2.4801634e-07 0)
(-0.0084671228 -1.7527047e-07 0)
(-0.0077743669 -1.3268265e-07 0)
(-0.0072272907 -1.0535387e-07 0)
(-0.006780365 -8.6212779e-08 0)
(-0.0064058026 -7.2221854e-08 -8.0786031e-18)
(-0.0060851759 -6.1647365e-08 0)
(-0.0058061984 -5.3388489e-08 -5.9718941e-18)
(-0.0055603344 -4.6772627e-08 5.2318482e-18)
(-0.0053413412 -4.1374619e-08 -4.6280588e-18)
(-0.0051444915 -3.6904029e-08 0)
(-0.0049661468 -3.3148984e-08 3.7079608e-18)
(-0.0048034871 -2.9958677e-08 0)
(-0.0046542266 -2.7222535e-08 -1.5225145e-18)
(-0.0045165378 -2.4851829e-08 0)
(-0.0043889388 -2.2782362e-08 -2.5483528e-18)
(-0.0042701786 -2.0964326e-08 2.3449886e-18)
(-0.0041592223 -1.9356452e-08 0)
(-0.0040551926 -1.792657e-08 0)
(-0.0039573446 -1.6648205e-08 0)
(-0.0038650406 -1.5499572e-08 -1.7337122e-18)
(-0.0037777335 -1.446297e-08 0)
(-0.003694946 -1.352404e-08 0)
(-0.0036162601 -1.2670481e-08 0)
(-0.0035413101 -1.1891856e-08 0)
(-0.0034697726 -1.1179254e-08 -1.2504567e-18)
(-0.0034013631 -1.0524898e-08 1.1772623e-18)
(-0.0033358298 -9.9224104e-09 0)
(-0.003272946 -9.3664708e-09 0)
(-0.0032125075 -8.852214e-09 0)
(-0.0031543319 -8.375386e-09 9.3682682e-19)
(-0.0030982539 -7.9323665e-09 0)
(-0.003044124 -7.5198531e-09 0)
(-0.0029918074 -7.1348598e-09 -7.980668e-19)
(-0.0029411825 -6.7749623e-09 0)
(-0.0028921363 -6.438114e-09 0)
(-0.002844565 -6.1223031e-09 0)
(-0.0027983743 -5.8257064e-09 6.5163115e-19)
(-0.0027534771 -5.5467802e-09 -3.1021588e-19)
(-0.002709793 -5.2841321e-09 5.9105332e-19)
(-0.0026672476 -5.0364102e-09 0)
(-0.0026257733 -4.8023633e-09 0)
(-0.0025853079 -4.581061e-09 -7.6861664e-19)
(-0.0025457916 -4.3716768e-09 0)
(-0.0025071689 -4.1733169e-09 4.6680337e-19)
(-0.0024693883 -3.9851871e-09 0)
(-0.0024324015 -3.8065697e-09 4.2578046e-19)
(-0.0023961639 -3.6368456e-09 0)
(-0.0023606326 -3.4754404e-09 -1.9437096e-19)
(-0.0023257676 -3.3216892e-09 0)
(-0.0022915336 -3.1750985e-09 -3.5514723e-19)
(-0.0022578952 -3.035365e-09 0)
(-0.0022248178 -2.9020637e-09 0)
(-0.0021922699 -2.7747556e-09 0)
(-0.0021602214 -2.6530966e-09 0)
(-0.0021286435 -2.5367586e-09 0)
(-0.002097509 -2.425449e-09 0)
(-0.0020667915 -2.3188594e-09 0)
(-0.0020364667 -2.2166773e-09 0)
(-0.0020065116 -2.1187126e-09 0)
(-0.0019769028 -2.0247894e-09 -2.2647987e-19)
(-0.0019476175 -1.9346694e-09 0)
(-0.0019186348 -1.8481522e-09 -1.0336141e-19)
(-0.0018899335 -1.7650589e-09 0)
(-0.0018614937 -1.6852258e-09 -9.4249219e-20)
(-0.0018332953 -1.6084947e-09 1.7991579e-19)
(-0.0018053192 -1.5346734e-09 1.7165866e-19)
(-0.0017775479 -1.4636255e-09 -8.1855795e-20)
(-0.0017499631 -1.3952764e-09 0)
(-0.0017225457 -1.329505e-09 0)
(-0.0016952778 -1.2661708e-09 1.4162557e-19)
(-0.0016681419 -1.2051743e-09 -1.3480299e-19)
(-0.0016411198 -1.1464228e-09 0)
(-0.0016141939 -1.0898219e-09 0)
(-0.0015873459 -1.0352604e-09 -1.1579729e-19)
(-0.001560559 -9.826556e-10 0)
(-0.0015338147 -9.3196107e-10 0)
(-0.0015070941 -8.8310304e-10 0)
(-0.0014803779 -8.3600397e-10 0)
(-0.0014536467 -7.9061e-10 0)
(-0.0014268793 -7.4686459e-10 0)
(-0.0014000545 -7.0469544e-10 0)
(-0.0013731504 -6.6415977e-10 0)
(-0.0013461346 -6.2493974e-10 6.990127e-20)
(-0.0013190055 -5.8694452e-10 -6.5651488e-20)
(-0.0012923445 -5.5143723e-10 0)
(-0.0012669473 -5.1949599e-10 0)
(-0.0012429799 -4.9065101e-10 0)
(-0.0012203237 -4.6413487e-10 0)
(-0.001198876 -4.3979693e-10 0)
(-0.0011785325 -4.1754307e-10 0)
(-0.0011591995 -3.9716837e-10 0)
(-0.0011407921 -3.7849268e-10 0)
(-0.0011232337 -3.6135796e-10 -4.0418561e-20)
(-0.0011064546 -3.456213e-10 0)
(-0.0010903916 -3.3116318e-10 0)
(-0.0010749864 -3.1790333e-10 0)
(-0.0010601834 -3.0578585e-10 0)
(-0.0010459296 -2.9479036e-10 0)
(-0.0010321715 -2.8489991e-10 0)
(-0.0010188576 -2.7626434e-10 0)
(-0.0010059201 -2.6884616e-10 0)
(-0.00099331126 -2.6354107e-10 0)
(-0.00098087787 -2.5917458e-10 0)
(-0.00096868432 -2.6241335e-10 0)
(-0.00095594253 -4.6379731e-10 0)
(-0.00094462849 -2.883194e-10 -3.235061e-20)
(-0.00092848537 -3.124426e-10 0)
)
;
    }
    back
    {
        type            empty;
    }
    front
    {
        type            empty;
    }
    inlet
    {
        type            calculated;
        value           uniform (0 0 0);
    }
    outlet
    {
        type            calculated;
        value           uniform (0 0 0);
    }
    top
    {
        type            calculated;
        value           uniform (0 0 0);
    }
    slipsurface
    {
        type            calculated;
        value           uniform (0 0 0);
    }
}


// ************************************************************************* //
