# Region        : all region0
# Cells         : 7480
# Volume        : 2.33333000e+00
# Time          	max(p)	max(k)	max(epsilon)	max(nut)
1               	3.01720919e-02	1.05519975e-02	9.13555292e-03	5.45328434e-03
2               	3.33789457e-02	8.35801375e-03	1.08422361e+00	2.93541154e-05
3               	4.44852324e-02	2.37820100e-02	7.64313377e-01	8.57814719e-05
4               	4.97972639e-02	3.30747936e-02	3.66850973e+00	3.27935853e-05
5               	5.27216115e-02	4.44644439e-02	6.01675811e+00	2.96562813e-05
6               	5.33161388e-02	5.29295881e-02	9.37855948e+00	2.68845890e-05
7               	5.34662375e-02	5.88318070e-02	1.21804858e+01	2.55742128e-05
8               	5.36041210e-02	6.27687970e-02	1.42736525e+01	2.48424829e-05
9               	5.37548379e-02	6.53200678e-02	1.57301385e+01	2.44119918e-05
10              	5.38723819e-02	6.69335542e-02	1.66988583e+01	2.41459059e-05
11              	5.39519795e-02	6.79289356e-02	1.73213871e+01	2.39755987e-05
12              	5.40003426e-02	6.85249283e-02	1.77092045e+01	2.38638569e-05
13              	5.40303488e-02	6.88673510e-02	1.79427796e+01	2.37891838e-05
14              	5.40520663e-02	6.90518218e-02	1.80774390e+01	2.37386429e-05
15              	5.40660753e-02	6.91400105e-02	1.81501221e+01	2.37040110e-05
16              	5.40746173e-02	6.91710813e-02	1.81849035e+01	2.36799422e-05
17              	5.40784356e-02	6.91695608e-02	1.81971630e+01	2.36629486e-05
18              	5.40824153e-02	6.91505689e-02	1.81965630e+01	2.36507359e-05
19              	5.40881319e-02	6.91232804e-02	1.81890692e+01	2.36418096e-05
20              	5.40992506e-02	6.90931339e-02	1.81783035e+01	2.36351816e-05
21              	5.41165811e-02	6.90632471e-02	1.81664127e+01	2.36301958e-05
22              	5.41412044e-02	6.90353015e-02	1.81546269e+01	2.36264044e-05
23              	5.41738556e-02	6.90100937e-02	1.81436090e+01	2.36234905e-05
24              	5.42132769e-02	6.89879007e-02	1.81336724e+01	2.36212352e-05
25              	5.42604775e-02	6.89686898e-02	1.81249256e+01	2.36194743e-05
26              	5.43142922e-02	6.89522639e-02	1.81173553e+01	2.36180897e-05
27              	5.43737144e-02	6.89383515e-02	1.81108833e+01	2.36169964e-05
28              	5.44393546e-02	6.89266507e-02	1.81054023e+01	2.36161273e-05
29              	5.45101362e-02	6.89168635e-02	1.81007930e+01	2.36154331e-05
30              	5.45854251e-02	6.89087126e-02	1.80969378e+01	2.36148770e-05
31              	5.46656072e-02	6.89019516e-02	1.80937274e+01	2.36144325e-05
32              	5.47499525e-02	6.88963522e-02	1.80910646e+01	2.36140698e-05
33              	5.48376281e-02	6.88917145e-02	1.80888593e+01	2.36137692e-05
34              	5.49287853e-02	6.88878670e-02	1.80870329e+01	2.36135160e-05
35              	5.50233446e-02	6.88846620e-02	1.80855177e+01	2.36132969e-05
36              	5.51206739e-02	6.88819751e-02	1.80842556e+01	2.36131027e-05
37              	5.52200982e-02	6.88797038e-02	1.80831975e+01	2.36129271e-05
38              	5.53215736e-02	6.88777625e-02	1.80823031e+01	2.41990965e-05
39              	5.54248196e-02	6.88760790e-02	1.80815387e+01	2.52660386e-05
40              	5.55292145e-02	6.88745942e-02	1.80808758e+01	2.63172482e-05
41              	5.56341865e-02	6.88732605e-02	1.80802911e+01	2.75907686e-05
42              	5.57397368e-02	6.88720418e-02	1.80797659e+01	2.88755793e-05
43              	5.58455257e-02	6.88709093e-02	1.80792861e+01	3.01428827e-05
44              	5.59508021e-02	6.88698350e-02	1.80788401e+01	3.13914457e-05
45              	5.60552774e-02	6.88687974e-02	1.80784171e+01	3.26228925e-05
46              	5.61589362e-02	6.88677825e-02	1.80780085e+01	3.38341113e-05
47              	5.62612753e-02	6.88667829e-02	1.80776089e+01	3.50258034e-05
48              	5.63616978e-02	6.88657967e-02	1.80772154e+01	3.62712666e-05
49              	5.64603663e-02	6.88648242e-02	1.80768271e+01	3.76515777e-05
50              	5.65571176e-02	6.88638664e-02	1.80764441e+01	3.90105812e-05
51              	5.66512504e-02	6.88629262e-02	1.80760670e+01	4.03488639e-05
52              	5.67430238e-02	6.88620068e-02	1.80756968e+01	4.16665671e-05
53              	5.68324153e-02	6.88611105e-02	1.80753348e+01	4.29621393e-05
54              	5.69189792e-02	6.88602407e-02	1.80749819e+01	4.42371708e-05
55              	5.70030153e-02	6.88594003e-02	1.80746395e+01	4.54913325e-05
56              	5.70846928e-02	6.88585918e-02	1.80743086e+01	4.68155858e-05
57              	5.71637249e-02	6.88578204e-02	1.80739902e+01	4.82259838e-05
58              	5.72407305e-02	6.88570910e-02	1.80736865e+01	4.96142635e-05
59              	5.73158870e-02	6.88564071e-02	1.80733994e+01	5.09821199e-05
60              	5.73888485e-02	6.88557707e-02	1.80731301e+01	5.23291515e-05
61              	5.74604494e-02	6.88551814e-02	1.80728796e+01	5.36541458e-05
62              	5.75303112e-02	6.88546381e-02	1.80726475e+01	5.49599891e-05
63              	5.75988211e-02	6.88541387e-02	1.80724336e+01	5.62444628e-05
64              	5.76662932e-02	6.88536811e-02	1.80722370e+01	5.75746431e-05
65              	5.77323340e-02	6.88532634e-02	1.80720569e+01	5.89943850e-05
66              	5.77977799e-02	6.88528833e-02	1.80718924e+01	6.03934450e-05
67              	5.78620283e-02	6.88525393e-02	1.80717428e+01	6.17740739e-05
68              	5.79257799e-02	6.88522294e-02	1.80716073e+01	6.31331695e-05
69              	5.79887302e-02	6.88519520e-02	1.80714853e+01	6.44737192e-05
70              	5.80510706e-02	6.88517053e-02	1.80713761e+01	6.57936234e-05
71              	5.81130722e-02	6.88514875e-02	1.80712790e+01	6.70944978e-05
72              	5.81743429e-02	6.88512973e-02	1.80711932e+01	6.83971376e-05
73              	5.82355525e-02	6.88511328e-02	1.80711184e+01	6.98192465e-05
74              	5.82959617e-02	6.88509927e-02	1.80710536e+01	7.12206819e-05
75              	5.83563025e-02	6.88508754e-02	1.80709984e+01	7.26051973e-05
76              	5.84160070e-02	6.88507794e-02	1.80709522e+01	7.39689511e-05
77              	5.84754949e-02	6.88507034e-02	1.80709145e+01	7.53157523e-05
78              	5.85343835e-02	6.88506458e-02	1.80708845e+01	7.66413413e-05
79              	5.85931283e-02	6.88506054e-02	1.80708619e+01	7.79509597e-05
80              	5.86511595e-02	6.88505809e-02	1.80708460e+01	7.92402248e-05
81              	5.87091782e-02	6.88505710e-02	1.80708363e+01	8.06365580e-05
82              	5.87663704e-02	6.88505748e-02	1.80708324e+01	8.20372778e-05
83              	5.88234771e-02	6.88505909e-02	1.80708339e+01	8.34198526e-05
84              	5.88799742e-02	6.88506185e-02	1.80708402e+01	8.47835414e-05
85              	5.89360454e-02	6.88506567e-02	1.80708511e+01	8.61313108e-05
86              	5.89916561e-02	6.88507044e-02	1.80708661e+01	8.74594758e-05
87              	5.90468955e-02	6.88507610e-02	1.80708849e+01	8.87707155e-05
88              	5.91015497e-02	6.88508256e-02	1.80709072e+01	9.00652940e-05
89              	5.91557545e-02	6.88508974e-02	1.80709326e+01	9.14156484e-05
90              	5.92097238e-02	6.88509757e-02	1.80709609e+01	9.28128194e-05
91              	5.92629264e-02	6.88510597e-02	1.80709917e+01	9.41911735e-05
92              	5.93159981e-02	6.88511484e-02	1.80710248e+01	9.55531135e-05
93              	5.93683131e-02	6.88512412e-02	1.80710597e+01	9.68994464e-05
94              	5.94201521e-02	6.88513375e-02	1.80710963e+01	9.82277363e-05
95              	5.94715260e-02	6.88514369e-02	1.80711342e+01	9.95385983e-05
96              	5.95224009e-02	6.88515392e-02	1.80711733e+01	1.00835972e-04
97              	5.95728061e-02	6.88516445e-02	1.80712136e+01	1.02150211e-04
98              	5.96225580e-02	6.88517525e-02	1.80712550e+01	1.03541243e-04
99              	5.96720599e-02	6.88518632e-02	1.80712976e+01	1.04915001e-04
100             	5.97208637e-02	6.88519763e-02	1.80713411e+01	1.06271752e-04
101             	5.97691840e-02	6.88520920e-02	1.80713857e+01	1.07614832e-04
102             	5.98172125e-02	6.88522098e-02	1.80714312e+01	1.08942436e-04
103             	5.98645774e-02	6.88523296e-02	1.80714776e+01	1.10253854e-04
104             	5.99115081e-02	6.88524508e-02	1.80715248e+01	1.11553167e-04
105             	5.99578425e-02	6.88525734e-02	1.80715725e+01	1.12836577e-04
106             	6.00037933e-02	6.88526970e-02	1.80716207e+01	1.14196077e-04
107             	6.00494507e-02	6.88528215e-02	1.80716694e+01	1.15572694e-04
108             	6.00943919e-02	6.88529468e-02	1.80717184e+01	1.16934596e-04
109             	6.01390192e-02	6.88530730e-02	1.80717678e+01	1.18280930e-04
110             	6.01831956e-02	6.88531999e-02	1.80718175e+01	1.19611932e-04
111             	6.02268576e-02	6.88533275e-02	1.80718674e+01	1.20927833e-04
112             	6.02701892e-02	6.88534557e-02	1.80719177e+01	1.22228860e-04
113             	6.03128829e-02	6.88535843e-02	1.80719681e+01	1.23515238e-04
114             	6.03551969e-02	6.88537133e-02	1.80720187e+01	1.24787186e-04
115             	6.03971411e-02	6.88538426e-02	1.80720695e+01	1.26127798e-04
116             	6.04385054e-02	6.88539722e-02	1.80721205e+01	1.27493540e-04
117             	6.04794976e-02	6.88541020e-02	1.80721715e+01	1.28844848e-04
118             	6.05200185e-02	6.88542319e-02	1.80722226e+01	1.30181929e-04
119             	6.05601081e-02	6.88543619e-02	1.80722737e+01	1.31504986e-04
120             	6.05999988e-02	6.88544919e-02	1.80723249e+01	1.32814220e-04
121             	6.06394264e-02	6.88546219e-02	1.80723761e+01	1.34109827e-04
122             	6.06784769e-02	6.88547518e-02	1.80724273e+01	1.35392000e-04
123             	6.07171692e-02	6.88548817e-02	1.80724784e+01	1.36660930e-04
124             	6.07553731e-02	6.88550114e-02	1.80725295e+01	1.37916803e-04
125             	6.07932130e-02	6.88551410e-02	1.80725806e+01	1.39211445e-04
126             	6.08306196e-02	6.88552706e-02	1.80726316e+01	1.40559439e-04
127             	6.08676371e-02	6.88554004e-02	1.80726827e+01	1.41894277e-04
128             	6.09043036e-02	6.88555303e-02	1.80727338e+01	1.43216134e-04
129             	6.09405719e-02	6.88556604e-02	1.80727849e+01	1.44525186e-04
130             	6.09764854e-02	6.88557905e-02	1.80728361e+01	1.45821603e-04
131             	6.10120194e-02	6.88559204e-02	1.80728874e+01	1.47105553e-04
132             	6.10471962e-02	6.88560499e-02	1.80729385e+01	1.48377201e-04
133             	6.10821504e-02	6.88561790e-02	1.80729895e+01	1.49636708e-04
134             	6.11168034e-02	6.88563074e-02	1.80730403e+01	1.50884235e-04
135             	6.11510889e-02	6.88564352e-02	1.80730909e+01	1.52119938e-04
136             	6.11849885e-02	6.88565622e-02	1.80731412e+01	1.53371472e-04
137             	6.12185225e-02	6.88566886e-02	1.80731912e+01	1.54693325e-04
138             	6.12517099e-02	6.88568141e-02	1.80732409e+01	1.56003254e-04
139             	6.12845549e-02	6.88569387e-02	1.80732903e+01	1.57301410e-04
140             	6.13170633e-02	6.88570625e-02	1.80733394e+01	1.58587939e-04
141             	6.13492308e-02	6.88571853e-02	1.80733881e+01	1.59862984e-04
142             	6.13810626e-02	6.88573072e-02	1.80734365e+01	1.61126688e-04
143             	6.14125640e-02	6.88574280e-02	1.80734845e+01	1.62379191e-04
144             	6.14437398e-02	6.88575478e-02	1.80735321e+01	1.63620631e-04
145             	6.14745855e-02	6.88576666e-02	1.80735792e+01	1.64851142e-04
146             	6.15051714e-02	6.88577843e-02	1.80736260e+01	1.66070860e-04
147             	6.15354957e-02	6.88579010e-02	1.80736723e+01	1.67279917e-04
148             	6.15655016e-02	6.88580167e-02	1.80737183e+01	1.68513976e-04
149             	6.15951670e-02	6.88581314e-02	1.80737638e+01	1.69803662e-04
150             	6.16245059e-02	6.88582450e-02	1.80738090e+01	1.71082597e-04
151             	6.16535319e-02	6.88583577e-02	1.80738537e+01	1.72350909e-04
152             	6.16822479e-02	6.88584693e-02	1.80738981e+01	1.73608724e-04
153             	6.17106560e-02	6.88585800e-02	1.80739420e+01	1.74856166e-04
154             	6.17387598e-02	6.88586896e-02	1.80739856e+01	1.76093359e-04
155             	6.17665658e-02	6.88587984e-02	1.80740288e+01	1.77320425e-04
156             	6.17940756e-02	6.88589063e-02	1.80740716e+01	1.78537484e-04
157             	6.18212948e-02	6.88590133e-02	1.80741141e+01	1.79744655e-04
158             	6.18481944e-02	6.88591194e-02	1.80741562e+01	1.80942055e-04
159             	6.18747683e-02	6.88592247e-02	1.80741980e+01	1.82129800e-04
160             	6.19010571e-02	6.88593291e-02	1.80742394e+01	1.83308006e-04
161             	6.19271686e-02	6.88594326e-02	1.80742805e+01	1.84533681e-04
162             	6.19530382e-02	6.88595354e-02	1.80743213e+01	1.85787599e-04
163             	6.19786217e-02	6.88596374e-02	1.80743618e+01	1.87031912e-04
164             	6.20039106e-02	6.88597387e-02	1.80744020e+01	1.88266732e-04
165             	6.20289098e-02	6.88598392e-02	1.80744418e+01	1.89492170e-04
166             	6.20536308e-02	6.88599389e-02	1.80744814e+01	1.90708333e-04
167             	6.20780791e-02	6.88600379e-02	1.80745207e+01	1.91915330e-04
168             	6.21022587e-02	6.88601361e-02	1.80745596e+01	1.93113266e-04
169             	6.21261658e-02	6.88602334e-02	1.80745983e+01	1.94302246e-04
170             	6.21498013e-02	6.88603299e-02	1.80746366e+01	1.95482375e-04
171             	6.21731644e-02	6.88604253e-02	1.80746746e+01	1.96653753e-04
172             	6.21962367e-02	6.88605197e-02	1.80747122e+01	1.97816481e-04
173             	6.22190190e-02	6.88606129e-02	1.80747493e+01	1.98970660e-04
174             	6.22415210e-02	6.88607050e-02	1.80747860e+01	2.00116388e-04
175             	6.22637561e-02	6.88607959e-02	1.80748223e+01	2.01330289e-04
176             	6.22857355e-02	6.88608856e-02	1.80748580e+01	2.02547417e-04
177             	6.23075043e-02	6.88609744e-02	1.80748934e+01	2.03756035e-04
178             	6.23291034e-02	6.88610622e-02	1.80749283e+01	2.04956236e-04
179             	6.23504738e-02	6.88611491e-02	1.80749629e+01	2.06148113e-04
180             	6.23715858e-02	6.88612353e-02	1.80749971e+01	2.07331759e-04
181             	6.23924329e-02	6.88613206e-02	1.80750311e+01	2.08507262e-04
182             	6.24130203e-02	6.88614053e-02	1.80750647e+01	2.09674712e-04
183             	6.24333582e-02	6.88614892e-02	1.80750980e+01	2.10834196e-04
184             	6.24534536e-02	6.88615725e-02	1.80751311e+01	2.11985801e-04
185             	6.24733060e-02	6.88616552e-02	1.80751638e+01	2.13129612e-04
186             	6.24929178e-02	6.88617372e-02	1.80751964e+01	2.14265712e-04
187             	6.25122604e-02	6.88618185e-02	1.80752287e+01	2.15394185e-04
188             	6.25313702e-02	6.88618992e-02	1.80752607e+01	2.16515111e-04
189             	6.25502604e-02	6.88619791e-02	1.80752924e+01	2.17628572e-04
190             	6.25689093e-02	6.88620584e-02	1.80753239e+01	2.18813668e-04
191             	6.25873064e-02	6.88621369e-02	1.80753551e+01	2.19994337e-04
192             	6.26054555e-02	6.88622148e-02	1.80753861e+01	2.21167454e-04
193             	6.26233640e-02	6.88622919e-02	1.80754167e+01	2.22333094e-04
194             	6.26410404e-02	6.88623683e-02	1.80754471e+01	2.23491333e-04
195             	6.26584858e-02	6.88624440e-02	1.80754772e+01	2.24642243e-04
196             	6.26757010e-02	6.88625190e-02	1.80755070e+01	2.25785896e-04
197             	6.26926875e-02	6.88625933e-02	1.80755365e+01	2.26922364e-04
198             	6.27094467e-02	6.88626669e-02	1.80755657e+01	2.28051716e-04
199             	6.27260356e-02	6.88627399e-02	1.80755947e+01	2.29174022e-04
200             	6.27424577e-02	6.88628122e-02	1.80756235e+01	2.30289350e-04
201             	6.27586746e-02	6.88628838e-02	1.80756519e+01	2.31397766e-04
202             	6.27746689e-02	6.88629549e-02	1.80756802e+01	2.32499336e-04
203             	6.27904345e-02	6.88630253e-02	1.80757081e+01	2.33594125e-04
204             	6.28059819e-02	6.88630952e-02	1.80757359e+01	2.34682197e-04
205             	6.28213153e-02	6.88631644e-02	1.80757634e+01	2.35763616e-04
206             	6.28364373e-02	6.88632331e-02	1.80757906e+01	2.36880227e-04
207             	6.28513507e-02	6.88633011e-02	1.80758176e+01	2.38024165e-04
208             	6.28660552e-02	6.88633686e-02	1.80758444e+01	2.39161317e-04
209             	6.28805509e-02	6.88634355e-02	1.80758710e+01	2.40291742e-04
210             	6.28948374e-02	6.88635019e-02	1.80758974e+01	2.41415497e-04
211             	6.29089171e-02	6.88635676e-02	1.80759235e+01	2.42532640e-04
212             	6.29227895e-02	6.88636328e-02	1.80759494e+01	2.43643226e-04
213             	6.29364570e-02	6.88636975e-02	1.80759751e+01	2.44747310e-04
214             	6.29499186e-02	6.88637616e-02	1.80760005e+01	2.45844947e-04
215             	6.29631744e-02	6.88638251e-02	1.80760257e+01	2.46936190e-04
216             	6.29762211e-02	6.88638881e-02	1.80760508e+01	2.48021092e-04
217             	6.29890546e-02	6.88639505e-02	1.80760755e+01	2.49099705e-04
218             	6.30016774e-02	6.88640123e-02	1.80761001e+01	2.50172080e-04
219             	6.30140943e-02	6.88640736e-02	1.80761245e+01	2.51238266e-04
220             	6.30263091e-02	6.88641344e-02	1.80761486e+01	2.52298314e-04
221             	6.30383255e-02	6.88641945e-02	1.80761725e+01	2.53352272e-04
222             	6.30501461e-02	6.88642542e-02	1.80761962e+01	2.54400187e-04
223             	6.30617734e-02	6.88643133e-02	1.80762197e+01	2.55442109e-04
224             	6.30732085e-02	6.88643720e-02	1.80762430e+01	2.56479305e-04
225             	6.30844524e-02	6.88644301e-02	1.80762661e+01	2.57577939e-04
226             	6.30955064e-02	6.88644877e-02	1.80762890e+01	2.58670397e-04
227             	6.31063723e-02	6.88645449e-02	1.80763117e+01	2.59756722e-04
228             	6.31170520e-02	6.88646016e-02	1.80763342e+01	2.60836958e-04
229             	6.31275474e-02	6.88646578e-02	1.80763565e+01	2.61911146e-04
230             	6.31378610e-02	6.88647135e-02	1.80763786e+01	2.62979329e-04
231             	6.31479931e-02	6.88647687e-02	1.80764005e+01	2.64041548e-04
232             	6.31579453e-02	6.88648234e-02	1.80764223e+01	2.65097843e-04
233             	6.31677186e-02	6.88648777e-02	1.80764438e+01	2.66148255e-04
234             	6.31773139e-02	6.88649315e-02	1.80764652e+01	2.67192822e-04
235             	6.31867327e-02	6.88649850e-02	1.80764864e+01	2.68231584e-04
236             	6.31959851e-02	6.88650381e-02	1.80765074e+01	2.69264577e-04
237             	6.32050948e-02	6.88650908e-02	1.80765283e+01	2.70291840e-04
238             	6.32140421e-02	6.88651433e-02	1.80765491e+01	2.71313410e-04
239             	6.32227144e-02	6.88651941e-02	1.80765698e+01	2.72329321e-04
240             	6.32310977e-02	6.88652412e-02	1.80765898e+01	2.73339611e-04
241             	6.32392324e-02	6.88652836e-02	1.80766083e+01	2.74344314e-04
242             	6.32471578e-02	6.88653222e-02	1.80766250e+01	2.75343464e-04
243             	6.32548958e-02	6.88653587e-02	1.80766402e+01	2.76337096e-04
244             	6.32624630e-02	6.88653952e-02	1.80766546e+01	2.77325242e-04
245             	6.32698630e-02	6.88654334e-02	1.80766690e+01	2.78307935e-04
246             	6.32771022e-02	6.88654741e-02	1.80766840e+01	2.79297988e-04
247             	6.32841770e-02	6.88655175e-02	1.80767000e+01	2.80329627e-04
248             	6.32910917e-02	6.88655632e-02	1.80767171e+01	2.81355576e-04
249             	6.32978488e-02	6.88656107e-02	1.80767351e+01	2.82375867e-04
250             	6.33044500e-02	6.88656596e-02	1.80767538e+01	2.83390528e-04
251             	6.33108954e-02	6.88657096e-02	1.80767731e+01	2.84399587e-04
252             	6.33171863e-02	6.88657601e-02	1.80767927e+01	2.85403073e-04
253             	6.33233231e-02	6.88658112e-02	1.80768127e+01	2.86401014e-04
254             	6.33293045e-02	6.88658626e-02	1.80768328e+01	2.87393436e-04
255             	6.33351335e-02	6.88659142e-02	1.80768530e+01	2.88380366e-04
256             	6.33408089e-02	6.88659659e-02	1.80768733e+01	2.89361830e-04
257             	6.33463365e-02	6.88660177e-02	1.80768937e+01	2.90337854e-04
258             	6.33517156e-02	6.88660694e-02	1.80769140e+01	2.91308462e-04
259             	6.33569509e-02	6.88661211e-02	1.80769344e+01	2.92273679e-04
260             	6.33620404e-02	6.88661727e-02	1.80769548e+01	2.93233528e-04
261             	6.33669918e-02	6.88662242e-02	1.80769751e+01	2.94188034e-04
262             	6.33718025e-02	6.88662755e-02	1.80769954e+01	2.95137218e-04
263             	6.33764728e-02	6.88663266e-02	1.80770156e+01	2.96081103e-04
264             	6.33809989e-02	6.88663775e-02	1.80770357e+01	2.97019711e-04
265             	6.33853804e-02	6.88664282e-02	1.80770557e+01	2.97953064e-04
266             	6.33896156e-02	6.88664786e-02	1.80770757e+01	2.98881181e-04
267             	6.33937121e-02	6.88665288e-02	1.80770955e+01	2.99804083e-04
268             	6.33976726e-02	6.88665788e-02	1.80771153e+01	3.00721790e-04
269             	6.34015017e-02	6.88666285e-02	1.80771350e+01	3.01634321e-04
270             	6.34051977e-02	6.88666779e-02	1.80771545e+01	3.02541694e-04
271             	6.34087679e-02	6.88667271e-02	1.80771740e+01	3.03443927e-04
272             	6.34122126e-02	6.88667760e-02	1.80771934e+01	3.04341038e-04
273             	6.34155306e-02	6.88668246e-02	1.80772126e+01	3.05233044e-04
274             	6.34187208e-02	6.88668731e-02	1.80772318e+01	3.06152082e-04
275             	6.34217833e-02	6.88669212e-02	1.80772509e+01	3.07082104e-04
276             	6.34247170e-02	6.88669691e-02	1.80772698e+01	3.08006721e-04
277             	6.34275201e-02	6.88670167e-02	1.80772887e+01	3.08925946e-04
278             	6.34301971e-02	6.88670640e-02	1.80773074e+01	3.09839795e-04
279             	6.34327496e-02	6.88671111e-02	1.80773260e+01	3.10748279e-04
280             	6.34351725e-02	6.88671578e-02	1.80773446e+01	3.11651414e-04
281             	6.34374691e-02	6.88672043e-02	1.80773630e+01	3.12549210e-04
282             	6.34396304e-02	6.88672505e-02	1.80773813e+01	3.13441679e-04
283             	6.34416569e-02	6.88672965e-02	1.80773995e+01	3.14328834e-04
284             	6.34435598e-02	6.88673422e-02	1.80774176e+01	3.15210685e-04
285             	6.34453378e-02	6.88673877e-02	1.80774356e+01	3.16087242e-04
286             	6.34469979e-02	6.88674330e-02	1.80774535e+01	3.16958516e-04
287             	6.34485447e-02	6.88674780e-02	1.80774713e+01	3.17824517e-04
288             	6.34499763e-02	6.88675228e-02	1.80774890e+01	3.18685252e-04
289             	6.34512982e-02	6.88675673e-02	1.80775067e+01	3.19540731e-04
290             	6.34525058e-02	6.88676116e-02	1.80775242e+01	3.20390962e-04
291             	6.34536088e-02	6.88676557e-02	1.80775417e+01	3.21235952e-04
292             	6.34545921e-02	6.88676995e-02	1.80775590e+01	3.22075708e-04
293             	6.34554494e-02	6.88677432e-02	1.80775763e+01	3.22910238e-04
294             	6.34561835e-02	6.88677865e-02	1.80775934e+01	3.23739548e-04
295             	6.34568061e-02	6.88678297e-02	1.80776105e+01	3.24563644e-04
296             	6.34573179e-02	6.88678726e-02	1.80776275e+01	3.25382530e-04
297             	6.34577194e-02	6.88679153e-02	1.80776444e+01	3.26196213e-04
298             	6.34580158e-02	6.88679577e-02	1.80776612e+01	3.27004697e-04
299             	6.34582176e-02	6.88679999e-02	1.80776779e+01	3.27807985e-04
300             	6.34583227e-02	6.88680419e-02	1.80776945e+01	3.28606083e-04
301             	6.34583218e-02	6.88680836e-02	1.80777111e+01	3.29398992e-04
302             	6.34582117e-02	6.88681248e-02	1.80777275e+01	3.30186717e-04
303             	6.34579819e-02	6.88681653e-02	1.80777437e+01	3.30969261e-04
304             	6.34576630e-02	6.88682051e-02	1.80777597e+01	3.31746625e-04
305             	6.34572546e-02	6.88682441e-02	1.80777753e+01	3.32518812e-04
306             	6.34567479e-02	6.88682824e-02	1.80777907e+01	3.33285823e-04
307             	6.34561331e-02	6.88683201e-02	1.80778058e+01	3.34047661e-04
308             	6.34554200e-02	6.88683572e-02	1.80778206e+01	3.34804325e-04
309             	6.34546094e-02	6.88683940e-02	1.80778352e+01	3.35555816e-04
310             	6.34536999e-02	6.88684304e-02	1.80778497e+01	3.36302135e-04
311             	6.34526721e-02	6.88684665e-02	1.80778641e+01	3.37043281e-04
312             	6.34515227e-02	6.88685023e-02	1.80778783e+01	3.37779255e-04
313             	6.34502729e-02	6.88685378e-02	1.80778923e+01	3.38510055e-04
314             	6.34489253e-02	6.88685730e-02	1.80779063e+01	3.39235683e-04
315             	6.34474953e-02	6.88686080e-02	1.80779202e+01	3.39976096e-04
316             	6.34459735e-02	6.88686427e-02	1.80779340e+01	3.40722331e-04
317             	6.34443598e-02	6.88686772e-02	1.80779477e+01	3.41463030e-04
318             	6.34426595e-02	6.88687115e-02	1.80779612e+01	3.42198192e-04
319             	6.34408624e-02	6.88687456e-02	1.80779747e+01	3.42927816e-04
320             	6.34389764e-02	6.88687794e-02	1.80779881e+01	3.43651899e-04
321             	6.34369767e-02	6.88688130e-02	1.80780015e+01	3.44370443e-04
322             	6.34348582e-02	6.88688464e-02	1.80780147e+01	3.45083447e-04
323             	6.34326459e-02	6.88688797e-02	1.80780279e+01	3.45790910e-04
324             	6.34303399e-02	6.88689127e-02	1.80780409e+01	3.46492829e-04
325             	6.34279397e-02	6.88689455e-02	1.80780539e+01	3.47189207e-04
326             	6.34254502e-02	6.88689781e-02	1.80780669e+01	3.47880044e-04
327             	6.34228903e-02	6.88690106e-02	1.80780797e+01	3.48565336e-04
328             	6.34202526e-02	6.88690429e-02	1.80780925e+01	3.49245087e-04
329             	6.34175378e-02	6.88690750e-02	1.80781052e+01	3.49919298e-04
330             	6.34147419e-02	6.88691070e-02	1.80781179e+01	3.50587966e-04
331             	6.34118614e-02	6.88691387e-02	1.80781304e+01	3.51251099e-04
332             	6.34088687e-02	6.88691703e-02	1.80781430e+01	3.51908673e-04
333             	6.34057850e-02	6.88692018e-02	1.80781554e+01	3.52560676e-04
334             	6.34026135e-02	6.88692331e-02	1.80781678e+01	3.53207098e-04
335             	6.33993636e-02	6.88692642e-02	1.80781801e+01	3.53847916e-04
336             	6.33960353e-02	6.88692951e-02	1.80781924e+01	3.54483115e-04
337             	6.33926342e-02	6.88693259e-02	1.80782045e+01	3.55112691e-04
338             	6.33891606e-02	6.88693565e-02	1.80782167e+01	3.55736628e-04
339             	6.33856242e-02	6.88693870e-02	1.80782287e+01	3.56354912e-04
340             	6.33820262e-02	6.88694173e-02	1.80782407e+01	3.56967527e-04
341             	6.33783703e-02	6.88694474e-02	1.80782526e+01	3.57574458e-04
342             	6.33746658e-02	6.88694774e-02	1.80782645e+01	3.58175691e-04
343             	6.33709042e-02	6.88695073e-02	1.80782763e+01	3.58771209e-04
344             	6.33670831e-02	6.88695370e-02	1.80782881e+01	3.59360991e-04
345             	6.33631970e-02	6.88695665e-02	1.80782998e+01	3.59944987e-04
346             	6.33592368e-02	6.88695959e-02	1.80783114e+01	3.60523137e-04
347             	6.33552136e-02	6.88696252e-02	1.80783230e+01	3.61095458e-04
348             	6.33511343e-02	6.88696544e-02	1.80783345e+01	3.61661929e-04
349             	6.33470004e-02	6.88696834e-02	1.80783460e+01	3.62222540e-04
350             	6.33428143e-02	6.88697123e-02	1.80783574e+01	3.62777283e-04
351             	6.33385786e-02	6.88697411e-02	1.80783688e+01	3.63326151e-04
352             	6.33342932e-02	6.88697697e-02	1.80783801e+01	3.63869137e-04
353             	6.33299588e-02	6.88697982e-02	1.80783914e+01	3.64406233e-04
354             	6.33255771e-02	6.88698265e-02	1.80784026e+01	3.64937435e-04
355             	6.33211496e-02	6.88698548e-02	1.80784138e+01	3.65462735e-04
356             	6.33166768e-02	6.88698829e-02	1.80784249e+01	3.65982130e-04
357             	6.33121620e-02	6.88699109e-02	1.80784360e+01	3.66495612e-04
358             	6.33076068e-02	6.88699387e-02	1.80784470e+01	3.67003177e-04
359             	6.33030124e-02	6.88699664e-02	1.80784579e+01	3.67504818e-04
360             	6.32983823e-02	6.88699940e-02	1.80784689e+01	3.68000530e-04
361             	6.32937087e-02	6.88700215e-02	1.80784797e+01	3.68490309e-04
362             	6.32889900e-02	6.88700488e-02	1.80784905e+01	3.68974148e-04
363             	6.32842331e-02	6.88700761e-02	1.80785013e+01	3.69452044e-04
364             	6.32794384e-02	6.88701032e-02	1.80785120e+01	3.69923990e-04
365             	6.32746082e-02	6.88701301e-02	1.80785227e+01	3.70389982e-04
366             	6.32697425e-02	6.88701570e-02	1.80785333e+01	3.70850015e-04
367             	6.32648414e-02	6.88701837e-02	1.80785439e+01	3.71304086e-04
368             	6.32598966e-02	6.88702102e-02	1.80785544e+01	3.71752190e-04
369             	6.32549109e-02	6.88702367e-02	1.80785649e+01	3.72194323e-04
370             	6.32498910e-02	6.88702630e-02	1.80785753e+01	3.72630481e-04
371             	6.32448376e-02	6.88702892e-02	1.80785856e+01	3.73060663e-04
372             	6.32397556e-02	6.88703153e-02	1.80785959e+01	3.73484865e-04
373             	6.32346460e-02	6.88703412e-02	1.80786062e+01	3.73903086e-04
374             	6.32295081e-02	6.88703671e-02	1.80786164e+01	3.74315324e-04
375             	6.32243430e-02	6.88703929e-02	1.80786266e+01	3.74721578e-04
376             	6.32191532e-02	6.88704185e-02	1.80786368e+01	3.75121850e-04
377             	6.32139400e-02	6.88704440e-02	1.80786469e+01	3.75516140e-04
378             	6.32087063e-02	6.88704694e-02	1.80786569e+01	3.75904449e-04
379             	6.32034503e-02	6.88704948e-02	1.80786669e+01	3.76286782e-04
380             	6.31981726e-02	6.88705200e-02	1.80786769e+01	3.76663141e-04
381             	6.31928738e-02	6.88705451e-02	1.80786868e+01	3.77033533e-04
382             	6.31875450e-02	6.88705701e-02	1.80786967e+01	3.77397962e-04
383             	6.31821781e-02	6.88705951e-02	1.80787066e+01	3.77756436e-04
384             	6.31767878e-02	6.88706200e-02	1.80787164e+01	3.78108964e-04
385             	6.31713859e-02	6.88706450e-02	1.80787262e+01	3.78455555e-04
386             	6.31659827e-02	6.88706699e-02	1.80787360e+01	3.78796219e-04
387             	6.31605683e-02	6.88706948e-02	1.80787458e+01	3.79130969e-04