/*--------------------------------*- C++ -*----------------------------------*\
| =========                 |                                                 |
| \\      /  F ield         | OpenFOAM: The Open Source CFD Toolbox           |
|  \\    /   O peration     | Version:  2206                                  |
|   \\  /    A nd           | Website:  www.openfoam.com                      |
|    \\/     M anipulation  |                                                 |
\*---------------------------------------------------------------------------*/
FoamFile
{
    version     2.0;
    format      ascii;
    arch        "LSB;label=32;scalar=64";
    class       volScalarField;
    location    "200";
    object      k;
}
// * * * * * * * * * * * * * * * * * * * * * * * * * * * * * * * * * * * * * //

dimensions      [0 2 -2 0 0 0 0];

internalField   nonuniform List<scalar> 
7480
(
0.011444557
0.014108676
0.011690178
0.00765912
0.0045412623
0.0027808398
0.0019366457
0.0015256356
0.0012978511
0.0011495468
0.0010349971
0.00093675845
0.00085117357
0.00077713365
0.00071293715
0.00065695875
0.00060809759
0.00056520557
0.00052704141
0.0004928355
0.00046212271
0.00043439584
0.00040918846
0.00038620604
0.00036521519
0.00034596349
0.00032822673
0.00031186234
0.00029675755
0.00028278339
0.00026982755
0.00025781676
0.00024668661
0.00023636516
0.00022679204
0.00021792627
0.00020973048
0.00020216807
0.00019521423
0.00018885658
0.00018308474
0.00017788791
0.00017326594
0.00016922047
0.00016576109
0.00016292785
0.00016074606
0.00015926661
0.00015847844
0.00015836691
0.0001589109
0.00016008131
0.00016181664
0.00016400449
0.00016653467
0.00016933123
0.00017222705
0.00017497122
0.00017732926
0.00017911993
0.0001803167
0.00018093664
0.00018103521
0.0001806887
0.00017999385
0.00017903879
0.00017790118
0.00017664307
0.00017530902
0.00017393208
0.00017253745
0.00017113991
0.00016974895
0.00016837464
0.00016701942
0.00016568469
0.00016437092
0.00016302386
0.00016164815
0.00016026003
0.00015886607
0.0001574695
0.00015606493
0.00015465036
0.00015322529
0.00015178942
0.00015034502
0.00014889272
0.00014743578
0.00014597531
0.00014451358
0.00014305156
0.00014159251
0.0001401283
0.00013868321
0.0001371688
0.00013584844
0.00013394485
0.00013287338
0.0001299723
0.0014156839
0.0025663981
0.0028346275
0.002473953
0.0020070058
0.0015607464
0.0011994123
0.00093120057
0.00073501015
0.0005908421
0.00048464834
0.00040591882
0.00034681764
0.00030170183
0.00026650646
0.00023839182
0.00021546127
0.00019640572
0.00018029318
0.00016649251
0.0001545787
0.00014422954
0.00013519096
0.00012727277
0.0001201932
0.00011381211
0.00010804371
0.00010283734
9.8159694e-05
9.3981659e-05
9.0280359e-05
8.7041893e-05
8.4256236e-05
8.1914216e-05
8.0010596e-05
7.8545548e-05
7.7523359e-05
7.6955611e-05
7.6865488e-05
7.7288745e-05
7.8272077e-05
7.9873475e-05
8.216517e-05
8.5232646e-05
8.9180409e-05
9.4118143e-05
0.0001001341
0.00010728654
0.00011559532
0.00012505395
0.00013563065
0.00014732939
0.00015988751
0.00017300805
0.00018640258
0.00019964057
0.00021208248
0.00022314488
0.00023247127
0.00024000602
0.00024589528
0.00025040326
0.00025379241
0.00025615553
0.00025771343
0.00025866512
0.00025916827
0.0002593395
0.00025926406
0.00025900403
0.00025860247
0.00025808588
0.00025747815
0.00025679765
0.00025605126
0.00025524003
0.00025434429
0.0002531588
0.00025176981
0.00025024782
0.0002486156
0.00024687961
0.00024504194
0.00024310963
0.00024108931
0.00023899106
0.00023682491
0.0002346009
0.00023233003
0.00023002135
0.00022768385
0.00022532551
0.0002229542
0.00022057459
0.00021819063
0.0002158007
0.00021344228
0.00021076952
0.00020885322
0.00020445618
0.00020999839
0.00055718457
0.00084134488
0.00095101072
0.00092894326
0.00084353303
0.00075615969
0.00069797279
0.00065926356
0.00062430437
0.00059309911
0.00056404928
0.00053577001
0.00050884787
0.00048354578
0.00045988776
0.00043793548
0.00041770762
0.00039920693
0.00038244205
0.00036740234
0.00035404557
0.00034232433
0.00033217476
0.00032244263
0.00031325531
0.00030472685
0.0002969866
0.00029016197
0.0002843716
0.00027973423
0.00027636738
0.00027438038
0.00027387878
0.00027497298
0.00027777854
0.00028242277
0.00028907348
0.00029795623
0.00030935706
0.000323621
0.00034115775
0.00036244964
0.00038805021
0.00041861453
0.00045475778
0.00049695875
0.00054542936
0.00060018416
0.00066107218
0.00072755988
0.00079921776
0.00087483505
0.00095268598
0.0010310885
0.0011074975
0.0011784409
0.0012409858
0.0012935871
0.0013362635
0.001369982
0.0013963231
0.0014160974
0.0014304092
0.0014405433
0.0014475418
0.0014522075
0.0014551247
0.0014567192
0.0014572997
0.0014570765
0.0014561791
0.0014547317
0.0014528263
0.0014504967
0.0014477438
0.0014444514
0.0014394378
0.0014332679
0.0014263262
0.0014187256
0.0014104968
0.0014016574
0.0013922499
0.0013823135
0.0013719066
0.0013610844
0.0013499041
0.0013384255
0.0013267001
0.0013147771
0.0013027026
0.0012905187
0.0012782629
0.0012659292
0.0012536157
0.0012412162
0.0012276712
0.0012174284
0.0011948854
3.6611958e-05
0.00011641206
0.00022888374
0.00032889844
0.00038969102
0.0004111386
0.00040817486
0.00039503153
0.00038062531
0.00036976523
0.00036654287
0.00037468208
0.00038617465
0.0003959917
0.0004041734
0.00041045738
0.0004154513
0.00041965533
0.00042338867
0.00042691175
0.00043044125
0.0004341653
0.00043823968
0.00044277239
0.00044760189
0.00045254252
0.00045764134
0.00046311138
0.00046922979
0.00047629765
0.00048463334
0.00049456907
0.00050644519
0.00052061218
0.00053743491
0.00055729027
0.00058059466
0.00060787901
0.00063980244
0.00067714162
0.00072078183
0.00077172016
0.00083107211
0.00090006361
0.00098008418
0.001072129
0.0011767688
0.0012939213
0.0014230681
0.0015633457
0.0017133198
0.0018699226
0.002031283
0.0021938371
0.0023542746
0.0025072333
0.0026462787
0.002767001
0.0028679384
0.00295012
0.0030160239
0.003068111
0.0031079999
0.0031384433
0.0031617195
0.0031795946
0.0031933991
0.003204093
0.0032123673
0.0032187197
0.0032234826
0.0032268592
0.0032290665
0.0032302544
0.0032304711
0.0032297014
0.0032277515
0.0032222868
0.0032146312
0.0032054473
0.0031948974
0.0031830348
0.0031699044
0.0031555914
0.0031401792
0.0031237797
0.0031064984
0.0030884431
0.003069724
0.0030504388
0.0030306763
0.0030105266
0.0029900657
0.002969375
0.0029484195
0.0029274821
0.0029060244
0.0028832832
0.0028647075
0.0028272546
1.2523644e-05
2.7573603e-05
5.8627294e-05
9.9476634e-05
0.00013898234
0.00016942949
0.00018921262
0.00020027005
0.00020549043
0.00020735553
0.00020803428
0.0002095961
0.00021295735
0.00021862071
0.000227519
0.00024063275
0.00025528075
0.00027044939
0.00028571788
0.00030135044
0.00031749584
0.00033433784
0.00035194991
0.00037026383
0.00038900286
0.00040786145
0.00042731905
0.00044782456
0.00046970374
0.00049323484
0.00051869787
0.00054640461
0.00057671272
0.00061002731
0.00064679415
0.00068749513
0.00073273032
0.00078335953
0.00084041787
0.00090504636
0.00097848802
0.0010620944
0.0011573294
0.0012657617
0.0013891195
0.0015278237
0.0016815477
0.0018495417
0.0020308304
0.0022240732
0.0024272746
0.0026372148
0.002849193
0.0030592068
0.0032641418
0.0034560342
0.0036271441
0.0037741505
0.0038972804
0.003998775
0.0040812528
0.0041475523
0.0042006534
0.0042433278
0.0042779349
0.0043063284
0.0043299135
0.0043497166
0.004366481
0.0043807435
0.0043928573
0.0044030421
0.0044115634
0.0044185815
0.0044241338
0.0044281784
0.0044305324
0.0044302272
0.0044274519
0.0044225012
0.0044155358
0.0044066488
0.0043959303
0.0043835092
0.0043695202
0.0043541216
0.0043374631
0.0043196924
0.004300957
0.0042813903
0.0042611075
0.0042402321
0.0042188607
0.0041971047
0.0041749222
0.0041527
0.0041296216
0.0041057226
0.0040848466
0.0040463741
9.3804423e-06
1.1752437e-05
1.8506066e-05
3.0347355e-05
4.5493439e-05
6.112333e-05
7.521233e-05
8.6941259e-05
9.6294212e-05
0.00010358767
0.00010921944
0.00011369751
0.00011751546
0.00012112398
0.00012503005
0.00012980782
0.0001357335
0.00014308259
0.0001522809
0.00016377688
0.00017689338
0.00019191158
0.00020811207
0.00022551675
0.00024420749
0.00026424189
0.00028584803
0.00030932841
0.00033501848
0.00036329721
0.00039458366
0.00042933641
0.00046805696
0.00051128212
0.00055959655
0.00061371615
0.00067463838
0.00074338746
0.00082098022
0.00090850905
0.0010071825
0.0011183302
0.001243395
0.0013839466
0.0015416636
0.0017147622
0.0019012907
0.0021004397
0.0023115345
0.002533394
0.002763982
0.0029999895
0.003236612
0.0034695841
0.0036956846
0.0039039174
0.0040874168
0.0042459294
0.0043810552
0.0044953386
0.0045917767
0.0046730687
0.0047416607
0.0047998322
0.0048496211
0.0048926668
0.0049302598
0.0049633909
0.0049927975
0.0050190219
0.0050424185
0.0050632138
0.0050817403
0.0050981561
0.0051124808
0.0051246505
0.0051345219
0.005141442
0.0051453691
0.0051464882
0.0051449761
0.0051409739
0.0051346238
0.0051261015
0.0051155929
0.0051033009
0.0050894156
0.0050741202
0.0050575954
0.0050400054
0.0050214868
0.0050021914
0.0049822327
0.004961744
0.0049406888
0.0049195042
0.0048972458
0.0048745367
0.0048538292
0.004817151
8.9897656e-06
9.2309556e-06
1.0392077e-05
1.3067003e-05
1.7353639e-05
2.2793646e-05
2.8764261e-05
3.4797989e-05
4.062457e-05
4.6102618e-05
5.1149242e-05
5.5733291e-05
5.9873569e-05
6.3625952e-05
6.7094461e-05
7.0435792e-05
7.38157e-05
7.7408702e-05
8.1427194e-05
8.6127799e-05
9.16972e-05
9.8411365e-05
0.00010651022
0.00011620119
0.00012735621
0.00014018205
0.00015492678
0.00017144022
0.00018974962
0.00021022253
0.00023329747
0.00025949474
0.0002894254
0.00032377301
0.00036330421
0.00040892982
0.00046182864
0.00052347219
0.00059540362
0.00067927515
0.0007768343
0.00088990535
0.0010203733
0.0011702382
0.0013416183
0.0015227558
0.0017160258
0.001924956
0.0021499988
0.0023896032
0.0026406573
0.0028984521
0.003156871
0.0034119063
0.003661075
0.0038826669
0.0040755267
0.0042466028
0.0043984158
0.0045330246
0.0046524603
0.0047582471
0.0048517724
0.0049346369
0.0050084059
0.0050743612
0.0051336465
0.0051872361
0.0052358818
0.0052801705
0.0053205538
0.0053573595
0.005390885
0.0054213103
0.005448668
0.0054729112
0.0054939559
0.00551139
0.0055250997
0.0055352119
0.0055419292
0.0055454534
0.0055459922
0.0055437799
0.0055390634
0.0055320982
0.0055231213
0.0055123583
0.0055000307
0.0054863401
0.0054714639
0.0054555731
0.0054387993
0.0054212986
0.0054030555
0.0053845208
0.0053647586
0.0053446639
0.0053258795
0.0052923386
8.9407307e-06
8.8617933e-06
8.9453061e-06
9.3734807e-06
1.0288527e-05
1.1705803e-05
1.3542236e-05
1.5694434e-05
1.80786e-05
2.0628794e-05
2.3283339e-05
2.5983663e-05
2.8679628e-05
3.133066e-05
3.3912403e-05
3.6422798e-05
3.8879165e-05
4.1314336e-05
4.3780872e-05
4.6354606e-05
4.9122805e-05
5.2194691e-05
5.5698264e-05
5.9779336e-05
6.4570181e-05
7.0248847e-05
7.7055661e-05
8.5136527e-05
9.4556837e-05
0.00010555616
0.00011844288
0.00013359466
0.00015136067
0.00017185957
0.00019572475
0.00022372697
0.00025684045
0.00029631086
0.0003436736
0.00040076015
0.00046973638
0.00055311454
0.00065371145
0.00077457051
0.00091881757
0.0010825941
0.0012631802
0.0014616498
0.0016783757
0.0019124766
0.0021613176
0.0024202138
0.002682987
0.002948105
0.0032141349
0.0034582695
0.0036787332
0.0038799063
0.0040626679
0.0042298394
0.0043832247
0.0045232926
0.0046507107
0.0047667782
0.0048726127
0.0049690756
0.0050572242
0.0051380208
0.0052121972
0.0052804089
0.0053432253
0.0054010706
0.0054542843
0.0055030958
0.0055475595
0.005587673
0.0056234288
0.0056546353
0.0056812135
0.0057032698
0.0057210263
0.0057347386
0.0057446817
0.0057511544
0.0057544694
0.0057549405
0.0057528576
0.0057484961
0.0057421276
0.0057339983
0.0057243253
0.0057133123
0.0057011191
0.0056879297
0.005673762
0.0056590615
0.0056429892
0.0056264955
0.0056108588
0.0055810909
8.9327311e-06
8.8090888e-06
8.7105199e-06
8.6773582e-06
8.7584084e-06
8.9873462e-06
9.3746533e-06
9.9176525e-06
1.0611337e-05
1.1450594e-05
1.242735e-05
1.3528419e-05
1.4737121e-05
1.6033972e-05
1.7399238e-05
1.8816131e-05
2.027249e-05
2.1760831e-05
2.3280429e-05
2.4839566e-05
2.6455088e-05
2.8153319e-05
2.997166e-05
3.1959717e-05
3.4176105e-05
3.6693536e-05
3.9606578e-05
4.3019581e-05
4.704174e-05
5.1817568e-05
5.7541338e-05
6.4402953e-05
7.2617741e-05
8.2428986e-05
9.4182609e-05
0.00010832219
0.00012542584
0.00014624524
0.00017147394
0.00020216468
0.00023988535
0.00028664293
0.00034498315
0.00041808814
0.00050987456
0.00062314874
0.00075704361
0.00091183648
0.0010885645
0.0012875718
0.0015078911
0.0017466551
0.0019991437
0.0022629772
0.0025354787
0.0028005929
0.0030436353
0.0032703579
0.003483142
0.0036835729
0.0038727127
0.0040492747
0.0042133732
0.0043663785
0.0045086722
0.0046404503
0.0047626918
0.0048761562
0.0049813389
0.0050789264
0.00516954
0.0052536251
0.0053315354
0.0054035438
0.0054696807
0.0055299903
0.0055845556
0.0056333671
0.005676435
0.0057138896
0.005745974
0.0057729851
0.0057952601
0.0058131622
0.0058270721
0.0058373676
0.0058443975
0.0058484961
0.0058499959
0.0058491979
0.0058463696
0.0058417586
0.0058355625
0.0058280016
0.00581914
0.0058094123
0.0057981277
0.0057861787
0.0057747454
0.0057493091
8.9300325e-06
8.7998678e-06
8.6731374e-06
8.5570287e-06
8.4631997e-06
8.4038818e-06
8.3885773e-06
8.4242322e-06
8.5169627e-06
8.672723e-06
8.8966871e-06
9.1921866e-06
9.560637e-06
1.0001274e-05
1.0511566e-05
1.1087843e-05
1.1725702e-05
1.2420472e-05
1.3168133e-05
1.3966251e-05
1.4814538e-05
1.5715395e-05
1.6675095e-05
1.7704893e-05
1.8821142e-05
2.0046121e-05
2.1410153e-05
2.2951692e-05
2.4717171e-05
2.6764716e-05
2.9169799e-05
3.2024037e-05
3.5439784e-05
3.9555816e-05
4.4554216e-05
5.0629429e-05
5.8056191e-05
6.720262e-05
7.8498608e-05
9.2507054e-05
0.00011001385
0.00013208514
0.00016015475
0.00019613732
0.00024247503
0.00030212592
0.00037783608
0.00047158808
0.00058581701
0.00072279168
0.00088420124
0.0010705637
0.0012806637
0.0015124453
0.0017632588
0.0020239307
0.0022816005
0.0025302315
0.0027636591
0.0029863906
0.0032004262
0.0034057226
0.0036020694
0.0037897378
0.0039678041
0.0041351645
0.0042930216
0.0044415764
0.0045808125
0.004711417
0.0048338353
0.0049483872
0.0050553667
0.0051550743
0.0052473451
0.0053322318
0.0054099061
0.0054804613
0.0055439854
0.0056006597
0.005650747
0.0056945676
0.0057325086
0.0057649859
0.0057924392
0.0058153131
0.0058340165
0.0058489485
0.0058605101
0.0058690661
0.0058749464
0.0058784542
0.0058798371
0.0058793622
0.0058771518
0.0058736342
0.0058682945
0.005861924
0.0058557489
0.0058353277
8.9284375e-06
8.7967941e-06
8.6655704e-06
8.535761e-06
8.4095804e-06
8.29005e-06
8.1804076e-06
8.0838945e-06
8.003923e-06
7.9441874e-06
7.9085357e-06
7.9007191e-06
7.924216e-06
7.9820234e-06
8.0765866e-06
8.2097894e-06
8.3828991e-06
8.5966019e-06
8.8511732e-06
9.1467135e-06
9.4833708e-06
9.8616132e-06
1.0282544e-05
1.074836e-05
1.1262752e-05
1.1831377e-05
1.246253e-05
1.3167814e-05
1.3962627e-05
1.4867082e-05
1.59076e-05
1.7117936e-05
1.8540968e-05
2.0231101e-05
2.2258735e-05
2.4710729e-05
2.7700814e-05
3.1381884e-05
3.595156e-05
4.1646591e-05
4.8804139e-05
5.7886398e-05
6.9530607e-05
8.4617907e-05
0.00010434921
0.00013034923
0.00016465091
0.00020947134
0.00026742334
0.00034146019
0.00043473867
0.00055031
0.00069061812
0.00085720286
0.001050577
0.0012680479
0.0015024561
0.0017455248
0.001987911
0.0022268984
0.0024574463
0.0026783708
0.0028931662
0.0031024321
0.0033056626
0.0035019082
0.0036911207
0.0038723648
0.0040444579
0.0042082261
0.0043635848
0.0045106359
0.004649396
0.0047797258
0.0049013436
0.0050143238
0.0051188315
0.0052149297
0.0053027233
0.0053824151
0.0054542509
0.0055185403
0.0055756905
0.0056261357
0.0056703439
0.0057088209
0.0057420349
0.005770446
0.0057945217
0.0058146938
0.0058313635
0.0058448995
0.005855616
0.0058638366
0.0058697535
0.0058738014
0.0058756543
0.0058759995
0.0058761882
0.0058616165
8.9274346e-06
8.7951107e-06
8.6628372e-06
8.5306587e-06
8.3989092e-06
8.2681644e-06
8.1392199e-06
8.0130658e-06
7.890894e-06
7.7741061e-06
7.6642951e-06
7.5632086e-06
7.4727141e-06
7.3947429e-06
7.3312352e-06
7.2841048e-06
7.255195e-06
7.2462225e-06
7.2587609e-06
7.2942542e-06
7.3540378e-06
7.4393857e-06
7.551553e-06
7.6918981e-06
7.8620248e-06
8.0639429e-06
8.3003629e-06
8.5750256e-06
8.8929373e-06
9.2606758e-06
9.6869137e-06
1.0183073e-05
1.0764075e-05
1.1449214e-05
1.226362e-05
1.3239614e-05
1.4419075e-05
1.5857466e-05
1.7627992e-05
1.9824986e-05
2.2575915e-05
2.6056577e-05
3.0509672e-05
3.6267311e-05
4.3805167e-05
5.3795168e-05
6.7163638e-05
8.5118306e-05
0.00010922867
0.00014150186
0.00018444267
0.00024105572
0.00031473042
0.00040902138
0.00052736293
0.00067215423
0.00084333464
0.0010380359
0.0012502765
0.0014743678
0.0017032135
0.0019315529
0.0021583849
0.0023799636
0.0025943028
0.0028048013
0.0030115744
0.0032142375
0.0034115067
0.0036030705
0.0037877465
0.0039648185
0.0041342448
0.0042952092
0.0044471365
0.0045900296
0.0047238208
0.0048483479
0.0049636079
0.0050697138
0.0051668101
0.0052551301
0.0053350411
0.0054069351
0.0054712656
0.0055285726
0.0055793553
0.0056241208
0.0056633979
0.005697679
0.0057274411
0.0057531253
0.0057751221
0.0057938237
0.0058095049
0.0058226217
0.0058330434
0.0058413694
0.0058491239
0.0058414062
8.9268819e-06
8.7941785e-06
8.661502e-06
8.5287959e-06
8.3960865e-06
8.2634481e-06
8.1310388e-06
7.9991194e-06
7.8680512e-06
7.7382864e-06
7.6103618e-06
7.4848996e-06
7.3626131e-06
7.2443068e-06
7.1308697e-06
7.0232687e-06
6.9225391e-06
6.8297668e-06
6.7460721e-06
6.6725998e-06
6.610507e-06
6.5609531e-06
6.5251044e-06
6.504148e-06
6.4993092e-06
6.5118822e-06
6.5433112e-06
6.5953034e-06
6.669913e-06
6.7696249e-06
6.8975728e-06
7.0577811e-06
7.2554173e-06
7.4972251e-06
7.7920549e-06
8.1512589e-06
8.5895421e-06
9.1262306e-06
9.7868691e-06
1.0604961e-05
1.1625192e-05
1.290852e-05
1.4538791e-05
1.6632157e-05
1.9353695e-05
2.294097e-05
2.7733178e-05
3.4203155e-05
4.301473e-05
5.5086892e-05
7.1679322e-05
9.4490389e-05
0.00012575092
0.00016828306
0.00022550058
0.00030119476
0.00039891185
0.00052111577
0.00066817662
0.00083854617
0.0010283219
0.0012323399
0.0014463717
0.0016649513
0.0018835945
0.0021020266
0.002317646
0.0025280127
0.002735964
0.0029415082
0.0031443139
0.0033425984
0.0035358778
0.0037232
0.0039026959
0.0040742199
0.0042372558
0.004391128
0.0045354978
0.0046702186
0.0047952031
0.0049104672
0.0050162401
0.0051127803
0.0052004566
0.0052797927
0.0053512565
0.0054153685
0.0054726965
0.0055237718
0.0055691402
0.0056093104
0.005644751
0.0056759306
0.0057032135
0.0057270901
0.0057476275
0.0057653594
0.005782022
0.0057823599
8.9265708e-06
8.7936365e-06
8.6607607e-06
8.5279017e-06
8.3950497e-06
8.2621971e-06
8.1293685e-06
7.9966397e-06
7.8641341e-06
7.7320114e-06
7.600458e-06
7.4696871e-06
7.3399463e-06
7.211524e-06
7.0847537e-06
6.9600177e-06
6.8377504e-06
6.718438e-06
6.6026174e-06
6.4908753e-06
6.3838455e-06
6.2822041e-06
6.186668e-06
6.0979945e-06
6.0169813e-06
5.9444665e-06
5.8813446e-06
5.8285878e-06
5.787269e-06
5.7585935e-06
5.7439609e-06
5.7450389e-06
5.7638422e-06
5.802885e-06
5.8653765e-06
5.9553627e-06
6.0779948e-06
6.2399435e-06
6.4499732e-06
6.7196801e-06
7.0643629e-06
7.5044466e-06
8.0677122e-06
8.7923754e-06
9.7320431e-06
1.0963561e-05
1.2597942e-05
1.4795087e-05
1.7786567e-05
2.1907834e-05
2.7643048e-05
3.5686906e-05
4.7036059e-05
6.3093909e-05
8.5791704e-05
0.00011768648
0.00016194208
0.00022208832
0.00030149325
0.00040281176
0.0005272571
0.00067423046
0.00084181788
0.0010264606
0.001223619
0.0014299295
0.001641188
0.0018531298
0.002065829
0.0022773366
0.00248531
0.0026913444
0.0028956597
0.0030979363
0.0032963712
0.0034900217
0.0036779918
0.0038583291
0.0040302176
0.0041932126
0.0043467176
0.004490243
0.0046237782
0.0047472875
0.004860913
0.0049650807
0.0050601065
0.0051464585
0.0052246949
0.0052953333
0.0053589642
0.0054161374
0.0054673864
0.0055132533
0.0055541875
0.0055907225
0.0056231186
0.005651864
0.0056789502
0.0056887602
8.9263899e-06
8.793269e-06
8.6602354e-06
8.5272772e-06
8.3943929e-06
8.2615713e-06
8.1288158e-06
7.99616e-06
7.8636655e-06
7.7314118e-06
7.5994871e-06
7.4679847e-06
7.3370065e-06
7.2066666e-06
7.0770946e-06
6.9484388e-06
6.8208688e-06
6.6945793e-06
6.5697912e-06
6.4467549e-06
6.3257512e-06
6.2070932e-06
6.0911267e-06
5.978232e-06
5.8688243e-06
5.7633541e-06
5.6623101e-06
5.5662236e-06
5.4756734e-06
5.391293e-06
5.3137872e-06
5.2439522e-06
5.1826975e-06
5.1310856e-06
5.0903916e-06
5.0621699e-06
5.0483338e-06
5.0512771e-06
5.0740577e-06
5.1206756e-06
5.1963174e-06
5.3077644e-06
5.4640944e-06
5.6776462e-06
5.9656055e-06
6.3520715e-06
6.8714532e-06
7.5736339e-06
8.5315964e-06
9.8529737e-06
1.1697553e-05
1.4302986e-05
1.8025127e-05
2.3396619e-05
3.1208307e-05
4.2613119e-05
5.9250189e-05
8.3321689e-05
0.00011757162
0.00016512985
0.00022915819
0.00031236289
0.00041663273
0.00054254855
0.00068912408
0.00085441989
0.0010353459
0.0012278032
0.0014289807
0.0016354301
0.0018431321
0.0020521047
0.00226046
0.0024657565
0.002670142
0.0028735936
0.0030752214
0.0032731267
0.0034661762
0.0036533097
0.0038325941
0.0040028379
0.0041638587
0.0043149404
0.0044557782
0.0045866212
0.0047073883
0.0048183997
0.0049201192
0.0050129491
0.0050974745
0.0051742263
0.0052437674
0.0053066925
0.0053635129
0.0054148025
0.0054609998
0.0055025585
0.0055417812
0.0055627131
8.9263185e-06
8.7930325e-06
8.659845e-06
8.5267707e-06
8.3938234e-06
8.2610027e-06
8.1283144e-06
7.9957842e-06
7.863457e-06
7.7313899e-06
7.5996446e-06
7.4682832e-06
7.3373687e-06
7.2069667e-06
7.0771463e-06
6.947982e-06
6.8195545e-06
6.6919525e-06
6.5652745e-06
6.4396296e-06
6.31514e-06
6.1919424e-06
6.0701892e-06
5.9500508e-06
5.8317169e-06
5.7153981e-06
5.6013275e-06
5.489763e-06
5.3809894e-06
5.2753204e-06
5.1731036e-06
5.0747263e-06
4.9806214e-06
4.891278e-06
4.8072572e-06
4.7292137e-06
4.6579204e-06
4.5943037e-06
4.5394975e-06
4.4949215e-06
4.4623723e-06
4.4441472e-06
4.4432494e-06
4.4636653e-06
4.5108407e-06
4.592254e-06
4.7183817e-06
4.9042676e-06
5.1719731e-06
5.5541209e-06
6.099211e-06
6.880485e-06
8.0097844e-06
9.6594203e-06
1.2096117e-05
1.5731674e-05
2.119724e-05
2.9435558e-05
4.1795888e-05
6.0104637e-05
8.6680556e-05
0.00012423217
0.00017566749
0.00024376018
0.00033072367
0.0004379562
0.00056571404
0.00071283593
0.00087742029
0.0010566873
0.0012468316
0.0014453268
0.0016488289
0.0018535855
0.0020600183
0.0022658217
0.0024693947
0.0026722522
0.0028748416
0.0030752591
0.0032716423
0.0034628107
0.0036476951
0.0038239626
0.0039908441
0.0041483986
0.0042956152
0.0044326238
0.0045596442
0.0046767638
0.004784491
0.0048832182
0.0049734762
0.0050558617
0.0051308959
0.0051991742
0.0052612798
0.0053176275
0.0053709023
0.0054048462
8.9263523e-06
8.7929267e-06
8.6595967e-06
8.5263972e-06
8.3933559e-06
8.2604842e-06
8.1277952e-06
7.9953149e-06
7.8630836e-06
7.7311508e-06
7.5995704e-06
7.4683962e-06
7.337682e-06
7.2074818e-06
7.0778498e-06
6.9488412e-06
6.8205124e-06
6.6929212e-06
6.5661279e-06
6.4401953e-06
6.3151898e-06
6.1911821e-06
6.0682483e-06
5.9464705e-06
5.8259384e-06
5.7067501e-06
5.5890136e-06
5.4728479e-06
5.3583849e-06
5.2457704e-06
5.1351661e-06
5.026752e-06
4.9207291e-06
4.8173219e-06
4.7167837e-06
4.6194027e-06
4.5255096e-06
4.4354876e-06
4.349788e-06
4.268952e-06
4.1936382e-06
4.1246603e-06
4.0630451e-06
4.0101145e-06
3.9676049e-06
3.9378495e-06
3.9240548e-06
3.9307264e-06
3.9643879e-06
4.0346126e-06
4.1555404e-06
4.3485522e-06
4.646608e-06
5.1010639e-06
5.7924908e-06
6.8488957e-06
8.4742291e-06
1.0991344e-05
1.4900488e-05
2.0954003e-05
3.0238892e-05
4.4250258e-05
6.4921219e-05
9.4599751e-05
0.00013591729
0.00019158402
0.00026409039
0.00035531851
0.00046634237
0.00059718812
0.00074653107
0.00091243134
0.0010920837
0.0012817948
0.0014793656
0.0016810554
0.0018841619
0.0020890104
0.0022926284
0.0024946649
0.0026960298
0.0028972396
0.0030955731
0.0032893797
0.0034774289
0.0036587802
0.0038305035
0.0039928647
0.0041455134
0.0042878599
0.0044202846
0.0045428062
0.0046558352
0.0047598734
0.0048553547
0.0049428589
0.0050230457
0.0050962714
0.0051656782
0.0052147483
8.9264828e-06
8.7929452e-06
8.6594932e-06
8.5261758e-06
8.3930312e-06
8.2600815e-06
8.1273468e-06
7.9948562e-06
7.8626483e-06
7.7307695e-06
7.5992703e-06
7.4682021e-06
7.3376163e-06
7.2075643e-06
7.0780976e-06
6.9492674e-06
6.8211246e-06
6.6937202e-06
6.5671047e-06
6.4413287e-06
6.316443e-06
6.1924986e-06
6.0695471e-06
5.9476411e-06
5.8268347e-06
5.7071841e-06
5.588748e-06
5.4715885e-06
5.3557717e-06
5.2413688e-06
5.1284569e-06
5.0171203e-06
4.9074514e-06
4.7995526e-06
4.6935374e-06
4.5895331e-06
4.4876833e-06
4.3881507e-06
4.2911223e-06
4.1968148e-06
4.1054835e-06
4.0174325e-06
3.9330311e-06
3.8527374e-06
3.7771301e-06
3.7069589e-06
3.6432232e-06
3.5872893e-06
3.5410795e-06
3.5073628e-06
3.4902004e-06
3.4956728e-06
3.533123e-06
3.6171249e-06
3.7706098e-06
4.030419e-06
4.4566816e-06
5.1468669e-06
6.2584377e-06
8.042596e-06
1.0891173e-05
1.5397506e-05
2.2428391e-05
3.3197497e-05
4.9322875e-05
7.2830514e-05
0.00010609758
0.00015171573
0.00021226944
0.0002900583
0.00038670361
0.00050298832
0.00063861406
0.00079196564
0.00096100295
0.0011425996
0.0013333794
0.0015313725
0.0017319705
0.0019340689
0.0021374027
0.0023389221
0.0025390583
0.0027391953
0.0029380885
0.0031333675
0.0033235709
0.0035075433
0.0036835951
0.0038499625
0.0040070217
0.0041539319
0.0042909117
0.0044181851
0.0045359364
0.0046446663
0.0047449849
0.0048371586
0.0049248266
0.0049913009
8.9266979e-06
8.7930741e-06
8.659523e-06
8.526103e-06
8.3928604e-06
8.2598259e-06
8.1270264e-06
7.9944936e-06
7.8622667e-06
7.7303902e-06
7.5989127e-06
7.4678842e-06
7.3373551e-06
7.2073764e-06
7.077999e-06
6.9492735e-06
6.8212502e-06
6.6939789e-06
6.5675086e-06
6.4418876e-06
6.3171632e-06
6.1933819e-06
6.0705894e-06
5.9488303e-06
5.8281487e-06
5.7085881e-06
5.5901914e-06
5.4730016e-06
5.3570618e-06
5.2424158e-06
5.129108e-06
5.0171847e-06
4.9066942e-06
4.7976875e-06
4.6902192e-06
4.5843482e-06
4.480139e-06
4.3776628e-06
4.2769989e-06
4.178237e-06
4.0814791e-06
3.9868435e-06
3.8944686e-06
3.8045201e-06
3.7171994e-06
3.6327576e-06
3.5515163e-06
3.4739006e-06
3.4004887e-06
3.3320902e-06
3.2698687e-06
3.2155381e-06
3.1716902e-06
3.1423363e-06
3.1337916e-06
3.1562002e-06
3.2262678e-06
3.3713974e-06
3.6368084e-06
4.0972413e-06
4.8741996e-06
6.1617955e-06
8.2646349e-06
1.1648827e-05
1.7005688e-05
2.5321854e-05
3.794548e-05
5.6634939e-05
8.3529299e-05
0.00012108377
0.00017189941
0.00023848074
0.0003229401
0.00042658953
0.00054985717
0.00069194722
0.00085092124
0.0010246021
0.0012092558
0.0014020047
0.0016006571
0.0018004381
0.0020015888
0.0022025503
0.0024021395
0.0026000767
0.0027986226
0.0029944549
0.0031859359
0.003371676
0.003550712
0.0037203826
0.0038808277
0.0040316792
0.0041726018
0.0043039316
0.0044259938
0.0045389357
0.0046468167
0.0047330137
8.9269853e-06
8.793297e-06
8.659668e-06
8.5261627e-06
8.3928335e-06
8.2597179e-06
8.1268486e-06
7.994261e-06
7.8619945e-06
7.7300932e-06
7.5986044e-06
7.467577e-06
7.337061e-06
7.2071067e-06
7.0777648e-06
6.949086e-06
6.8211205e-06
6.6939182e-06
6.567528e-06
6.441998e-06
6.3173754e-06
6.1937061e-06
6.0710347e-06
5.9494045e-06
5.8288576e-06
5.7094345e-06
5.5911744e-06
5.4741151e-06
5.3582934e-06
5.2437445e-06
5.130503e-06
5.0186023e-06
4.9080756e-06
4.7989555e-06
4.6912747e-06
4.5850661e-06
4.4803638e-06
4.3772028e-06
4.2756203e-06
4.1756562e-06
4.0773537e-06
3.9807607e-06
3.8859313e-06
3.7929272e-06
3.7018207e-06
3.6126983e-06
3.5256665e-06
3.4408605e-06
3.3584577e-06
3.2786984e-06
3.2019184e-06
3.1286009e-06
3.0594619e-06
2.9955922e-06
2.9386936e-06
2.8914837e-06
2.8584132e-06
2.8468414e-06
2.8690465e-06
2.9457115e-06
3.1113268e-06
3.4227963e-06
3.9735674e-06
4.9137535e-06
6.4803311e-06
9.0394142e-06
1.3142743e-05
1.9596909e-05
2.953233e-05
4.4467357e-05
6.6342696e-05
9.7451188e-05
0.0001403674
0.0001977126
0.00027189927
0.00036476695
0.00047721617
0.00060921866
0.00075926672
0.00092506722
0.0011040877
0.0012922064
0.0014871435
0.0016852537
0.0018844745
0.0020844123
0.0022828317
0.0024799466
0.0026765941
0.0028721311
0.0030640854
0.0032509354
0.0034315878
0.0036042071
0.0037674631
0.0039215314
0.0040659974
0.0042008904
0.0043304116
0.0044384513
8.9273332e-06
8.7935984e-06
8.6599095e-06
8.526335e-06
8.3929316e-06
8.2597427e-06
8.126806e-06
7.99416e-06
7.8618456e-06
7.7299068e-06
7.59839e-06
7.4673436e-06
7.336817e-06
7.20686e-06
7.0775232e-06
6.9488571e-06
6.8209118e-06
6.6937371e-06
6.5673823e-06
6.4418954e-06
6.3173238e-06
6.1937135e-06
6.0711092e-06
5.9495543e-06
5.8290907e-06
5.7097586e-06
5.5915968e-06
5.4746422e-06
5.3589302e-06
5.2444944e-06
5.1313668e-06
5.0195778e-06
4.909156e-06
4.8001288e-06
4.6925221e-06
4.5863605e-06
4.4816676e-06
4.3784663e-06
4.2767786e-06
4.1766263e-06
4.0780314e-06
3.981016e-06
3.8856033e-06
3.7918179e-06
3.6996869e-06
3.6092406e-06
3.5205145e-06
3.4335515e-06
3.3484055e-06
3.2651473e-06
3.1838728e-06
3.104717e-06
3.0278753e-06
2.9536406e-06
2.8824638e-06
2.8150574e-06
2.7525784e-06
2.6969375e-06
2.6513348e-06
2.6211987e-06
2.6157451e-06
2.650534e-06
2.7518703e-06
2.9634228e-06
3.3568302e-06
4.0484798e-06
5.2231635e-06
7.170298e-06
1.0332981e-05
1.5372682e-05
2.3245306e-05
3.5269323e-05
5.3186698e-05
7.9161525e-05
0.00011568986
0.00016547029
0.00023110592
0.0003148404
0.00041806251
0.00054108603
0.00068320146
0.00084212181
0.0010152885
0.0011991885
0.0013905858
0.0015872201
0.0017843902
0.0019825653
0.0021798341
0.0023758985
0.0025706814
0.0027653853
0.0029572324
0.0031447509
0.0033265645
0.0035013995
0.003667142
0.0038239049
0.0039754734
0.0041068287
8.9277317e-06
8.7939642e-06
8.6602303e-06
8.5266004e-06
8.3931348e-06
8.2598813e-06
8.1268822e-06
7.994179e-06
7.8618142e-06
7.7298323e-06
7.5982796e-06
7.467204e-06
7.3366544e-06
7.2066805e-06
7.0773324e-06
6.9486604e-06
6.8207146e-06
6.6935447e-06
6.5671997e-06
6.4417279e-06
6.3171765e-06
6.1935919e-06
6.0710187e-06
5.9495005e-06
5.8290794e-06
5.7097958e-06
5.5916885e-06
5.4747945e-06
5.3591492e-06
5.2447862e-06
5.131737e-06
5.0200316e-06
4.909698e-06
4.8007622e-06
4.6932486e-06
4.5871797e-06
4.4825765e-06
4.379458e-06
4.2778419e-06
4.1777444e-06
4.0791803e-06
3.9821635e-06
3.8867065e-06
3.7928215e-06
3.7005199e-06
3.6098134e-06
3.5207137e-06
3.4332338e-06
3.3473889e-06
3.2631981e-06
3.1806864e-06
3.0998884e-06