/*--------------------------------*- C++ -*----------------------------------*\
| =========                 |                                                 |
| \\      /  F ield         | OpenFOAM: The Open Source CFD Toolbox           |
|  \\    /   O peration     | Version:  2206                                  |
|   \\  /    A nd           | Website:  www.openfoam.com                      |
|    \\/     M anipulation  |                                                 |
\*---------------------------------------------------------------------------*/
FoamFile
{
    version     2.0;
    format      ascii;
    arch        "LSB;label=32;scalar=64";
    class       volScalarField;
    location    "200";
    object      nut;
}
// * * * * * * * * * * * * * * * * * * * * * * * * * * * * * * * * * * * * * //

dimensions      [0 2 -1 0 0 0 0];

internalField   nonuniform List<scalar> 
7480
(
1.51201e-06
1.8586526e-06
1.5440519e-06
1.0160478e-06
6.0448933e-07
3.7087395e-07
2.5852566e-07
2.0375151e-07
1.7337398e-07
1.5358779e-07
1.3830058e-07
1.2518709e-07
1.1376039e-07
1.0387334e-07
9.5299454e-08
8.7822159e-08
8.1294788e-08
7.5564258e-08
7.046493e-08
6.5894121e-08
6.178979e-08
5.8084248e-08
5.4715222e-08
5.1643406e-08
4.8837646e-08
4.6264235e-08
4.3893233e-08
4.1705604e-08
3.968629e-08
3.7818066e-08
3.6085933e-08
3.4480103e-08
3.2991975e-08
3.1611941e-08
3.0331934e-08
2.914648e-08
2.8050591e-08
2.7039377e-08
2.6109522e-08
2.5259376e-08
2.4487554e-08
2.3792616e-08
2.3174543e-08
2.2633557e-08
2.2170942e-08
2.1792058e-08
2.1500291e-08
2.1302443e-08
2.1197041e-08
2.1182127e-08
2.1254875e-08
2.1411393e-08
2.1643457e-08
2.1936036e-08
2.2274392e-08
2.2648368e-08
2.3035615e-08
2.3402582e-08
2.3717911e-08
2.3957367e-08
2.4117403e-08
2.4200303e-08
2.4213485e-08
2.4167148e-08
2.407423e-08
2.3946516e-08
2.3794389e-08
2.362615e-08
2.3447754e-08
2.3263623e-08
2.3077124e-08
2.2890237e-08
2.2704229e-08
2.2520446e-08
2.2339217e-08
2.2160726e-08
2.1985039e-08
2.1804898e-08
2.1620925e-08
2.1435294e-08
2.124888e-08
2.1062116e-08
2.0874283e-08
2.068511e-08
2.0494533e-08
2.0302512e-08
2.010935e-08
1.9915129e-08
1.9720288e-08
1.9524974e-08
1.9329492e-08
1.9133969e-08
1.8938843e-08
1.8743027e-08
1.8549766e-08
1.8347235e-08
1.8170655e-08
1.7916074e-08
1.7772778e-08
1.7384794e-08
1.4110921e-06
1.6300692e-06
1.5384687e-06
1.2880015e-06
1.0361344e-06
8.1126691e-07
6.4375952e-07
5.1797021e-07
4.2141154e-07
3.4674374e-07
2.8963123e-07
2.4635942e-07
2.1349877e-07
1.8820642e-07
1.683293e-07
1.5234061e-07
1.3920368e-07
1.2818648e-07
1.1878342e-07
1.1066107e-07
1.0359279e-07
9.7402501e-08
9.1956334e-08
8.7156193e-08
8.2830792e-08
7.8899527e-08
7.5318677e-08
7.2066392e-08
6.912936e-08
6.6495738e-08
6.4157947e-08
6.2113582e-08
6.0361449e-08
5.8900429e-08
5.7732043e-08
5.6861034e-08
5.6294375e-08
5.6044155e-08
5.6130767e-08
5.6583429e-08
5.7439033e-08
5.8742727e-08
6.0550144e-08
6.2926292e-08
6.5950519e-08
6.9705436e-08
7.4257991e-08
7.9651013e-08
8.5898636e-08
9.2995288e-08
1.0091353e-07
1.0964998e-07
1.1901306e-07
1.2878082e-07
1.3873868e-07
1.4856743e-07
1.5779413e-07
1.6599167e-07
1.7290246e-07
1.7849375e-07
1.8287942e-07
1.8625721e-07
1.8881678e-07
1.9062834e-07
1.9185625e-07
1.9264503e-07
1.9310865e-07
1.9333068e-07
1.9337212e-07
1.9327731e-07
1.930769e-07
1.9278957e-07
1.9243249e-07
1.9201888e-07
1.9155341e-07
1.9103688e-07
1.9045407e-07
1.8965247e-07
1.8869709e-07
1.8764039e-07
1.8649933e-07
1.8527864e-07
1.839799e-07
1.8260864e-07
1.811698e-07
1.7967106e-07
1.7811983e-07
1.7652364e-07
1.7489069e-07
1.7322763e-07
1.7154123e-07
1.698374e-07
1.6812197e-07
1.6639864e-07
1.6466978e-07
1.629364e-07
1.6122206e-07
1.5927082e-07
1.579035e-07
1.5465059e-07
1.1013832e-06
1.4047698e-06
1.4358285e-06
1.3409529e-06
1.2075972e-06
1.0740704e-06
9.6687895e-07
8.8441513e-07
8.2032576e-07
7.680682e-07
7.2390395e-07
6.796738e-07
6.3736444e-07
6.0223697e-07
5.7250706e-07
5.4696737e-07
5.2493541e-07
5.0591988e-07
4.8956129e-07
4.7562221e-07
4.6393926e-07
4.5437505e-07
4.4683183e-07
4.4120444e-07
4.3360854e-07
4.2647677e-07
4.1997891e-07
4.1432352e-07
4.0971645e-07
4.0635577e-07
4.044531e-07
4.0422856e-07
4.0589518e-07
4.0966678e-07
4.1577246e-07
4.2445325e-07
4.3597083e-07
4.5065966e-07
4.6895258e-07
4.9138374e-07
5.1858655e-07
5.5130642e-07
5.9041619e-07
6.3691023e-07
6.9196043e-07
7.5668741e-07
8.3197684e-07
9.1829127e-07
1.0157278e-06
1.1240786e-06
1.242356e-06
1.3697473e-06
1.5043323e-06
1.6431526e-06
1.7832837e-06
1.9203858e-06
2.0485461e-06
2.1627187e-06
2.2601243e-06
2.3406707e-06
2.4059655e-06
2.4587305e-06
2.4999396e-06
2.5316643e-06
2.5561903e-06
2.5753044e-06
2.5903681e-06
2.6023537e-06
2.6119608e-06
2.6196924e-06
2.6258866e-06
2.6307433e-06
2.6344621e-06
2.6371909e-06
2.6389747e-06
2.6398128e-06
2.6394824e-06
2.6357048e-06
2.6295764e-06
2.6218534e-06
2.612768e-06
2.6023855e-06
2.5907416e-06
2.5779266e-06
2.5640175e-06
2.5491287e-06
2.5333651e-06
2.5168344e-06
2.4996493e-06
2.4819034e-06
2.4636908e-06
2.445096e-06
2.4261966e-06
2.4070703e-06
2.3876869e-06
2.3683058e-06
2.3485778e-06
2.3266354e-06
2.3112552e-06
2.2731417e-06
5.0848042e-07
9.5917213e-07
1.1798072e-06
1.2284669e-06
1.2004097e-06
1.1428864e-06
1.0803873e-06
1.0213345e-06
9.698687e-07
9.3007139e-07
9.0612605e-07
9.0235793e-07
9.0579041e-07
8.5769414e-07
8.2199158e-07
7.945759e-07
7.7457061e-07
7.6007353e-07
7.5005808e-07
7.4388923e-07
7.4116556e-07
7.4160203e-07
7.450306e-07
7.5129339e-07
7.5986179e-07
7.7022191e-07
7.8223847e-07
7.9612875e-07
8.1228308e-07
8.3117979e-07
8.5336813e-07
8.794638e-07
9.1013971e-07
9.4612793e-07
9.8822661e-07
1.037292e-06
1.0942932e-06
1.1605027e-06
1.2375113e-06
1.3272161e-06
1.4318167e-06
1.5538341e-06
1.6961393e-06
1.8619599e-06
2.0548728e-06
2.2782913e-06
2.5344933e-06
2.8250556e-06
3.1504344e-06
3.5100362e-06
3.9019527e-06
4.3202619e-06
4.7616495e-06
5.2183998e-06
5.6820622e-06
6.1409877e-06
6.5800494e-06
6.985311e-06
7.3477841e-06
7.6645475e-06
7.938178e-06
8.1725721e-06
8.3703633e-06
8.538534e-06
8.6835039e-06
8.8105621e-06
8.923856e-06
9.0264357e-06
9.1204823e-06
9.2075366e-06
9.2886295e-06
9.3643587e-06
9.4352389e-06
9.5016657e-06
9.5637407e-06
9.6213952e-06
9.6741488e-06
9.7002425e-06
9.715392e-06
9.7242795e-06
9.7276248e-06
9.7256903e-06
9.718643e-06
9.7068082e-06
9.6904863e-06
9.6700833e-06
9.6459759e-06
9.6185434e-06
9.5881783e-06
9.5552129e-06
9.5199677e-06
9.4827502e-06
9.4438256e-06
9.4035028e-06
9.3616278e-06
9.3193712e-06
9.2747477e-06
9.2242941e-06
9.1899929e-06
9.0977986e-06
2.2507858e-07
4.2728112e-07
6.9866844e-07
8.933386e-07
9.8970755e-07
1.023529e-06
1.0250476e-06
1.0107566e-06
9.8912512e-07
9.6536051e-07
9.4377537e-07
9.287727e-07
9.2202931e-07
9.2308192e-07
9.3205145e-07
9.4903792e-07
9.6935226e-07
9.5335693e-07
9.29733e-07
9.1688444e-07
9.1369624e-07
9.1852081e-07
9.3044011e-07
9.4882813e-07
9.7332616e-07
1.0037668e-06
1.0384866e-06
1.0775434e-06
1.1214791e-06
1.1708264e-06
1.226188e-06
1.2882982e-06
1.3580673e-06
1.4366168e-06
1.5253125e-06
1.6257681e-06
1.7396232e-06
1.8685103e-06
2.0151864e-06
2.1829816e-06
2.3756971e-06
2.5976069e-06
2.8534929e-06
3.1486869e-06
3.4889424e-06
3.879246e-06
4.3214967e-06
4.8170369e-06
5.3664239e-06
5.9694985e-06
6.6246192e-06
7.3267848e-06
8.0666367e-06
8.8345204e-06
9.6197557e-06
1.0408532e-05
1.1177046e-05
1.1902038e-05
1.256886e-05
1.317138e-05
1.37084e-05
1.4182617e-05
1.4600319e-05
1.4969933e-05
1.5300059e-05
1.5598357e-05
1.5871279e-05
1.6123896e-05
1.6359997e-05
1.6582346e-05
1.6792771e-05
1.6992234e-05
1.7181902e-05
1.7362542e-05
1.7534316e-05
1.7697026e-05
1.7849807e-05
1.7986859e-05
1.810814e-05
1.8215168e-05
1.8309011e-05
1.8390265e-05
1.8459284e-05
1.8516642e-05
1.8562975e-05
1.8599091e-05
1.8625815e-05
1.8643963e-05
1.8654396e-05
1.8657879e-05
1.8655071e-05
1.8646698e-05
1.8633406e-05
1.8615847e-05
1.8594062e-05
1.8569635e-05
1.8541128e-05
1.849999e-05
1.8479033e-05
1.8401973e-05
1.7530597e-07
2.1589131e-07
3.1858457e-07
4.6497435e-07
6.0528011e-07
7.1036209e-07
7.7989891e-07
8.2294117e-07
8.4805016e-07
8.6130889e-07
8.6700412e-07
8.6871967e-07
8.6925752e-07
8.7064869e-07
8.7465353e-07
8.8294996e-07
8.9637917e-07
9.1558354e-07
9.4166861e-07
9.7589565e-07
1.0156915e-06
1.0618825e-06
1.0570961e-06
1.0562957e-06
1.0671257e-06
1.0882767e-06
1.1197255e-06
1.1617797e-06
1.2149238e-06
1.2798651e-06
1.3575736e-06
1.4493788e-06
1.5572072e-06
1.6840859e-06
1.8350878e-06
2.0182451e-06
2.2360625e-06
2.4752983e-06
2.7409274e-06
3.0386269e-06
3.3741884e-06
3.7537235e-06
4.1839767e-06
4.6728386e-06
5.2302944e-06
5.8556505e-06
6.5396684e-06
7.2801558e-06
8.0788257e-06
8.9368218e-06
9.8531946e-06
1.0823396e-05
1.1837613e-05
1.2882458e-05
1.3946666e-05
1.4998116e-05
1.6005961e-05
1.6954898e-05
1.7838525e-05
1.8656102e-05
1.9409932e-05
2.010313e-05
2.0740323e-05
2.1327777e-05
2.1872133e-05
2.2379842e-05
2.2857009e-05
2.3308796e-05
2.3739235e-05
2.4151464e-05
2.4546558e-05
2.4924092e-05
2.5288877e-05
2.5641621e-05
2.5982121e-05
2.6309678e-05
2.66226e-05
2.6919071e-05
2.7195877e-05
2.7451621e-05
2.7686217e-05
2.7899911e-05
2.8092922e-05
2.8265819e-05
2.8419377e-05
2.8554668e-05
2.8672878e-05
2.8775237e-05
2.8863091e-05
2.8937699e-05
2.8999529e-05
2.9050313e-05
2.9091311e-05
2.912357e-05
2.9147545e-05
2.9164842e-05
2.9175854e-05
2.9165403e-05
2.9175312e-05
2.9133739e-05
1.6890599e-07
1.7480219e-07
1.9623027e-07
2.4160082e-07
3.0837902e-07
3.839589e-07
4.5675579e-07
5.2099141e-07
5.7524757e-07
6.1999365e-07
6.5628036e-07
6.8544376e-07
7.0895576e-07
7.2826692e-07
7.4483232e-07
7.6012937e-07
7.7549502e-07
7.9216705e-07
8.1147864e-07
8.3493038e-07
8.6347958e-07
8.9848573e-07
9.4053428e-07
9.8988698e-07
1.0450493e-06
1.1061701e-06
1.1742012e-06
1.2083554e-06
1.2332981e-06
1.2729382e-06
1.3285628e-06
1.4020621e-06
1.4959027e-06
1.6130983e-06
1.7575818e-06
1.9348503e-06
2.1514619e-06
2.4125516e-06
2.7239469e-06
3.0928463e-06
3.5278618e-06
4.0394113e-06
4.6409044e-06
5.3517723e-06
6.2046725e-06
6.9698162e-06
7.8052396e-06
8.7628038e-06
9.8401333e-06
1.1030961e-05
1.2322469e-05
1.3691307e-05
1.5104157e-05
1.6564366e-05
1.8073965e-05
1.917839e-05
2.009601e-05
2.1003852e-05
2.1905035e-05
2.2798334e-05
2.367878e-05
2.4541399e-05
2.5382489e-05
2.6199544e-05
2.6991029e-05
2.775746e-05
2.8500635e-05
2.9222169e-05
2.9923652e-05
3.0606837e-05
3.1272965e-05
3.1922304e-05
3.2555336e-05
3.3172141e-05
3.3771902e-05
3.4353312e-05
3.4913916e-05
3.5451995e-05
3.5964477e-05
3.6448438e-05
3.6902219e-05
3.732513e-05
3.7716927e-05
3.8077954e-05
3.8408976e-05
3.8711204e-05
3.8986097e-05
3.9235257e-05
3.9460532e-05
3.9663723e-05
3.9846541e-05
4.0010729e-05
4.0157931e-05
4.0289642e-05
4.0406979e-05
4.0511272e-05
4.0605688e-05
4.0668941e-05
4.0745473e-05
4.0790116e-05
1.6818108e-07
1.6866196e-07
1.7195866e-07
1.812627e-07
1.9895951e-07
2.2490927e-07
2.5729484e-07
2.9359739e-07
3.318373e-07
3.7055633e-07
4.0859171e-07
4.4503166e-07
4.7927398e-07
5.1100054e-07
5.4018952e-07
5.6710257e-07
5.9219628e-07
6.160532e-07
6.3939933e-07
6.6312378e-07
6.8815323e-07
7.1554896e-07
7.4638979e-07
7.8174439e-07
8.2237315e-07
8.6921893e-07
9.235916e-07
9.8586615e-07
1.0558773e-06
1.1348176e-06
1.2243921e-06
1.3267453e-06
1.4276205e-06
1.4948563e-06
1.5856797e-06
1.7047839e-06
1.858444e-06
2.0547226e-06
2.3033954e-06
2.6161235e-06
3.0069564e-06
3.4927507e-06
4.0934608e-06
4.8325455e-06
5.7386478e-06
6.7101235e-06
7.7079284e-06
8.8174317e-06
1.0050106e-05
1.1406091e-05
1.287013e-05
1.4407331e-05
1.5972163e-05
1.7627288e-05
1.9393236e-05
2.0670136e-05
2.1768893e-05
2.2850176e-05
2.3924621e-05
2.5000614e-05
2.6080601e-05
2.716547e-05
2.8250336e-05
2.9329866e-05
3.0400615e-05
3.1461388e-05
3.2510662e-05
3.3546273e-05
3.456766e-05
3.5575121e-05
3.6568224e-05
3.7546195e-05
3.8508102e-05
3.9452657e-05
4.0377577e-05
4.1280408e-05
4.21577e-05
4.3006355e-05
4.3823273e-05
4.4604967e-05
4.5348436e-05
4.6051688e-05
4.6713578e-05
4.7333815e-05
4.7912821e-05
4.8451639e-05
4.8951695e-05
4.941472e-05
4.9842896e-05
5.023844e-05
5.0603762e-05
5.0941045e-05
5.1252368e-05
5.1539634e-05
5.180475e-05
5.2048582e-05
5.227727e-05
5.2465534e-05
5.265281e-05
5.2845684e-05
1.6814565e-07
1.6787304e-07
1.6803257e-07
1.6934733e-07
1.727148e-07
1.7877507e-07
1.8775993e-07
1.9961492e-07
2.1420215e-07
2.3140442e-07
2.5108725e-07
2.7275721e-07
2.9594541e-07
3.2017899e-07
3.4502171e-07
3.701238e-07
3.9523761e-07
4.2021694e-07
4.4504147e-07
4.6983774e-07
4.9486081e-07
5.2049823e-07
5.4727066e-07
5.7582409e-07
6.0686327e-07
6.4119472e-07
6.7980518e-07
7.2367026e-07
7.736812e-07
8.3099828e-07
8.9717085e-07
9.7363232e-07
1.0618957e-06
1.1633231e-06
1.280125e-06
1.4151742e-06
1.5722644e-06
1.7565391e-06
1.9284661e-06
2.1213737e-06
2.3731028e-06
2.7009889e-06
3.1275735e-06
3.6822034e-06
4.4019119e-06
5.3213052e-06
6.2976687e-06
7.3656267e-06
8.5760073e-06
9.9380835e-06
1.14535e-05
1.3111504e-05
1.4888244e-05
1.6777263e-05
1.8775241e-05
2.0624771e-05
2.1909636e-05
2.3190028e-05
2.4438453e-05
2.5675485e-05
2.6933762e-05
2.8217579e-05
2.9508997e-05
3.0810212e-05
3.2127275e-05
3.3455698e-05
3.4789877e-05
3.6126509e-05
3.7464916e-05
3.8802938e-05
4.0136749e-05
4.146427e-05
4.278365e-05
4.4091491e-05
4.5382702e-05
4.6652882e-05
4.7896743e-05
4.910905e-05
5.0285719e-05
5.1422612e-05
5.2515547e-05
5.3561204e-05
5.4557233e-05
5.5502217e-05
5.6395825e-05
5.7238525e-05
5.8031249e-05
5.8775476e-05
5.9473401e-05
6.0127381e-05
6.0740112e-05
6.1314192e-05
6.1852069e-05
6.2355958e-05
6.2828546e-05
6.3270146e-05
6.3689546e-05
6.4059989e-05
6.4409684e-05
6.4820816e-05
1.6818996e-07
1.6781426e-07
1.6749288e-07
1.6735585e-07
1.676186e-07
1.6851682e-07
1.7024732e-07
1.7296424e-07
1.76807e-07
1.8191582e-07
1.8842185e-07
1.9640384e-07
2.0589367e-07
2.1687397e-07
2.2935868e-07
2.4329904e-07
2.585248e-07
2.7487695e-07
2.9222762e-07
3.1048791e-07
3.2961708e-07
3.496352e-07
3.7063512e-07
3.9279593e-07
4.1638118e-07
4.4174822e-07
4.6937661e-07
4.9985743e-07
5.3387392e-07
5.7224706e-07
6.1600492e-07
6.6634018e-07
7.2463637e-07
7.92466e-07
8.7178515e-07
9.6455931e-07
1.0735216e-06
1.2022617e-06
1.3545591e-06
1.5353188e-06
1.7515398e-06
2.0125854e-06
2.3306685e-06
2.7214357e-06
3.1865914e-06
3.7661981e-06
4.5195038e-06
5.3773485e-06
6.3845592e-06
7.5556177e-06
8.9028911e-06
1.0432621e-05
1.2141212e-05
1.402335e-05
1.6074631e-05
1.8246187e-05
2.0452893e-05
2.2483807e-05
2.3873617e-05
2.5255673e-05
2.666034e-05
2.8074624e-05
2.9488951e-05
3.0935375e-05
3.2434508e-05
3.3955301e-05
3.5497664e-05
3.7071067e-05
3.8671875e-05
4.0292748e-05
4.1929253e-05
4.3581276e-05
4.5244173e-05
4.6911423e-05
4.8574241e-05
5.0225458e-05
5.1856538e-05
5.3459907e-05
5.5029797e-05
5.6560304e-05
5.8045707e-05
5.9481373e-05
6.0863306e-05
6.2188371e-05
6.3454985e-05
6.4662472e-05
6.5810646e-05
6.6900194e-05
6.7932778e-05
6.8910427e-05
6.9835677e-05
7.0711215e-05
7.1539649e-05
7.2323324e-05
7.3065556e-05
7.3766054e-05
7.4435642e-05
7.5048204e-05
7.5616976e-05
7.6320355e-05
1.682435e-07
1.678509e-07
1.674597e-07
1.6708854e-07
1.6677837e-07
1.665872e-07
1.665798e-07
1.6682352e-07
1.6739147e-07
1.6836559e-07
1.6983538e-07
1.7189164e-07
1.7462232e-07
1.7810775e-07
1.8242417e-07
1.876386e-07
1.9379874e-07
2.0093531e-07
2.0906702e-07
2.1820664e-07
2.2839413e-07
2.3971388e-07
2.521845e-07
2.6581275e-07
2.8065006e-07
2.9680297e-07
3.1444179e-07
3.3381456e-07
3.5525394e-07
3.7918373e-07
4.0614526e-07
4.3681438e-07
4.7202771e-07
5.1281063e-07
5.6044031e-07
6.1642266e-07
6.8264271e-07
7.6152452e-07
8.5601232e-07
9.6945592e-07
1.106446e-06
1.2730261e-06
1.4771582e-06
1.729288e-06
2.0426493e-06
2.4337108e-06
2.9206576e-06
3.5194655e-06
4.2474791e-06
5.1232365e-06
6.1659024e-06
7.3935154e-06
8.820134e-06
1.0455876e-05
1.2308106e-05
1.4363958e-05
1.6579255e-05
1.8900187e-05
2.1256817e-05
2.3634414e-05
2.5606181e-05
2.7113922e-05
2.8631208e-05
3.0183665e-05
3.1769628e-05
3.3372159e-05
3.5018581e-05
3.6741563e-05
3.8507919e-05
4.0312567e-05
4.2167174e-05
4.407317e-05
4.601646e-05
4.7987268e-05
4.9977815e-05
5.1977162e-05
5.397281e-05
5.5956351e-05
5.791937e-05
5.9852313e-05
6.1747653e-05
6.3598891e-05
6.5399285e-05
6.7143368e-05
6.8827566e-05
7.0449118e-05
7.2006025e-05
7.3497421e-05
7.4923552e-05
7.6285406e-05
7.758477e-05
7.8823843e-05
8.0005059e-05
8.1130535e-05
8.2203947e-05
8.3224301e-05
8.4203763e-05
8.5118241e-05
8.5964773e-05
8.7034282e-05
1.6834522e-07
1.6795306e-07
1.675546e-07
1.6715121e-07
1.6674935e-07
1.6636051e-07
1.6600054e-07
1.6568905e-07
1.6544989e-07
1.6531194e-07
1.6530952e-07
1.6548204e-07
1.658735e-07
1.6653155e-07
1.6750696e-07
1.68853e-07
1.7062373e-07
1.7287241e-07
1.7565079e-07
1.7900921e-07
1.8299909e-07
1.8767664e-07
1.9309665e-07
1.9931284e-07
2.0638291e-07
2.1437407e-07
2.2337552e-07
2.3354843e-07
2.4509607e-07
2.5818054e-07
2.7299973e-07
2.8984027e-07
3.0909395e-07
3.3127678e-07
3.5706218e-07
3.8729454e-07
4.2303489e-07
4.656457e-07
5.1686574e-07
5.7885513e-07
6.5441562e-07
7.4724199e-07
8.6220143e-07
1.0056379e-06
1.1860695e-06
1.414643e-06
1.7052499e-06
2.0735766e-06
2.5371666e-06
3.1153168e-06
3.8289101e-06
4.6999322e-06
5.7504081e-06
7.0016237e-06
8.4739735e-06
1.0180467e-05
1.2116468e-05
1.4259675e-05
1.6566036e-05
1.9000504e-05
2.1510847e-05
2.4054413e-05
2.6628788e-05
2.8806806e-05
3.0461169e-05
3.2134277e-05
3.3855776e-05
3.5628026e-05
3.7435218e-05
3.9302158e-05
4.127044e-05
4.3313141e-05
4.5415331e-05
4.7584045e-05
4.980809e-05
5.2069959e-05
5.4359448e-05
5.6668851e-05
5.8983563e-05
6.1290144e-05
6.3580131e-05
6.5842911e-05
6.8067686e-05
7.0246583e-05
7.2372873e-05
7.4440324e-05
7.6444267e-05
7.8381244e-05
8.024902e-05
8.2046664e-05
8.3774391e-05
8.5433113e-05
8.7024448e-05
8.8549774e-05
9.0012705e-05
9.1411299e-05
9.2758371e-05
9.4032428e-05
9.5215333e-05
9.6721565e-05
1.6852036e-07
1.6817126e-07
1.6780863e-07
1.6743204e-07
1.6704286e-07
1.6664379e-07
1.6623891e-07
1.6583362e-07
1.6543475e-07
1.6505079e-07
1.6469227e-07
1.643721e-07
1.641058e-07
1.6391176e-07
1.6381123e-07
1.638285e-07
1.6399077e-07
1.6432793e-07
1.6487232e-07
1.6565857e-07
1.6672365e-07
1.6810708e-07
1.6985085e-07
1.7199937e-07
1.7459977e-07
1.7770268e-07
1.8136484e-07
1.8565612e-07
1.906623e-07
1.9648039e-07
2.0322406e-07
2.1103343e-07
2.2008706e-07
2.3065859e-07
2.4312693e-07
2.5784307e-07
2.752373e-07
2.9591293e-07
3.2068794e-07
3.5064567e-07
3.8720835e-07
4.3225757e-07
4.8830662e-07
5.587308e-07
6.4814791e-07
7.6289596e-07
9.1150203e-07
1.1049416e-06
1.3570875e-06
1.6848209e-06
2.1079908e-06
2.6490396e-06
3.3322331e-06
4.1827006e-06
5.2259029e-06
6.4857465e-06
7.979845e-06
9.7154865e-06
1.1684352e-05
1.3870117e-05
1.624157e-05
1.8760472e-05
2.1401326e-05
2.4121038e-05
2.6880403e-05
2.9683008e-05
3.2159368e-05
3.3989763e-05
3.5843285e-05
3.7758593e-05
3.9740198e-05
4.1769245e-05
4.3878229e-05
4.6120625e-05
4.844156e-05
5.0831868e-05
5.3304711e-05
5.5840761e-05
5.8417229e-05
6.1024929e-05
6.3653212e-05
6.6283056e-05
6.8901376e-05
7.1498059e-05
7.4060898e-05
7.6579375e-05
7.9045284e-05
8.1451145e-05
8.3791198e-05
8.6061595e-05
8.8259795e-05
9.0384335e-05
9.2435033e-05
9.4411726e-05
9.6317229e-05
9.814813e-05
9.9917119e-05
0.00010160516
0.00010318191
0.00010519004
1.6867652e-07
1.6839193e-07
1.6809283e-07
1.6777778e-07
1.6744666e-07
1.6710015e-07
1.6673956e-07
1.6636668e-07
1.6598357e-07
1.6559259e-07
1.6519655e-07
1.6479896e-07
1.6440426e-07
1.6401805e-07
1.636473e-07
1.6330053e-07
1.6298797e-07
1.6272168e-07
1.6251569e-07
1.6238608e-07
1.6235107e-07
1.6243111e-07
1.6264898e-07
1.6302993e-07
1.6360175e-07
1.6439491e-07
1.6544314e-07
1.6678453e-07
1.684627e-07
1.7052763e-07
1.7303725e-07
1.7605992e-07
1.7967766e-07
1.8399551e-07
1.8915129e-07
1.95311e-07
2.0267738e-07
2.1150899e-07
2.2215923e-07
2.3518351e-07
2.5119265e-07
2.7089802e-07
2.9532171e-07
3.2590536e-07
3.6467985e-07
4.1449821e-07
4.7936655e-07
5.6486826e-07
6.7873737e-07
8.3151758e-07
1.0372393e-06
1.3139887e-06
1.6843037e-06
2.1747105e-06
2.814526e-06
3.6337349e-06
4.6596934e-06
5.9135482e-06
7.4072921e-06
9.1452735e-06
1.1122328e-05
1.332423e-05
1.5734898e-05
1.8327044e-05
2.106581e-05
2.393102e-05
2.6888352e-05
2.989513e-05
3.2959743e-05
3.5738465e-05
3.7770251e-05
3.9818576e-05
4.1936274e-05
4.4133096e-05
4.6389666e-05
4.8757433e-05
5.1280842e-05
5.3891201e-05
5.6587425e-05
5.937932e-05
6.2237262e-05
6.5137378e-05
6.8072589e-05
7.1025987e-05
7.3977561e-05
7.6914496e-05
7.9823098e-05
8.2690607e-05
8.5507186e-05
8.8264755e-05
9.0956471e-05
9.3577171e-05
9.6123554e-05
9.8592693e-05
0.00010098545
0.00010329607
0.00010553607
0.0001076881
0.00010971408
0.00011228192
1.687687e-07
1.6852906e-07
1.682791e-07
1.6801704e-07
1.6774193e-07
1.6745342e-07
1.6715165e-07
1.6683718e-07
1.6651066e-07
1.6617274e-07
1.6582403e-07
1.6546518e-07
1.6509706e-07
1.6472086e-07
1.643382e-07
1.6395126e-07
1.6356288e-07
1.6317672e-07
1.6279731e-07
1.6243028e-07
1.620824e-07
1.6176176e-07
1.6147788e-07
1.6124187e-07
1.6106658e-07
1.609667e-07
1.6095898e-07
1.6106253e-07
1.6129917e-07
1.6169384e-07
1.6227522e-07
1.6307653e-07
1.6413651e-07
1.655014e-07
1.6722784e-07
1.6938515e-07
1.7205824e-07
1.7535259e-07
1.7940357e-07
1.8439638e-07
1.9056798e-07
1.9821696e-07
2.0773879e-07
2.1969154e-07
2.3496658e-07
2.5460355e-07
2.8001899e-07
3.1335007e-07
3.5775236e-07
4.1782608e-07
5.0020471e-07
6.1438365e-07
7.7381761e-07
9.9710967e-07
1.3089488e-06
1.7401329e-06
2.3259382e-06
3.1014508e-06
4.0954845e-06
5.3268556e-06
6.8039283e-06
8.5272878e-06
1.0495067e-05
1.2700808e-05
1.5131073e-05
1.7772316e-05
2.0602141e-05
2.3586441e-05
2.6708116e-05
2.9937776e-05
3.3229192e-05
3.6593704e-05
3.9600276e-05
4.1820543e-05
4.4075798e-05
4.641779e-05
4.8848881e-05
5.1347751e-05
5.4008936e-05
5.6835816e-05
5.9753061e-05
6.2776443e-05
6.5904557e-05
6.9098769e-05
7.233909e-05
7.5614661e-05
7.8900599e-05
8.218084e-05
8.5441285e-05
8.8667435e-05
9.1846954e-05
9.4969509e-05
9.8027266e-05
0.00010101285
0.00010392371
0.00010675045
0.00010950201
0.00011216147
0.00011468764
0.00011786304
1.6881499e-07
1.685987e-07
1.6837578e-07
1.6814482e-07
1.6790483e-07
1.6765515e-07
1.6739548e-07
1.6712587e-07
1.6684653e-07
1.6655763e-07
1.6625925e-07
1.6595138e-07
1.6563398e-07
1.6530703e-07
1.649706e-07
1.646249e-07
1.642703e-07
1.6390742e-07
1.6353721e-07
1.6316096e-07
1.6278043e-07
1.6239793e-07
1.6201639e-07
1.6163949e-07
1.6127174e-07
1.6091864e-07
1.6058676e-07
1.6028394e-07
1.6001942e-07
1.5980407e-07
1.5965063e-07
1.5957404e-07
1.5959179e-07
1.5972447e-07
1.5999662e-07
1.6043768e-07
1.610832e-07
1.6197642e-07
1.6317084e-07
1.6473472e-07
1.6675526e-07
1.6934368e-07
1.7264451e-07
1.7685117e-07
1.8223926e-07
1.8917835e-07
1.9817374e-07
2.0995032e-07
2.2568494e-07
2.4705506e-07
2.7630611e-07
3.1695377e-07
3.7440508e-07
4.5686362e-07
5.7659581e-07
7.515807e-07
1.0072304e-06
1.3770239e-06
1.9005165e-06
2.6177234e-06
3.5614791e-06
4.7514243e-06
6.1950329e-06
7.8923194e-06
9.8403201e-06
1.2037533e-05
1.4480417e-05
1.7157366e-05
2.0056652e-05
2.3158446e-05
2.6427576e-05
2.9848229e-05
3.3387406e-05
3.6999171e-05
4.0697164e-05
4.3788382e-05
4.6217175e-05
4.8698357e-05
5.1286738e-05
5.3967403e-05
5.6736714e-05
5.9724161e-05
6.2873348e-05
6.6130827e-05
6.9508391e-05
7.2988257e-05
7.6529866e-05
8.0123413e-05
8.3747654e-05
8.7378912e-05
9.1000302e-05
9.4594326e-05
9.8147769e-05
0.00010164674
0.00010508399
0.00010844487
0.00011173385
0.00011493311
0.00011800044
0.00012181705
1.6883671e-07
1.6863119e-07
1.6842111e-07
1.682055e-07
1.6798362e-07
1.6775487e-07
1.6751889e-07
1.672756e-07
1.6702508e-07
1.6676741e-07
1.665026e-07
1.6623057e-07
1.6595116e-07
1.6566418e-07
1.6536942e-07
1.6506664e-07
1.6475568e-07
1.6443636e-07
1.641086e-07
1.637724e-07
1.6342788e-07
1.6307533e-07
1.6271523e-07
1.6234833e-07
1.6197568e-07
1.615987e-07
1.6121926e-07
1.6083979e-07
1.604633e-07
1.6009358e-07
1.5973524e-07
1.5939393e-07
1.5907646e-07
1.5879102e-07
1.585475e-07
1.5835779e-07
1.5823625e-07
1.5820029e-07
1.5827109e-07
1.5847489e-07
1.5884442e-07
1.5942085e-07
1.6025658e-07
1.6141961e-07
1.6300092e-07
1.6512301e-07
1.6795308e-07
1.7172521e-07
1.7678814e-07
1.8365632e-07
1.9307263e-07
2.0616276e-07
2.2479793e-07
2.5181611e-07
2.9140167e-07
3.5035867e-07
4.3948522e-07
5.7535756e-07
7.8229512e-07
1.0936094e-06
1.550511e-06
2.1972912e-06
3.0727448e-06
4.2025791e-06
5.596979e-06
7.2563173e-06
9.1786518e-06
1.1362743e-05
1.3810126e-05
1.6520246e-05
1.9481872e-05
2.2683309e-05
2.6102076e-05
2.9700855e-05
3.3464639e-05
3.7345807e-05
4.1311626e-05
4.5376201e-05
4.8386987e-05
5.1034154e-05
5.3762266e-05
5.6613859e-05
5.9554732e-05
6.2668588e-05
6.6002833e-05
6.9489129e-05
7.3109958e-05
7.6863579e-05
8.0714822e-05
8.4632238e-05
8.8598459e-05
9.2585157e-05
9.6574786e-05
0.00010054472
0.00010448271
0.00010836673
0.0001121948
0.00011594735
0.00011957634
0.0001240472
1.6884623e-07
1.6864533e-07
1.6844086e-07
1.6823219e-07
1.6801881e-07
1.6780023e-07
1.6757616e-07
1.6734653e-07
1.6711137e-07
1.6687077e-07
1.6662477e-07
1.6637335e-07
1.6611641e-07
1.6585382e-07
1.6558542e-07
1.6531099e-07
1.6503034e-07
1.6474322e-07
1.6444942e-07
1.641487e-07
1.6384085e-07
1.6352567e-07
1.63203e-07
1.6287276e-07
1.6253491e-07
1.6218954e-07
1.6183687e-07
1.6147728e-07
1.6111138e-07
1.6074005e-07
1.6036447e-07
1.5998623e-07
1.5960739e-07
1.5923059e-07
1.5885914e-07
1.5849717e-07
1.5814982e-07
1.5782343e-07
1.5752581e-07
1.5726664e-07
1.5705792e-07
1.5691462e-07
1.5685558e-07
1.5690474e-07
1.5709312e-07
1.5746151e-07
1.5806458e-07
1.5897721e-07
1.6030571e-07
1.6220438e-07
1.6489874e-07
1.6872665e-07
1.7422109e-07
1.8221888e-07
1.940242e-07
2.117497e-07
2.3912725e-07
2.8175394e-07
3.4873458e-07
4.5460154e-07
6.2131687e-07
8.8003025e-07
1.2712396e-06
1.8416534e-06
2.636723e-06
3.6908749e-06
5.0219481e-06
6.6336866e-06
8.524402e-06
1.0694629e-05
1.3146773e-05
1.5885308e-05
1.8909744e-05
2.2206601e-05
2.5762612e-05
2.9545865e-05
3.352001e-05
3.7671153e-05
4.1925699e-05
4.6278271e-05
5.0558332e-05
5.3452449e-05
5.6332269e-05
5.933185e-05
6.2455513e-05
6.5685909e-05
6.9196502e-05
7.2902972e-05
7.6781831e-05
8.0807495e-05
8.4961651e-05
8.9203561e-05
9.3513959e-05
9.7861129e-05
0.00010222789
0.00010658248
0.00011091512
0.0001152039
0.00011938096
0.0001244891
1.688498e-07
1.6865066e-07
1.6844841e-07
1.6824264e-07
1.6803298e-07
1.6781907e-07
1.6760068e-07
1.6737773e-07
1.6715028e-07
1.6691841e-07
1.6668218e-07
1.6644161e-07
1.6619669e-07
1.6594737e-07
1.6569354e-07
1.6543512e-07
1.6517196e-07
1.6490391e-07
1.6463082e-07
1.6435252e-07
1.6406879e-07
1.6377946e-07
1.634843e-07
1.6318312e-07
1.628757e-07
1.6256184e-07
1.6224137e-07
1.6191414e-07
1.6158007e-07
1.6123911e-07
1.6089134e-07
1.6053692e-07
1.601762e-07
1.5980969e-07
1.5943816e-07
1.5906266e-07
1.5868461e-07
1.5830589e-07
1.5792892e-07
1.575568e-07
1.571935e-07
1.5684401e-07
1.5651468e-07
1.562136e-07
1.5595112e-07
1.5574067e-07
1.5559993e-07
1.5555266e-07
1.5563161e-07
1.5588313e-07
1.5637411e-07
1.5720343e-07
1.5852241e-07
1.6056753e-07
1.6371238e-07
1.6856157e-07
1.7614441e-07
1.8814237e-07
2.0735372e-07
2.386732e-07
2.8978566e-07
3.728975e-07
5.0709051e-07
7.2037441e-07
1.0509654e-06
1.5459246e-06
2.2556944e-06
3.224618e-06
4.4812483e-06
6.0370257e-06
7.8926015e-06
1.0047911e-05
1.2507578e-05
1.5277132e-05
1.8362499e-05
2.1758663e-05
2.5448306e-05
2.9415573e-05
3.3611814e-05
3.8006229e-05
4.2576419e-05
4.7234918e-05
5.200516e-05
5.5894899e-05
5.900665e-05
6.2157792e-05
6.546418e-05
6.8874803e-05
7.2531555e-05
7.6444944e-05
8.0563253e-05
8.486264e-05
8.9312262e-05
9.3884068e-05
9.8549414e-05
0.0001032684
0.00010802243
0.00011278475
0.00011745566
0.00012313563
1.6885052e-07
1.6865185e-07
1.6845027e-07
1.6824552e-07
1.6803733e-07
1.6782543e-07
1.6760962e-07
1.6738987e-07
1.6716618e-07
1.6693865e-07
1.6670734e-07
1.6647231e-07
1.6623358e-07
1.6599113e-07
1.6574494e-07
1.6549496e-07
1.6524115e-07
1.6498343e-07
1.6472171e-07
1.6445589e-07
1.6418588e-07
1.6391155e-07
1.6363276e-07
1.6334937e-07
1.6306122e-07
1.6276814e-07
1.6246996e-07
1.621665e-07
1.6185755e-07
1.6154295e-07
1.6122252e-07
1.608961e-07
1.6056356e-07
1.6022482e-07
1.5987986e-07
1.5952874e-07
1.5917162e-07
1.5880881e-07
1.5844081e-07
1.5806832e-07
1.5769235e-07
1.5731425e-07
1.5693584e-07
1.565595e-07
1.5618836e-07
1.5582651e-07
1.5547936e-07
1.5515413e-07
1.5486063e-07
1.5461252e-07
1.5442925e-07
1.5433914e-07
1.5438469e-07
1.5463138e-07
1.551823e-07
1.562035e-07
1.5797239e-07
1.6095254e-07
1.6592683e-07
1.7425396e-07
1.8821783e-07
2.1163159e-07
2.5109392e-07
3.1683619e-07
4.2502895e-07
6.0024525e-07
8.7745163e-07
1.3024969e-06
1.9287956e-06
2.8091458e-06
3.9849919e-06
5.4781514e-06
7.2952813e-06
9.4366549e-06
1.1906404e-05
1.4712897e-05
1.7863162e-05
2.136225e-05
2.5194645e-05
2.9337838e-05
3.3767571e-05
3.8421248e-05
4.3277464e-05
4.8270568e-05
5.3368734e-05
5.8441696e-05
6.1809831e-05
6.5157446e-05
6.8616426e-05
7.2219426e-05
7.6017047e-05
8.0139197e-05
8.4476267e-05
8.9062091e-05
9.3826201e-05
9.8741026e-05
0.00010377312
0.0001088846
0.00011395834
0.00012006887
1.6884993e-07
1.6865117e-07
1.6844958e-07
1.68245e-07
1.6803723e-07
1.6782607e-07
1.6761136e-07
1.6739306e-07
1.6717118e-07
1.6694578e-07
1.6671694e-07
1.6648471e-07
1.6624912e-07
1.6601019e-07
1.6576793e-07
1.6552234e-07
1.6527339e-07
1.6502106e-07
1.6476533e-07
1.6450615e-07
1.6424348e-07
1.6397726e-07
1.6370742e-07
1.634339e-07
1.631566e-07
1.6287544e-07
1.6259031e-07
1.6230109e-07
1.6200765e-07
1.6170987e-07
1.6140758e-07
1.6110063e-07
1.6078887e-07
1.6047213e-07
1.6015025e-07
1.5982307e-07
1.5949048e-07
1.5915235e-07
1.5880864e-07
1.5845932e-07
1.5810449e-07
1.5774432e-07
1.5737911e-07
1.5700936e-07
1.5663577e-07
1.5625935e-07
1.5588148e-07
1.5550408e-07
1.5512979e-07
1.5476233e-07
1.5440698e-07
1.5407144e-07
1.5376719e-07
1.5351176e-07
1.5333262e-07
1.5327381e-07
1.5340808e-07
1.5385755e-07
1.5482985e-07
1.5668517e-07
1.6004537e-07
1.6597849e-07
1.763475e-07
1.9427582e-07
2.249693e-07
2.7729818e-07
3.6480394e-07
5.0874581e-07
7.4058521e-07
1.103756e-06
1.6527908e-06
2.4470149e-06
3.5396981e-06
4.9666544e-06
6.74288e-06
8.8720078e-06
1.135663e-05
1.4206709e-05
1.7431768e-05
2.1036915e-05
2.5020518e-05
2.9353564e-05
3.4009261e-05
3.8935964e-05
4.408652e-05
4.9435933e-05
5.4877452e-05
6.0442583e-05
6.4707832e-05
6.8292936e-05
7.193403e-05
7.5736232e-05
7.9678858e-05