/*--------------------------------*- C++ -*----------------------------------*\
| =========                 |                                                 |
| \\      /  F ield         | OpenFOAM: The Open Source CFD Toolbox           |
|  \\    /   O peration     | Version:  2206                                  |
|   \\  /    A nd           | Website:  www.openfoam.com                      |
|    \\/     M anipulation  |                                                 |
\*---------------------------------------------------------------------------*/
FoamFile
{
    version     2.0;
    format      ascii;
    arch        "LSB;label=32;scalar=64";
    class       volScalarField;
    location    "200";
    object      omega;
}
// * * * * * * * * * * * * * * * * * * * * * * * * * * * * * * * * * * * * * //

dimensions      [0 0 -1 0 0 0 0];

internalField   nonuniform List<scalar> 
7480
(
7569.1011
7590.8085
7571.1048
7538.149
7512.5599
7498.0726
7491.116
7487.7265
7485.8474
7484.6238
7483.6785
7482.8678
7482.1614
7481.5502
7481.0203
7480.558
7480.1546
7479.8005
7479.4854
7479.2029
7478.9493
7478.7204
7478.5122
7478.3224
7478.149
7477.99
7477.8435
7477.7084
7477.5836
7477.4682
7477.3612
7477.262
7477.17
7477.0848
7477.0057
7476.9325
7476.8648
7476.8023
7476.7449
7476.6924
7476.6447
7476.6017
7476.5636
7476.5302
7476.5016
7476.4781
7476.4601
7476.4479
7476.4414
7476.4405
7476.445
7476.4546
7476.469
7476.487
7476.5079
7476.531
7476.555
7476.5776
7476.5971
7476.6119
7476.6218
7476.6269
7476.6277
7476.6249
7476.6191
7476.6112
7476.6018
7476.5914
7476.5804
7476.569
7476.5575
7476.546
7476.5345
7476.5231
7476.5119
7476.5009
7476.4901
7476.4789
7476.4676
7476.4561
7476.4446
7476.4331
7476.4214
7476.4098
7476.398
7476.3861
7476.3742
7476.3622
7476.3502
7476.3381
7476.326
7476.3139
7476.3019
7476.2898
7476.2779
7476.2653
7476.2544
7476.2387
7476.2299
7476.2059
1003.2541
1574.4105
1842.4993
1920.7688
1937.013
1923.8383
1863.1372
1797.7879
1744.1624
1703.9734
1673.329
1647.6691
1624.4479
1603.0368
1583.2447
1564.8606
1547.8131
1532.1875
1517.8313
1504.5265
1492.1762
1480.758
1470.1648
1460.2837
1451.0691
1442.4942
1434.4876
1426.9806
1419.9422
1413.3486
1407.1579
1401.3343
1395.8617
1390.7236
1385.8958
1381.3598
1377.1067
1373.1247
1369.4003
1365.9254
1362.6984
1359.7168
1356.9773
1354.4839
1352.2321
1350.2267
1348.4623
1346.9576
1345.7178
1344.7343
1344.0284
1343.6336
1343.4451
1343.4303
1343.5516
1343.7708
1344.0455
1344.3137
1344.5226
1344.6186
1344.576
1344.395
1344.12
1343.7432
1343.2631
1342.7033
1342.0853
1341.4296
1340.7521
1340.0644
1339.3755
1338.6922
1338.0181
1337.3562
1336.7095
1336.0773
1335.4626
1334.8563
1334.2538
1333.6565
1333.0643
1332.4774
1331.8952
1331.3151
1330.7367
1330.159
1329.5819
1329.0055
1328.43
1327.856
1327.2835
1326.7132
1326.1456
1325.5793
1325.0193
1324.4474
1323.9024
1323.3405
1322.6636
1322.0524
190.66788
396.63763
585.96472
709.20515
769.24927
785.36102
782.06241
789.19137
803.66068
812.82413
819.30636
823.52245
825.01968
824.12185
821.39406
817.37331
811.90872
805.25191
797.66292
789.35989
780.55425
771.45018
762.19136
752.88172
743.6261
734.51905
725.57655
716.79879
708.2019
699.80942
691.63578
683.69088
675.98826
668.54037
661.35448
654.43848
647.80199
641.4452
635.36536
629.56307
624.04433
618.81693
613.88838
609.26986
604.96888
600.985
597.32282
593.96118
590.89076
588.10141
585.62915
583.47825
581.54376
579.79153
578.19657
576.70571
575.2572
573.80825
572.35221
570.88916
569.41049
567.9041
566.45265
565.00746
563.55088
562.08571
560.61818
559.15717
557.71099
556.28656
554.88936
553.52382
552.19308
550.8992
549.64402
548.42669
547.24796
546.13013
545.05657
544.01447
542.99717
542.00149
541.02555
540.06575
539.12017
538.18647
537.2634
536.34997
535.44533
534.54945
533.66158
532.78179
531.91019
531.04513
530.19061
529.33018
528.49697
527.65947
526.73908
525.65371
72.002691
121.36722
194.00097
267.7308
324.63168
359.73708
377.80419
386.77977
392.45035
397.56651
404.51643
415.22557
426.20749
437.93263
452.28236
470.55357
485.14109
496.52953
505.29715
511.85414
516.52438
519.59944
521.33842
522.01074
521.93217
521.34905
519.99052
517.80462
514.87934
511.33889
507.30244
502.87381
498.14382
493.1929
488.09565
482.92641
477.73277
472.49775
467.22097
461.91953
456.61962
451.34891
446.13294
440.99571
435.96875
431.03446
426.18674
421.38588
416.61887
411.89664
407.24094
402.75056
398.32645
393.98043
389.74792
385.58399
381.45333
377.39962
373.50952
369.85417
366.45072
363.31622
360.48538
357.88312
355.45988
353.18028
351.01741
348.9525
346.97272
345.06934
343.23628
341.47001
339.76838
338.12905
336.55046
335.03001
333.56685
332.18621
330.88024
329.6334
328.43551
327.28111
326.16739
325.09053
324.04764
323.03545
322.05123
321.0926
320.15717
319.24342
318.34943
317.474
316.61594
315.77328
314.94732
314.12871
313.32652
312.57494
311.72031
310.7625
55.641207
64.532696
83.912898
111.35378
140.42769
165.53462
184.58911
198.13875
207.74968
214.79595
220.42775
225.66996
230.96592
236.83782
244.10562
253.55442
263.35189
273.15527
282.75084
292.00817
300.83378
309.30801
317.72431
326.71589
337.34752
349.83444
359.69284
366.92327
372.204
375.98529
378.57342
380.18955
381.01207
381.20862
380.97013
380.50804
379.8006
378.45553
376.46889
373.92549
370.92058
367.53673
363.842
359.89735
355.77783
351.47743
346.94366
342.14575
337.11074
331.88574
326.51967
321.07267
315.61794
310.16509
304.7502
299.32767
293.92293
288.65878
283.65401
278.98951
274.72772
270.88262
267.41402
264.26537
261.3829
258.72012
256.23754
253.90414
251.69628
249.59621
247.59113
245.67303
243.83467
242.07022
240.37566
238.74717
237.1837
235.68808
234.26316
232.90485
231.60742
230.36641
229.17917
228.04237
226.95313
225.90804
224.90387
223.93756
223.00594
222.10648
221.23679
220.39464
219.57781
218.78403
218.01275
217.259
216.51891
215.85107
215.10126
214.2849
53.508972
54.436822
58.088395
65.266729
75.160968
86.045315
96.438563
105.64699
113.54778
120.26774
125.97338
130.8794
135.19062
139.11923
142.94809
147.01605
151.4242
156.27475
161.71389
167.82212
174.16054
180.7277
187.52924
194.61727
202.10388
210.07261
218.05447
225.69166
232.80998
239.34843
245.32055
250.80585
255.97519
261.15854
266.96585
274.11788
281.53195
286.1033
288.7503
290.0803
290.44751
290.06919
289.09818
287.68043
285.99718
284.19609
281.83152
278.80886
275.2293
271.20111
266.82451
262.19768
257.42095
252.52573
247.56436
242.60917
237.71469
232.96457
228.43814
224.1881
220.23495
216.58536
213.2225
210.11821
207.24247
204.56496
202.05662
199.69336
197.45504
195.32516
193.29115
191.34481
189.47871
187.68693
185.96524
184.30972
182.71949
181.18943
179.72101
178.31582
176.97294
175.69039
174.46653
173.29891
172.1851
171.1221
170.10684
169.13619
168.2068
167.31578
166.46033
165.63785
164.84573
164.08154
163.34385
162.62952
161.93118
161.3029
160.6311
159.8916
53.223487
52.808008
52.958585
54.085091
56.273733
59.364807
62.975143
66.791867
70.62102
74.359822
77.938096
81.309793
84.45318
87.366254
90.079954
92.662901
95.185267
97.717648
100.34422
103.15567
106.19498
109.53025
113.24438
117.38834
121.86622
126.7274
131.94227
137.42692
143.08459
148.83134
154.59467
160.31744
165.96843
171.55764
177.1406
182.82334
188.52706
193.80236
198.43695
202.38579
205.68539
208.4232
210.75107
212.94814
215.47973
218.47862
219.85562
219.67352
218.49285
216.62694
214.29612
211.70017
209.00676
205.97869
202.5607
199.0566
195.61949
192.29617
189.04589
185.87833
182.82019
179.88516
177.07449
174.3904
171.83312
169.39547
167.06786
164.84346
162.71298
160.66747
158.69988
156.80542
154.98019
153.2215
151.52693
149.89356
148.32111
146.80538
145.34512
143.94199
142.59715
141.31064
140.082
138.9098
137.79221
136.72691
135.71135
134.74276
133.81798
132.93415
132.08834
131.27793
130.50042
129.75336
129.03505
128.34297
127.67039
127.05829
126.43606
125.73543
53.161334
52.541742
52.020098
51.712132
51.711663
52.046777
52.633142
53.455632
54.480312
55.669791
56.984365
58.3861
59.839735
61.312381
62.778713
64.226121
65.652498
67.062935
68.471876
69.903399
71.383527
72.943563
74.623561
76.469159
78.516889
80.818359
83.430448
86.357086
89.552862
93.015972
96.736072
100.69352
104.8653
109.23186
113.78418
118.5229
123.42808
128.40718
133.35614
138.17862
142.79385
147.13986
151.17341
154.87862
158.27816
161.33744
163.88064
165.7682
167.0008
167.67152
167.93285
167.98489
167.97894
167.24666
165.73484
163.88659
162.05958
160.27921
158.32357
156.29492
154.25542
152.20444
150.13779
148.07748
146.04021
144.02977
142.05248
140.12055
138.23241
136.38862
134.59081
132.8403
131.13773
129.48611
127.88609
126.33614
124.83761
123.38886
121.98793
120.6357
119.33376
118.08326
116.88482
115.738
114.64166
113.59445
112.59471
111.64034
110.72861
109.85715
109.02336
108.22486
107.45955
106.72518
106.02011
105.34212
104.68635
104.081
103.48885
102.80823
53.12496
52.474709
51.838283
51.240006
50.710238
50.271808
49.928934
49.683923
49.538894
49.48304
49.49415
49.598759
49.796755
50.078153
50.429401
50.837399
51.291906
51.784754
52.310696
52.868393
53.459656
54.089173
54.765698
55.502571
56.315989
57.226822
58.26166
59.446386
60.802486
62.355807
64.136433
66.147099
68.385002
70.856484
73.572981
76.543367
79.77401
83.257606
86.971529
90.885023
94.962216
99.162672
103.44239
107.75533
112.06174
116.26158
120.21014
123.79619
126.93139
129.55936
131.65329
133.21546
134.27666
134.88357
135.04373
134.79528
134.3768
133.84781
132.99805
132.01531
130.99485
129.84913
128.54938
127.16699
125.72753
124.23044
122.69798
121.1489
119.58998
118.03065
116.48026
114.94632
113.43406
111.95587
110.51393
109.10639
107.73788
106.408
105.11469
103.85916
102.64307
101.46792
100.33492
99.244562
98.196197
97.189837
96.225037
95.300546
94.414123
93.564296
92.749211
91.966959
91.216198
90.494995
89.802065
89.135541
88.492525
87.891304
87.317673
86.648682
53.09492
52.438141
51.782127
51.130742
50.490815
49.869692
49.272889
48.705051
48.170957
47.674374
47.216856
46.802479
46.434827
46.115604
45.830252
45.572902
45.356195
45.18557
45.061221
44.981627
44.94469
44.947978
44.990596
45.074024
45.20171
45.379064
45.614017
45.916477
46.297769
46.77126
47.353191
48.059592
48.906991
49.914843
51.106876
52.4897
54.080131
55.896832
57.951409
60.252667
62.809796
65.629583
68.716229
72.071269
75.694813
79.565889
83.60123
87.699
91.75528
95.662818
99.316191
102.61694
105.48072
107.85193
109.69202
110.92349
111.55392
111.7607
111.74372
111.56359
111.32567
110.96268
110.42177
109.77423
109.01768
108.09588
107.07235
105.97169
104.79937
103.57688
102.32071
101.04627
99.763937
98.506028
97.267263
96.045159
94.843148
93.663093
92.505204
91.371057
90.262531
89.181438
88.129705
87.108749
86.118067
85.159297
84.234602
83.343513
82.48445
81.65667
80.859266
80.090988
79.35174
78.63974
77.954331
77.294192
76.65802
76.057153
75.492374
74.828096
53.068542
52.408382
51.747198
51.085258
50.423687
49.764026
49.10804
48.457762
47.815597
47.18415
46.565891
45.963371
45.379171
44.815699
44.273666
43.753201
43.255694
42.782933
42.336536
41.917668
41.521956
41.1391
40.773893
40.435833
40.130943
39.862732
39.633822
39.446494
39.303231
39.208122
39.167268
39.188124
39.279407
39.451407
39.716514
40.087314
40.578788
41.209289
41.998882
42.958726
44.108919
45.471493
47.070523
48.932223
51.085232
53.559868
56.374602
59.517939
62.960484
66.649312
70.506901
74.431441
78.300184
81.982885
85.356512
88.279838
90.622651
92.354892
93.518753
94.222705
94.58756
94.75703
94.786276
94.711565
94.54789
94.225504
93.785695
93.228161
92.522768
91.71751
90.832632
89.896895
88.920151
87.937048
86.941155
85.933573
84.920111
83.904763
82.890658
81.881651
80.88108
79.892107
78.918184
77.962134
77.025655
76.111124
75.221058
74.356678
73.518301
72.706222
71.920479
71.160804
70.427163
69.718865
69.035875
68.377222
67.742951
67.139637
66.577163
65.91306
53.030521
52.36648
51.701579
51.03558
50.368467
49.700282
49.031287
48.362073
47.69356
47.026888
46.363301
45.704106
45.050682
44.404457
43.766749
43.138735
42.521606
41.916594
41.324954
40.747927
40.186198
39.63938
39.107634
38.592086
38.094359
37.616223
37.158784
36.716264
36.283475
35.868993
35.483235
35.133398
34.824606
34.560871
34.345895
34.18487
34.084836
34.054789
34.105553
34.248614
34.497825
34.870333
35.385782
36.063985
36.933051
38.02738
39.386391
41.049029
43.051439
45.421339
48.171063
51.289191
54.731841
58.418076
62.233252
66.023911
69.602352
72.795202
75.472276
77.596245
79.179284
80.299318
81.054568
81.523271
81.795726
81.937622
81.960583
81.886703
81.679614
81.361126
80.926192
80.397446
79.794663
79.125603
78.398119
77.625687
76.818723
75.983416
75.126252
74.254056
73.372211
72.485789
71.600048
70.719202
69.846683
68.98611
68.140674
67.312775
66.504128
65.716003
64.949336
64.204718
63.482649
62.783219
62.10681
61.452818
60.822327
60.21901
59.658363
58.995574
52.972128
52.292994
51.615354
50.938852
50.263068
49.587495
48.911768
48.235813
47.559847
46.884274
46.209587
45.536316
44.865039
44.196384
43.531018
42.869639
42.21298
41.561813
40.916948
40.27923
39.649486
39.028417
38.416673
37.814951
37.224041
36.644817
36.078168
35.524298
34.982863
34.454456
33.94073
33.443901
32.966124
32.50356
32.049328
31.613256
31.207769
30.840932
30.518358
30.244096
30.023093
29.863029
29.773897
29.767747
29.859998
30.070902
30.425799
30.954718
31.696357
32.695992
34.003622
35.669677
37.737731
40.233112
43.150548
46.43949
49.989925
53.63764
57.185596
60.457037
63.314194
65.68811
67.583276
69.024862
70.073148
70.815821
71.309747
71.626842
71.817598
71.889491
71.862401
71.725212
71.496514
71.18618
70.774755
70.287518
69.737784
69.130416
68.473824
67.777886
67.050301
66.297993
65.528433
64.74758
63.960789
63.17353
62.390115
61.614255
60.8491
60.09702
59.360015
58.639619
57.937063
57.253236
56.589091
55.944551
55.321561
54.722031
54.164816
53.50545
52.921241
52.221248
51.523677
50.828553
50.135665
49.444582
48.754888
48.066355
47.378993
46.692981
46.008575
45.326057
44.64572
43.967869
43.292824
42.620913
41.952486
41.28791
40.627568
39.971869
39.32124
38.676114
38.036931
37.404141
36.778221
36.159674
35.549038
34.946814
34.353415
33.76927
33.194939
32.631157
32.078791
31.538187
31.008915
30.491691
29.988521
29.502025
29.033109
28.572072
28.123287
27.702109
27.318385
26.978309
26.686539
26.450202
26.280395
26.192102
26.205375
26.346808
26.650597
27.159219
27.926114
29.012555
30.481759
32.387196
34.753806
37.555848
40.702222
44.045895
47.40528
50.601834
53.500054
56.007975
58.085541
59.752133
61.037137
61.987682
62.677341
63.150672
63.470863
63.660779
63.740412
63.739763
63.648248
63.47282
63.225746
62.891142
62.478123
62.002248
61.471021
60.890645
60.271757
59.621958
58.94833
58.258853
57.559105
56.854403
56.149629
55.448436
54.754158
54.069429
53.396397
52.736879
52.092517
51.463913
50.853791
50.263102
49.712705
49.060235
52.891264
52.176573
51.463522
50.752456
50.043497
49.336535
48.631382
47.927926
47.226197
46.526353
45.828625
45.133271
44.440565
43.750784
43.06421
42.381125
41.701813
41.02656
40.355649
39.689365
39.027995
38.371821
37.721122
37.076176
36.437256
35.804636
35.178591
34.559395
33.947312
33.342599
32.745525
32.156389
31.575531
31.003276
30.439857
29.885558
29.340844
28.806401
28.282925
27.769935
27.267526
26.777549
26.302717
25.843718
25.389166
24.948872
24.53924
24.169881
23.847771
23.581519
23.385531
23.28022
23.293767
23.464439
23.842266
24.488427
25.473673
26.865391
28.707621
30.999498
33.680278
36.630978
39.697957
42.717641
45.543636
48.07589
50.254286
52.055466
53.503613
54.627642
55.467257
56.078081
56.500662
56.777677
56.950917
57.03365
57.043177
56.973623
56.825013
56.608792
56.314161
55.942605
55.512783
55.030065
54.501911
53.940173
53.35051
52.740246
52.116516
51.484313
50.848708
50.213629
49.58238
48.957939
48.342768
47.73832
47.148102
46.572661
46.034202
45.393554
52.876337
52.153619
51.431654
50.710874
49.991553
49.273779
48.557551
47.842887
47.12988
46.418708
45.709605
45.002838
44.298692
43.59746
42.899439
42.204928
41.514228
40.827636
40.145448
39.467956
38.79545
38.12821
37.466513
36.810627
36.160811
35.517316
34.880382
34.250238
33.627103
33.011177
32.40265
31.801703
31.208506
30.623222
30.045993
29.476952
28.916239
28.364028
27.820519
27.285818
26.760009
26.243361
25.736407
25.23967
24.752299
24.274734
23.809319
23.359181
22.916785
22.481308
22.074108
21.708165
21.393365
21.142897
20.978504
20.931451
21.045075
21.376215
21.991858
22.960653
24.338359
26.1463
28.356184
30.885747
33.609035
36.382554
39.067524
41.546932
43.747097
45.628592
47.179191
48.422532
49.384755
50.098027
50.618227
50.983088
51.220159
51.362662
51.434332
51.436542
51.366294
51.222718
51.018684
50.737452
50.387402
49.987835
49.538359
49.049874
48.532241
47.990981
47.433526
46.865139
46.290577
45.714329
45.139806
44.569572
44.007989
43.455632
42.935952
42.313603
52.869735
52.142943
51.416339
50.69036
49.965323
49.241398
48.518679
47.797257
47.077262
46.358883
45.642352
44.927935
44.215912
43.506578
42.800235
42.097186
41.397738
40.702198
40.010871
39.324059
38.642059
37.965167
37.29367
36.627851
35.967983
35.314333
34.667157
34.026705
33.393212
32.766901
32.147985
31.536659
30.933107
30.337495
29.749972
29.170669
28.599701
28.037166
27.48315
26.937719
26.400916
25.872779
25.353374
24.842796
24.340998
23.847976
23.363994
22.88963
22.424512
21.968275
21.523198
21.092811
20.670155
20.257099
19.878029
19.548241
19.282171
19.103501
19.047144
19.160409
19.502534
20.13855
21.128087
22.509928
24.284045
26.402377
28.772242
31.270487
33.768147
36.148864
38.319268
40.224789
41.838961
43.156832
44.20683
45.01323
45.608515
46.037578
46.33955
46.529502
46.634839
46.682722
46.665547
46.580271
46.429789
46.227416
45.945746
45.608164
45.225657
44.800807
44.344981
43.863898
43.364132
42.852061
42.332062
41.808225
41.28586
40.765991
40.273661
39.67774
52.867528
52.138682
51.409695
50.681
49.952928
49.225687
48.499421
47.774258
47.050349
46.327883
45.607086
44.888212
44.171531
43.45733
42.745899
42.037539
41.33255
40.631232
39.933887
39.240814
38.552309
37.868664
37.190168
36.517102
35.849743
35.188361
34.533219
33.884572
33.242665
32.607735
31.980008
31.359702
30.747019
30.142152
29.545279
28.956562
28.376152
27.804179
27.240756
26.685982
26.139933
25.602665
25.074219
24.554628
24.043893
23.542001
23.048953
22.564803
22.08954
21.623108
21.16572
20.717965
20.279537
19.85044
19.433709
19.033883
18.63728
18.26724
17.946135
17.691528
17.529177
17.496565
17.64293
18.02592
18.706127
19.732588
21.126777
22.8705
24.901388
27.121867
29.414337
31.663744
33.771693
35.663524
37.302232
38.672063
39.77861
40.651065
41.310474
41.792159
42.132274
42.367256
42.502245
42.574388
42.590367
42.547056
42.44023
42.278662
42.060991
41.777905
41.450423
41.080295
40.676794
40.248253
39.799556
39.336954
38.866604
38.390529
37.935896
37.376403
52.867684
52.137797
51.407566
50.677419
49.947697
49.218637
48.490415
47.763185
47.037112
46.312389
45.589234
44.867892
44.148623
43.431701
42.717409
42.006036
41.297872
40.593209
39.892339
39.195552
38.503137
37.815377
37.132552
36.454937
35.782802
35.11641
34.456018
33.801875
33.154225
32.513301
31.87933
31.252528
30.633104
30.021255
29.417168
28.821021
28.232977
27.65319
27.081797
26.518924
25.964682
25.419164
24.882449
24.354602
23.835669
23.325683
22.824665
22.332634
21.849601
21.375567
20.91055
20.454631
20.007835
19.570185
19.142057
18.724316
18.316039
17.919395
17.539152
17.166742
16.820016
16.5241
16.298145
16.170517
16.181017
16.379747
16.822084
17.563302
18.639739
20.056858
21.779816
23.734361
25.819556
27.923404
29.944572
31.801
33.437244
34.83196
35.977107
36.888813
37.59492
38.116676
38.488273
38.748255
38.915843
38.994682
39.033292
39.016354
38.94354
38.815875
38.643387
38.407051
38.123025
37.800406
37.442647
37.059286
36.65639
36.237889
35.833145
35.32245
52.869161
52.138752
51.407859
50.676907
49.946243
49.216129
48.486766
47.758333
47.031011
46.304994
45.580502
44.857772
44.137058
43.418626
42.702751
41.989713
41.279793
40.573276
39.870447
39.171585
38.476971
37.786881
37.101585
36.42135
35.746437
35.0771
34.413588
33.756141
33.104994
32.460373
31.822496
31.191573
30.567806
29.951387
29.3425
28.741318
28.148007
27.56272
26.9856
26.416781
25.856383
25.304515
24.761274
24.226746
23.701002
23.184105
22.676106
22.177047
21.686969
21.205905
20.733885
20.270949
19.817132
19.372472
18.937042
18.511004
18.094385
17.687459
17.291035
16.904703
16.530457
16.173372
15.825024
15.508814
15.246799
15.059535
14.97831
15.045647
15.31128
15.829494
16.648138
17.789064
19.240848
20.951555
22.83639
24.792327
26.715101
28.518469
30.136036
31.53154
32.696688
33.632599
34.363
34.912655
35.310458
35.580841
35.766129
35.868708
35.911529
35.911732
35.862047
35.761207
35.616157
35.422426
35.175863
34.892682
34.575134
34.23088
33.89021
33.443671
52.871406
52.140751
51.409505
50.678089
49.946858
49.216089
48.486009
47.756819
47.028715
46.301899
45.576592
44.85303
44.131463
43.412154
42.695369
41.981385
41.270478
40.562925
39.859005
39.158994
38.463163
37.771784
37.085119
36.403429
35.726968
35.055983
34.390714
33.731395
33.078253
32.431506
31.791363
31.158026
30.53169
29.912539
29.300748
28.696485
28.099907
27.511163
26.93039
26.357719
25.793267
25.237144
24.689448
24.150267
23.619681
23.097758
22.584559
22.080137
21.584542
21.097817
20.620007
20.151152
19.691296
19.240484
18.798764
18.3662
17.942852
17.528796
17.124184
16.72908
16.343773
15.969142
15.604816
15.253688
14.921281
14.599735
14.317728
14.094068
13.952454
13.927609
14.064276
14.413203
15.025772
15.938602
17.157337
18.650828
20.349868
22.161389
23.982795
25.720788
27.305648
28.688912
29.853296
30.798992
31.5422
32.106608
32.515908
32.800804
32.991604
33.107545
33.15452
33.164777
33.130723
33.050907
32.928395
32.767356
32.552874
32.301869
32.041337
31.67745
52.874115
52.143364
51.411937
50.680247
49.948653
49.21745
48.486883
47.757174
47.028533
46.301174
45.575321
44.851212
44.129095
43.40923
42.691882
41.977321
41.265823
40.55766
39.853106
39.152433
38.45591
37.763802
37.07637
36.393867
35.716544
35.044643
34.378399
33.71804
33.063787
32.415853
31.774441
31.139747
30.511958
29.891253
29.277799
28.671758
28.07328
27.482507
26.89957
26.324592
25.757687
25.198957
24.648497
24.106392
23.572717
23.047538
22.530913
22.022896
21.523531
21.032862
20.550926
20.077764
19.61341
19.157905
18.711289
18.273605
17.8449
17.425222
17.014622
16.613146
16.220855
15.837893
15.464327
15.100585
14.74776
14.405701
14.078341
13.766643
13.477086
13.232831
13.052848
12.965308
13.009118
13.231175
13.683058
14.410361
15.432747
16.736416
18.26803
19.94282
21.662874
23.331438
24.871512
26.230289
27.382186
28.32557
29.068169
29.635827
30.050061
30.340933
30.532352
30.653893
30.708697
30.721409
30.698629
30.634795
30.531587
30.392833
30.228528
29.96764
52.877116
52.146354
51.414842
50.682987
49.951152
49.219642
48.48872
47.758626
47.029585
46.301821
45.575564
44.851056
44.128545
43.40829
42.690554
41.975608
41.26372
40.555164
39.850211
39.149129
38.452185
37.759642
37.071756
36.388779
35.710959
35.038533
34.371735
33.710789
33.055911
32.407312
31.76519
31.129737
30.501136
29.879561
29.265175
28.658133
28.058582
27.466658
26.882487
26.306187
25.737865
25.17762
24.62554
24.081705
23.546186
23.019043
22.500331
21.990095
21.488375
20.995208
20.510623
20.034649
19.567312
19.10864
18.658658
18.217393
17.784876
17.361136
16.9462
16.540091
16.14283
15.75444
15.374939
15.004391
14.642983
14.290847
13.948622
13.616977
13.297413
12.994547
12.706304
12.451759
12.248704
12.119514
12.097455
12.225642
12.553981
13.131764
13.991679
15.132569
16.515583
18.065394
19.687093
21.283708
22.773009
24.099082
25.228383
26.156303
26.889761
27.451281
27.863366
28.152536
28.343017
28.463905
28.524519
28.538372
28.524762
28.473517
28.40494
28.265091
52.880305
52.14958
51.418041
50.686088
49.954085
49.222346
48.49115
47.760752
47.03139
46.3033
45.576719
44.851892
44.129071
43.408513
42.690482
41.975246
41.263075
40.554239
39.849006
39.147645
38.45042
37.757592
37.069415
36.386141
35.708013
35.035268
34.368138
33.706843
33.0516
32.402614
31.760083
31.124195
30.495132
29.873063
29.258149
28.650543
28.050387
27.457813
26.872945
26.295897
25.726772
25.165664
24.612659
24.067831
23.531248
23.002966
22.483033
21.971492
21.468377
20.973715
20.48753
20.009843
19.540668
19.080021
18.627914
18.18436
17.749371
17.32296
16.905136
16.495905
16.09527
15.703226
15.319762
14.944873
14.57857
14.220873
13.871877
13.531747
13.200823
12.880029
12.569849
12.273484
11.994762
11.736847
11.520286
11.363877
11.295812
11.355045
11.589326
12.049288
12.775915
13.779442
15.032756
16.469854
17.999269
19.524889
20.960343
22.24525
23.34389
24.247734
24.964402
25.512181
25.91661
26.197849
26.385057
26.502339
26.566752
26.585367
26.592374
26.547426
52.88362
52.152958
51.421426
50.689417
49.957293
49.225377
48.49396
47.763309
47.033677
46.30531
45.578452
44.853352
44.130266
43.409453
42.691176
41.975703
41.263302
40.554243
39.848794
39.147222
38.449788
37.756753
37.068371
36.38489
35.706553
35.033597
34.36625
33.704733
33.04926
32.400035
31.757254
31.121105
30.491766
29.869405
29.254182
28.646248
28.045742
27.452794
26.867527
26.29005
25.720466
25.158866
24.605333
24.059938
23.522746
22.99381
22.473177
21.960883
21.456959
20.961428
20.474309
19.995614
19.525353
19.063529
18.610148
18.165208
17.72871
17.300652
16.881029
16.469832
16.06705
15.672664
15.286647
14.908971
14.539608
14.178529
13.825716
13.481172
13.14494
12.817174
12.498068
12.188228
11.888702
11.60084
11.328852
11.073754
10.851371
10.678669
10.579674
10.589403
10.752877
11.120957
11.73931
12.62868
13.771015
15.10876
16.553948
18.010076
19.389368
20.628148
21.690155
22.563386
23.257068
23.78475
24.174641
24.445308
24.627773
24.74247
24.82231
24.849531
52.887018
52.156435
51.42493
50.692891
49.960678
49.228621
48.497019
47.766153
47.036285
46.307672
45.580566
44.855223
44.131899
43.410857
42.692361
41.976678
41.264077
40.554827
39.849194
39.147445
38.449841
37.75664
37.068096
36.384457
35.705964
35.032852
34.36535
33.703677
33.048045
32.398659
31.755713
31.119394
30.489879
29.867335
29.251921
28.643785
28.043067
27.449895
26.86439
26.28666
25.716806
25.154918
24.601077
24.055353
23.517809
22.988495
22.467456
21.954728
21.450336
20.954303
20.466642
19.987363
19.516469
19.05396
18.599832
18.154078
17.716688
17.287652
16.866952
16.454571
16.050485
15.654665
15.267074
14.887671
14.516411
14.153247
13.79813
13.451016
13.111866
12.780666
12.457423
12.142223
11.835277
11.536948
11.248133
10.969738
10.704899
10.456871
10.233462
10.05171
9.9323588
9.906866
10.017496
10.314738
10.846944
11.642868
12.692113
13.94344
15.312193
16.701897
18.024552
19.214244
20.235183
21.072458
21.736165
22.239595
22.612182
22.871697
23.062081
23.178223
52.890474
52.159975
51.42851
50.696458
49.964179
49.232005
48.500246
47.76919
47.039112
46.310277
45.582944
44.857375
44.133831
43.412576
42.693876
41.978
41.265214
40.555788
39.849989
39.148081
38.450326
37.756981
37.068298
36.384525
35.705903
35.032666
34.365041
33.703246
33.047495
32.39799
31.754925
31.118485
30.488847
29.866179
29.250636
28.642368
28.041512
27.448197
26.862542
26.284655
25.714635
25.152571
24.598544
24.052622
23.514867
22.985329
22.464051
21.951066
21.446401
20.950073
20.462097
19.982477
19.511215
19.048307
18.593744
18.147515
17.709605
17.279996
16.858665
16.445586
16.040729
15.644056
15.255523
14.87508
14.502674
14.138246
13.781737
13.433082
13.092219
12.75909
12.43364
12.115833
11.805661
11.503163
11.208492
10.921897
10.644035
10.375923
10.11959
9.8793624
9.6585418
9.4729073
9.3409602
9.2910832
9.3631367
9.6065984
10.071603
10.792399
11.764677
12.942031
14.242598
15.570038
16.836763
17.975415
18.950546
19.747428
20.378253
20.855806
21.224531
21.474152
52.893966
52.163555
51.432136
50.700082
49.967753
49.235483
48.503587
47.772362
47.042094
46.313054
45.58551
44.859729
44.135977
43.414519
42.695625
41.979563
41.266601
40.557009
39.851052
39.148995
38.451098
37.757619
37.06881
36.384916
35.706179
35.032831
34.3651
33.703203
33.047353
32.39775
31.75459
31.118056
30.488325
29.865563
29.249927
28.641564
28.040612
27.447198
26.861441
26.283449
25.71332
25.151143
24.596997
24.05095
23.513064
22.983387
22.461962
21.948822
21.443991
20.947488
20.459323
19.979501
19.508022
19.044879
18.590062
18.143555
17.705341
17.275397
16.853697
16.44021
16.0349
15.637725
15.248636
14.867577
14.49449
14.129309
13.771966
13.422391
13.080509
12.746247
12.419531
12.100289
11.788456
11.483979
11.186829
10.897013
10.614624
10.339876
10.073239
9.8157274
9.5686881
9.335685
9.1202371
8.9347412
8.7960453
8.7301604
8.7748109
8.978361
9.3920054
10.05372
10.96383
12.079209
13.320035
14.589758
15.801083
16.88663
17.814318
18.568962
19.182017
19.637864
52.897481
52.167158
51.435787
50.70374
49.971372
49.239019
48.507003
47.775627
47.045184
46.315954
45.588212
44.862231
44.138279
43.416627
42.697544
41.981302
41.268169
40.558414
39.852304
39.150102
38.452069
37.758462
37.069531
36.385523
35.706677
35.033227
34.365398
33.703408
33.047468
32.397781
31.754538
31.117924
30.488116
29.865278
29.249567
28.64113
28.040104
27.446616
26.860785
26.282717
25.712511
25.150255
24.596028
24.049897
23.511924
22.982156
22.460637
21.947398
21.442464
20.945851
20.457571
19.977627
19.506016
19.042733
18.587764
18.141093
17.702699
17.272559
16.850641
16.436914
16.031338
15.633868
15.244451
14.863029
14.489538
14.123911
13.766073
13.41595
13.073462
12.738529
12.411066
12.090991
11.778222
11.472677
11.174281
10.882968
10.59869
10.321435
10.051252
9.7883209
9.5329816
9.2860346
9.0486729
8.8238083
8.6153516
8.4324554
8.2911905
8.2154345
8.2413653
8.4161301
8.7917967
9.4084589
10.270211
11.335121
12.524187
13.739833
14.898186
15.930424
16.829528
17.551255
52.901009
52.17077
51.43945
50.707413
49.975014
49.242591
48.510468
47.778955
47.048351
46.318944
45.591015
44.864842
44.140698
43.418857
42.699592
41.983173
41.269872
40.559957
39.853695
39.151351
38.453183
37.759449
37.070399
36.386279
35.707328
35.033778
34.365856
33.703778
33.047754
32.397987
31.754668
31.117983
30.488105
29.8652
29.249424
28.640924
28.039837
27.446289
26.860398
26.282271
25.712006
25.149691
24.595404
24.049213
23.511178