/*--------------------------------*- C++ -*----------------------------------*\
| =========                 |                                                 |
| \\      /  F ield         | OpenFOAM: The Open Source CFD Toolbox           |
|  \\    /   O peration     | Version:  2206                                  |
|   \\  /    A nd           | Website:  www.openfoam.com                      |
|    \\/     M anipulation  |                                                 |
\*---------------------------------------------------------------------------*/
FoamFile
{
    version     2.0;
    format      ascii;
    arch        "LSB;label=32;scalar=64";
    class       volScalarField;
    location    "200";
    object      p;
}
// * * * * * * * * * * * * * * * * * * * * * * * * * * * * * * * * * * * * * //

dimensions      [0 2 -2 0 0 0 0];

internalField   nonuniform List<scalar> 
7480
(
0.054687616
0.042432827
0.028310662
0.016501842
0.0058935347
0.00044590819
-0.00081043861
0.00020542342
0.0017583767
0.0027886255
0.0032641559
0.0034673257
0.0035587321
0.0035881522
0.0035910609
0.0035968111
0.0036050351
0.0035991543
0.0035833809
0.0035663513
0.0035468123
0.0035205685
0.0034904485
0.0034598011
0.0034273481
0.0033906828
0.0033512225
0.0033105249
0.0032677038
0.003221955
0.0031743937
0.0031257923
0.003075537
0.003023436
0.0029703469
0.0029168755
0.0028630669
0.0028095775
0.0027576381
0.00270827
0.0026623175
0.0026213347
0.002587828
0.0025642865
0.0025546855
0.0025638927
0.0025947432
0.002647142
0.0027211114
0.0028166584
0.002931978
0.0030642001
0.003208831
0.003359555
0.0035141622
0.0036662465
0.0037977254
0.0038957225
0.0039522305
0.0039698319
0.0039515161
0.0039038038
0.0038354018
0.0037533044
0.0036626492
0.003567408
0.0034709317
0.0033745073
0.0032790513
0.0031851222
0.0030928442
0.0030017197
0.0029117789
0.0028229971
0.0027345792
0.0026471135
0.0025596823
0.0024701673
0.0023789837
0.0022862524
0.0021927856
0.0020981737
0.0020012732
0.0019031428
0.0018028625
0.0017010885
0.0015976478
0.001492606
0.0013865903
0.0012792013
0.0011717406
0.0010638927
0.00095749054
0.00085192094
0.00075400293
0.00065026848
0.00059779862
0.00031482752
0.00084078108
-0.00087561563
0.049709439
0.039196288
0.027244463
0.016352744
0.0064942599
0.0012470153
-0.00010358138
0.00067491318
0.0019851717
0.0029124495
0.0033418149
0.0035264738
0.0036095279
0.0036321395
0.0036308645
0.003634451
0.0036367642
0.0036259752
0.0036073092
0.0035879693
0.0035662903
0.0035380892
0.0035063529
0.0034743116
0.0034405775
0.0034027489
0.003362283
0.0033206866
0.0032770287
0.0032305148
0.0031822717
0.0031330454
0.0030822042
0.0030295615
0.0029759747
0.0029220372
0.0028677866
0.0028138797
0.0027615435
0.0027117919
0.0026654657
0.0026241188
0.0025902555
0.0025663574
0.0025565068
0.0025653701
0.002595707
0.0026477917
0.002721464
0.0028167158
0.0029317636
0.0030637476
0.0032081797
0.0033587558
0.0035132748
0.003665324
0.0037968233
0.0038949203
0.0039515809
0.0039693631
0.0039512417
0.0039037096
0.0038354498
0.0037534633
0.0036628882
0.0035677013
0.0034712588
0.0033748524
0.0032794033
0.0031854733
0.0030931891
0.0030020552
0.0029121032
0.0028233088
0.0027348781
0.0026474
0.0025599626
0.0024704469
0.00237926
0.0022865227
0.0021930491
0.0020984309
0.0020015248
0.0019033892
0.001803104
0.001701325
0.0015978792
0.0014928322
0.0013868111
0.0012794166
0.0011719501
0.0010640965
0.00095768872
0.0008521134
0.00075419099
0.00065044889
0.0005980425
0.00031580676
0.00084299682
-0.00087518464
0.045649084
0.037515244
0.026880939
0.016626947
0.0078688925
0.0027755533
0.0010694009
0.0013367769
0.0023215245
0.0030967247
0.0034627128
0.0036272944
0.0036976248
0.0037051925
0.0036947428
0.0036911826
0.0036849667
0.0036669254
0.0036435309
0.0036205372
0.0035952858
0.0035637238
0.0035294488
0.0034952761
0.0034594945
0.0034198205
0.0033778733
0.0033350043
0.0032901394
0.0032425265
0.0031933488
0.0031432851
0.0030916505
0.0030382819
0.0029840492
0.0029295157
0.0028747016
0.002820275
0.002767459
0.0027172509
0.0026704826
0.0026287134
0.0025944447
0.0025701471
0.0025600177
0.0025686332
0.0025984154
0.0026499777
0.0027233156
0.0028182026
0.002932893
0.0030645331
0.0032086381
0.0033589235
0.0035132236
0.0036651039
0.0037964586
0.0038945161
0.0039512628
0.0039691502
0.0039512521
0.0039039201
0.0038358261
0.0037539778
0.0036635046
0.0035683861
0.0034719845
0.0033755954
0.0032801471
0.0031862062
0.0030939029
0.0030027446
0.0029127654
0.002823942
0.0027354815
0.0026479742
0.0025605078
0.0024709699
0.0023797668
0.0022870118
0.0021935209
0.0020988862
0.0020019653
0.0019038168
0.0018035193
0.0017017288
0.0015982718
0.0014932138
0.0013871817
0.0012797763
0.0011722991
0.0010644346
0.00095801653
0.00085243036
0.00075450066
0.000650742
0.00059844059
0.00031738156
0.00084692245
-0.00087460803
0.042928346
0.036213737
0.026526111
0.016926564
0.0091553251
0.0042383201
0.0021512551
0.0020306567
0.0027134143
0.0033341257
0.0036445708
0.0037847666
0.003831967
0.0038098775
0.0037788591
0.003763443
0.0037466684
0.0037181845
0.0036882202
0.0036609437
0.0036312592
0.003595174
0.0035577013
0.0035209525
0.0034825464
0.0034404363
0.0033966841
0.0033523506
0.0033060576
0.0032571537
0.0032069682
0.0031560426
0.0031035776
0.0030494672
0.0029946198
0.0029395392
0.0028842154
0.0028293549
0.0027761811
0.0027256553
0.002678592
0.0026365669
0.0026020783
0.0025775786
0.0025673077
0.0025760203
0.0026055668
0.002656606
0.0027297165
0.0028242812
0.0029385729
0.0030697559
0.0032133393
0.0033630695
0.003516844
0.0036681873
0.0037989992
0.0038965377
0.0039530631
0.0039707352
0.0039527995
0.0039054928
0.0038374379
0.0037556403
0.0036652057
0.0035701055
0.0034737022
0.0033772885
0.0032817995
0.0031878058
0.0030954409
0.0030042148
0.0029141663
0.0028252721
0.00273674
0.0026491627
0.0025615953
0.0024719583
0.0023806985
0.0022878962
0.0021943618
0.0020996861
0.0020027278
0.001904547
0.0018042195
0.0017024022
0.0015989197
0.0014938379
0.0013877832
0.0012803557
0.0011728579
0.0010649729
0.00095853589
0.0008529301
0.00075498671
0.00065120107
0.00059905252
0.00031987352
0.00085334446
-0.00087353259
0.040459405
0.034620286
0.025901521
0.017278981
0.010223302
0.0054448747
0.0031902256
0.0027992937
0.0031896128
0.0036329581
0.0038663376
0.0039559004
0.00397109
0.0039310908
0.0038891064
0.003864038
0.0038344261
0.0037902859
0.0037493956
0.0037153017
0.003679177
0.0036367552
0.0035950431
0.0035551746
0.0035135187
0.0034682096
0.0034221191
0.0033759006
0.003327699
0.0032770578
0.0032255805
0.0031735878
0.0031200926
0.0030650959
0.0030095795
0.0029539431
0.0028981132
0.002842872
0.0027894627
0.0027387778
0.0026915947
0.0026495162
0.0026150335
0.0025905596
0.0025804134
0.0025894862
0.0026189536
0.002669621
0.0027424975
0.0028366703
0.002950429
0.0030809434
0.0032237036
0.0033725086
0.0035253945
0.0036758861
0.0038057071
0.0039021255
0.0039580434
0.0039750741
0.003956686
0.0039091546
0.0038409434
0.0037590487
0.0036685351
0.0035733567
0.0034768703
0.0033803577
0.0032847591
0.0031906472
0.0030981564
0.0030067997
0.0029166227
0.0028276
0.0027389389
0.0026512353
0.0025635029
0.0024737046
0.0023823363
0.0022894387
0.0021958171
0.0021010599
0.0020040266
0.0019057802
0.0018053919
0.0017035204
0.0015999876
0.0014948593
0.0013887612
0.0012812924
0.0011737564
0.0010658344
0.0009593634
0.00085372346
0.00075575385
0.00065192811
0.00059999077
0.00032357431
0.00086283378
-0.00087137654
0.038145995
0.033028123
0.025313344
0.01759089
0.011108223
0.0065420236
0.004189433
0.0035467596
0.0036873815
0.0039554937
0.0041008007
0.0041381923
0.0041224617
0.0040681748
0.0040128558
0.0039692949
0.0039242731
0.0038703565
0.0038226889
0.0037826937
0.0037390113
0.0036886991
0.0036410755
0.0035969893
0.0035512478
0.0035020361
0.0034532374
0.0034049248
0.0033545466
0.0033018901
0.003248957
0.0031957703
0.0031411052
0.0030851583
0.0030290575
0.0029730479
0.0029168298
0.0028612532
0.0028076857
0.0027569566
0.0027097943
0.0026678407
0.0026335789
0.0026093548
0.0025995393
0.0026089357
0.0026382386
0.0026885876
0.0027609624
0.0028544627
0.0029674224
0.0030969861
0.0032385896
0.0033860965
0.0035377512
0.0036870137
0.0038153424
0.0039101872
0.0039652732
0.0039813875
0.0039622801
0.0039144328
0.0038459876
0.003763928
0.0036732708
0.0035779535
0.0034813291
0.0033846649
0.0032889067
0.0031946279
0.0031019603
0.0030104243
0.0029200766
0.0028308834
0.0027420498
0.0026541752
0.0025662572
0.0024762852
0.0023847697
0.0022917286
0.0021979735
0.0021030905
0.0020059401
0.0019075897
0.0018071047
0.0017051465
0.0016015332
0.0014963308
0.0013901643
0.0012826305
0.0011750345
0.0010670556
0.00096053216
0.00085484108
0.00075682849
0.00065295084
0.00060129211
0.0003286095
0.00087551206
-0.00086769764
0.036044922
0.03154961
0.024760733
0.017820386
0.011866258
0.0075403307
0.0051255753
0.0042551115
0.0041716907
0.0042863443
0.0043465121
0.0043338335
0.0042860574
0.0042137089
0.0041409433
0.0040786479
0.0040197952
0.0039578318
0.0039021004
0.003852428
0.0038003475
0.0037448023
0.0036930854
0.0036450709
0.0035947093
0.0035410809
0.0034889956
0.0034379816
0.0033849062
0.0033298846
0.0032753378
0.0032208649
0.0031649094
0.0031079378
0.0030512746
0.0029949385
0.0029383714
0.0028825572
0.0028290067
0.002778452
0.0027315585
0.0026900369
0.0026563872
0.0026329731
0.0026233085
0.0026321404
0.0026612373
0.0027114733
0.0027834217
0.0028762436
0.0029882695
0.0031165843
0.0032566703
0.0034026229
0.0035519483
0.0036982431
0.0038243964
0.0039177579
0.0039723825
0.0039877843
0.003968115
0.0039201836
0.0038516794
0.0037695804
0.0036788596
0.0035834522
0.0034867179
0.0033899113
0.0032939924
0.0031995389
0.0031066813
0.0030149487
0.0029244108
0.002835024
0.002745991
0.0026579165
0.0025697897
0.0024796246
0.0023879339
0.0022947138
0.0022007882
0.0021057415
0.0020084367
0.0019099473
0.0018093318
0.0017072558
0.0016035327
0.0014982292
0.0013919694
0.0012843471
0.0011766699
0.0010686142
0.00096201986
0.00085626073
0.00075818712
0.00065424798
0.00060293246
0.00033492277
0.00089103262
-0.00086241565
0.034146348
0.030167832
0.024194058
0.017963958
0.012512999
0.0084315948
0.0059884072
0.00493258
0.0046539206
0.0046272138
0.0046023593
0.004538387
0.0044564178
0.0043626327
0.0042720252
0.0041930608
0.0041208553
0.0040494719
0.0039840157
0.0039243906
0.0038650864
0.0038048882
0.0037483951
0.003694802
0.0036396332
0.0035828344
0.003528172
0.003474467
0.0034184103
0.0033607422
0.0033043234
0.0032483164
0.0031906544
0.0031321862
0.0030745938
0.0030175744
0.0029603733
0.0029042022
0.0028506585
0.0028003305
0.0027538033
0.0027128851
0.0026801135
0.0026578626
0.0026484018
0.0026564222
0.0026851985
0.002735393
0.0028070296
0.0028992211
0.0030102072
0.003136975
0.0032753106
0.0034197752
0.0035658164
0.003707657
0.0038312563
0.0039235123
0.0039781452
0.0039932224
0.0039733573
0.0039256861
0.0038573947
0.0037754721
0.003684852
0.0035894769
0.003492719
0.0033958249
0.0032997823
0.0032051792
0.0031121489
0.0030202258
0.0029294944
0.0028399046
0.0027506569
0.0026623646
0.0025740071
0.0024836272
0.0023917419
0.0022983187
0.0022041956
0.0021089562
0.0020114666
0.0019128092
0.0018120345
0.0017098135
0.0016059545
0.0015005254
0.0013941494
0.0012864177
0.00117864
0.0010704889
0.00096380608
0.00085796289
0.0007598102
0.00065580168
0.00060487881
0.00034238928
0.00090886674
-0.00085572661
0.032425765
0.028876457
0.023619673
0.0180433
0.013063135
0.0092225945
0.0067824906
0.0055816577
0.0051326262
0.0049743119
0.0048658227
0.0047497267
0.0046326588
0.0045157899
0.0044065814
0.0043111123
0.0042250867
0.0041431894
0.0040681803
0.0039995654
0.0039331256
0.0038674622
0.0038054327
0.0037462375
0.0036868156
0.0036269409
0.0035691494
0.0035120934
0.003453199
0.0033935295
0.0033355005
0.0032778238
0.0032182347
0.0031580829
0.0030993704
0.0030414663
0.0029834076
0.0029265437
0.0028725456
0.0028219722
0.0027753647
0.0027346349
0.0027023639
0.0026808106
0.0026718669
0.0026798555
0.0027082823
0.0027580464
0.0028290662
0.0029204414
0.0030303217
0.0031556
0.0032923263
0.0034353797
0.0035786354
0.0037162788
0.0038369601
0.0039280664
0.0039826156
0.0039975651
0.0039778067
0.0039306362
0.0038627468
0.003781193
0.0036908526
0.0035956465
0.0034989709
0.0034020718
0.0033059719
0.0032112692
0.0031181022
0.0030260159
0.0029351113
0.0028453299
0.0027558705
0.002667359
0.0025787622
0.0024881573
0.0023960695
0.0023024316
0.002208097
0.0021126474
0.0020149535
0.0019161083
0.0018151537
0.0017127677
0.0016087527
0.0015031787
0.001396668
0.001288809
0.0011809145
0.0010726521
0.00096586524
0.00085992393
0.00076167524
0.00065759137
0.00060708841
0.00035086092
0.0009284302
-0.00084769317
0.030862561
0.027676815
0.023048991
0.018068517
0.013524588
0.0099202236
0.0075099169
0.0061987589
0.0056025352
0.0053237847
0.0051351972
0.0049674323
0.0048147527
0.0046734256
0.0045449622
0.0044326315
0.0043325894
0.0042395866
0.0041545678
0.004077087
0.0040032802
0.0039316359
0.0038641591
0.0037998064
0.0037360954
0.0036726472
0.0036114343
0.0035511639
0.0034896759
0.0034279698
0.0033678744
0.00330812
0.0032468106
0.0031854154
0.0031257044
0.0030668033
0.0030077304
0.0029499684
0.0028953162
0.002844263
0.0027972488
0.0027562735
0.002723961
0.0027023961
0.0026934736
0.0027013345
0.0027293077
0.0027783738
0.0028485407
0.002938951
0.0030477313
0.0031717269
0.0033070331
0.003448613
0.0035899886
0.0037248915
0.0038430697
0.0039321328
0.0039856041
0.0040005314
0.0039810979
0.0039345458
0.0038672351
0.0037862822
0.0036964217
0.0036015113
0.0035050388
0.0034082547
0.003312189
0.0032174572
0.0031242164
0.0030320235
0.0029409932
0.0028510552
0.0027614088
0.0026726964
0.0025838697
0.0024930465
0.002400763
0.0023069128
0.0022123668
0.002116704
0.0020187989
0.0019197582
0.0018186136
0.0017160519
0.001611869
0.0015061376
0.0013994797
0.0012914806
0.0011834569
0.0010750709
0.00096816754
0.00086211672
0.00076375681
0.00065959388
0.000609513
0.00036019221
0.00094915147
-0.00083823837
0.029439299
0.026566633
0.022486948
0.018044434
0.013904608
0.010531362
0.0081721282
0.0067811318
0.0060605669
0.0056735116
0.0054092707
0.0051907622
0.0050021765
0.0048353238
0.0046869794
0.0045575242
0.0044431592
0.0043386305
0.0042434667
0.0041569791
0.0040757074
0.0039978319
0.0039245351
0.0038549788
0.0037869242
0.0037196635
0.0036550436
0.0035917498
0.0035276042
0.0034635458
0.0034012569
0.0033396015
0.0032767348
0.0032140518
0.0031530009
0.0030928904
0.0030329011
0.0029743998
0.0029191842
0.0028676142
0.0028200871
0.002778675
0.0027460598
0.0027241331
0.0027147278
0.0027219892
0.0027491999
0.0027972554
0.0028661891
0.0029552463
0.0030625907
0.0031850552
0.0033187529
0.0034587434
0.0035986005
0.0037319365
0.003848558
0.003935741
0.0039882738
0.0040031758
0.0039833504
0.0039369841
0.0038704765
0.003790358
0.0037011024
0.003606623
0.0035105317
0.0034140178
0.0033180744
0.0032233965
0.0031301805
0.0030379603
0.0029468643
0.0028568214
0.0027670315
0.0026781534
0.002589124
0.0024981088
0.0024056537
0.0023116089
0.0022168678
0.002121004
0.0020228952
0.0019236642
0.0018223314
0.0017195939
0.0016152404
0.0015093474
0.0014025365
0.0012943902
0.0011862298
0.0010777117
0.00097068287
0.000864514
0.00076602969
0.00066178626
0.0006121031
0.00037024937
0.00097049533
-0.00082722358
0.028140748
0.025541016
0.021937271
0.017977463
0.014211728
0.011063248
0.0087714438
0.0073273327
0.0065043137
0.006021219
0.0056862889
0.0054184823
0.0051941348
0.0050011128
0.0048324051
0.0046856517
0.0045567232
0.0044403412
0.004334881
0.0042392445
0.0041502907
0.004065955
0.0039867322
0.0039118855
0.0038393705
0.0037683148
0.0037000335
0.0036334631
0.0035666999
0.0035002066
0.0034357133
0.0033722268
0.0033077523
0.0032435849
0.0031811312
0.0031199619
0.0030591489
0.0029998805
0.002943918
0.0028917348
0.0028437596
0.0028019282
0.0027689545
0.0027465809
0.0027365885
0.0027430636
0.0027692653
0.0028160164
0.0028833347
0.0029706034
0.0030760467
0.0031965021
0.003328139
0.0034661782
0.0036042832
0.0037359432
0.003851075
0.0039373859
0.0039898955
0.0040049922
0.003985101
0.0039390905
0.0038733537
0.003793499
0.0037045305
0.0036106916
0.0035151857
0.0034190194
0.0033232891
0.0032287972
0.0031357321
0.0030435519
0.0029524515
0.0028623763
0.0027724961
0.0026834985
0.0025943145
0.0025031533
0.0024105666
0.0023163618
0.0022214594
0.0021254216
0.0020271304
0.0019277283
0.0018262215
0.001723319
0.0016188021
0.0015127515
0.0014057893
0.0012974948
0.0011891953
0.0010805411
0.00097338146
0.00086708906
0.00076846924
0.00066414632
0.00061480942
0.00038090764
0.00099195123
-0.00081448059
0.026953547
0.024594164
0.021403307
0.017874375
0.014453774
0.011522386
0.0093104125
0.0078363239
0.0069313385
0.0063644606
0.005964395
0.0056493735
0.0053898878
0.0051704448
0.0049810459
0.0048168698
0.0046732012
0.00454468
0.00442875
0.0043238412
0.0042270115
0.0041360257
0.0040507901
0.0039705497
0.0038934332
0.0038184518
0.003746416
0.0036765035
0.003607032
0.0035381781
0.0034713516
0.0034057603
0.0033396727
0.0032740315
0.0032101757
0.0031479382
0.0030862667
0.0030261413
0.0029694065
0.0029167052
0.0028683252
0.0028260262
0.0027926004
0.0027697572
0.0027592085
0.0027648807
0.0027899932
0.0028352961
0.0029008071
0.0029860385
0.0030892728
0.0032073435
0.0033364906
0.0034721239
0.0036080126
0.0037375604
0.003850919
0.0039363838
0.0039887154
0.004004263
0.0039853438
0.0039405191
0.0038756309
0.0037960822
0.0037076695
0.0036145384
0.0035191366
0.0034229712
0.0033276161
0.003233477
0.0031405969
0.0030485068
0.0029575072
0.0028674976
0.0027775744
0.0026885196
0.0025992547
0.0025080011
0.0024153331
0.00232102
0.0022260033
0.0021298293
0.0020313905
0.0019318497
0.0018301941
0.0017271482
0.0016224849
0.0015162895
0.0014091852
0.0013007484
0.0011923133
0.001083524
0.00097623213
0.00086981416
0.00077105019
0.0006666515
0.00061758266
0.00039204423
0.0010130002
-0.00079982708
0.025865933
0.023719956
0.020887466
0.017741333
0.014637766
0.011914846
0.0097919106
0.0083075761
0.0073395132
0.0067010057
0.0062418632
0.0058822547
0.0055886605
0.005342885
0.0051326352
0.0049509786
0.0047924632
0.0046515795
0.0045250269
0.0044107425
0.0043058755
0.0042080607
0.0041167033
0.0040309651
0.0039491168
0.0038700718
0.0037942333
0.0037209201
0.0036486338
0.0035773367
0.0035081057
0.0034403569
0.0033726106
0.0033055105
0.0032402438
0.0031767425
0.0031141177
0.0030531931
0.0029956843
0.0029424342
0.0028936227
0.0028508131
0.0028169455
0.0027936773
0.002782556
0.0027873687
0.002811316
0.0028551311
0.0029188241
0.0030019606
0.0031028596
0.0032183573
0.0033447738
0.003477698
0.0036110081
0.0037380529
0.0038492529
0.0039335281
0.0039853377
0.0040012061
0.0039833411
0.0039398254
0.0038760694
0.0037976477
0.0037103738
0.0036179669
0.0035226472
0.0034267005
0.0033318026
0.0032375877
0.0031445396
0.0030526568
0.0029618881
0.0028719623
0.0027820542
0.0026930528
0.0026037908
0.0025124875
0.0024198057
0.0023254509
0.0022303665
0.0021341021
0.0020355627
0.0019359241
0.0018341536
0.0017309962
0.0016262123
0.0015198935
0.0014126648
0.0013040991
0.0011955386
0.0010866208
0.00097920026
0.00087265879
0.00077374502
0.00066927754
0.00062037294
0.00040353132
0.0010330711
-0.00078308661
0.024867513
0.022912252
0.020391221
0.017583919
0.014770307
0.01224649
0.01021909
0.0087410584
0.0077270769
0.0070288166
0.0065170103
0.006115892
0.0057895958
0.0055179104
0.0052868489
0.0050877458
0.0049143542
0.0047609559
0.0046236555
0.0044999089
0.0043868669
0.0042820593
0.0041844713
0.0040931415
0.0040064423
0.0039232087
0.0038435059
0.0037667184
0.0036915117
0.0036176749
0.0035460057
0.0034760693
0.00340659
0.0033379735
0.0032712532
0.0032064423
0.0031428325
0.0030811119
0.0030228387
0.0029688977
0.0029195714
0.0028762821
0.002841959
0.0028182813
0.0028065435
0.0028104283
0.0028331999
0.002875544
0.0029374098
0.0030183947
0.0031168643
0.0032297135
0.0033533371
0.0034834469
0.0036140082
0.0037383362
0.0038471132
0.0039298925
0.0039808375
0.0039967474
0.0039798894
0.0039374509
0.0038748512
0.0037976746
0.0037115143
0.0036199721
0.0035253717
0.0034301492
0.0033356894
0.0032413348
0.0031483088
0.0030566842
0.0029657414
0.0028756072
0.0027858443
0.0026969956
0.0026077417
0.0025164545
0.0024238685
0.0023295324
0.0022344175
0.0021381294
0.0020395424
0.0019398459
0.0018380017
0.0017347726
0.0016299
0.0015234878
0.0014161611
0.0013074875
0.0011988191
0.0010897858
0.00098224592
0.00087558795
0.00077652247
0.00067199724
0.00062312978
0.00041523094
0.0010514949
-0.00076410605
0.023949086
0.022165115
0.019915296
0.017407131
0.014857602
0.012522892
0.010595207
0.0091371407
0.0080926085
0.0073460258
0.0067881971
0.0063490316
0.005991796
0.0056949444
0.0054433211
0.0052269108
0.0050386931
0.0048727001
0.004724561
0.0045912845
0.004469956
0.0043580126
0.004254092
0.0041570841
0.0040654238
0.0039778837
0.0038942468
0.0038139145
0.0037356901
0.0036592278
0.003585081
0.0035129096
0.0034416165
0.0033714235
0.003303216
0.0032370746
0.0031724378
0.0031098771
0.0030508097
0.0029961422
0.0029462686
0.0029025443
0.0028676447
0.0028434456
0.0028311514
0.0028341108
0.0028556761
0.0028965082
0.0029564957
0.0030352736
0.0031312755
0.003241457
0.0033622578
0.0034894806
0.0036171797
0.0037387073
0.0038449834
0.0039261405
0.0039760683
0.003991865
0.0039757552
0.0039341595
0.0038725601
0.0037964894
0.00371137
0.0036207542
0.0035269776
0.0034324198
0.0033384423
0.0032444554
0.0031518932
0.0030604863
0.0029693121
0.0028791582
0.0027895036
0.0027004093
0.0026109827
0.0025198517
0.0024274107
0.0023331014
0.0022380361
0.0021418202
0.0020432268
0.0019435121
0.0018416475
0.0017383862
0.0016334607
0.001526993
0.0014196012
0.0013108469
0.0012020952
0.001092966
0.00098532246
0.0008785604
0.00077934598
0.00067477897
0.00062580226
0.00042699166
0.0010674695
-0.00074277288
0.023102486
0.021472942
0.019459833
0.01721534
0.014905407
0.01274931
0.010923567
0.0094965539
0.0084350408
0.0076509695
0.0070538677
0.0065804331
0.00619434
0.0058733615
0.0056016379
0.0053681765
0.0051652671
0.0049866747
0.0048276491
0.0046847998
0.0045551014
0.0044359032
0.0043255562
0.0042227904
0.0041260685
0.0040341118
0.0039464696
0.0038625258
0.0037811929
0.0037020215
0.00362535
0.0035508943
0.003477714
0.003405889
0.0033361607
0.0032686568
0.0032029408
0.0031394936
0.0030796026
0.0030241897
0.0029737386
0.0029295417
0.0028940737
0.0028692416
0.0028563375
0.0028584307
0.002878727
0.0029179741
0.0029760463
0.0030525845
0.0031460611
0.003253536
0.0033715004
0.0034957807
0.003620558
0.0037392613
0.0038430071
0.0039224723
0.0039713157
0.0039869192
0.0039714443
0.0039305931
0.0038698965
0.0037947099
0.003710496
0.0036207059
0.0035276787
0.0034337131
0.0033402509
0.0032467112
0.0031545407
0.0030633767
0.002972415
0.0028825937
0.0027929655
0.002703609
0.0026142062
0.0025230711
0.0024303773
0.0023360656
0.0022411918
0.0021450457
0.0020464791
0.001946828
0.0018450036
0.0017417432
0.0016368153
0.0015303342
0.0014229111
0.0013141077
0.0012053023
0.0010961019
0.00098837612
0.00088152784
0.0007821726
0.00067758544
0.00062833977
0.0004386472
0.0010800599
-0.00071903344
0.022320456
0.020830536
0.019024541
0.017012283
0.01491901
0.012930709
0.011207486
0.0098203377
0.0087536512
0.0079422033
0.0073125668
0.006808881
0.0063962881
0.0060524907
0.0057613382
0.0055112097
0.0052938334
0.0051027158
0.0049328059
0.0047803709
0.0046422488
0.004515702
0.0043988465
0.004290251
0.004188378
0.0040919042
0.004000186
0.0039125663
0.0038280397
0.0037460771
0.0036668307
0.0035900435
0.0035149074
0.0034413937
0.0033701073
0.0033012055
0.0032343608
0.0031699839
0.0031092408
0.0030530563
0.0030019881
0.0029572742
0.0029212143
0.0028957138
0.0028821518
0.0028833534
0.0029023349
0.0029399416
0.0029960673
0.0030703279
0.0031612398
0.0032659689
0.0033810451
0.0035023257
0.0036241242
0.0037399581
0.0038411576
0.0039188844
0.0039666367
0.0039820302
0.0039671433
0.0039269945
0.0038671424
0.0037927946
0.0037094587
0.0036203087
0.0035279191
0.0034344534
0.0033414213
0.0032482376
0.0031564002
0.0030655102
0.0029748154
0.0028852276
0.0027957
0.0027064973
0.0026173422
0.0025260838
0.0024332015
0.0023390498
0.0022440932
0.0021476762
0.0020492282
0.0019497237
0.0018479411
0.0017447463
0.0016398955
0.0015334373
0.0014260192
0.0013172037
0.001208375
0.0010991312
0.00099134814
0.0008844363
0.00078495353
0.00068037342
0.0006306933
0.00045001781
0.0010882731
-0.0006929096
0.02159654
0.020233126
0.018608821
0.016801106
0.014903223
0.013071757
0.011450256
0.010109779
0.0090480383
0.008218511
0.0075629535
0.0070331985
0.0065966947
0.006231627
0.00592192
0.0056556435
0.0054241202
0.0052206324
0.0050398964
0.0048778977
0.0047313293
0.0045973679
0.0044739367
0.0043594501
0.0042523484
0.0041512671
0.0040554041
0.0039640468
0.0038762469
0.0037914142
0.0037095415
0.0036303762
0.0035532186
0.0034779586
0.0034050746
0.0033347396
0.0032667188
0.0032013685
0.0031397417
0.0030827562
0.0030310312
0.0029857589
0.0029490777
0.0029228819
0.0029086108
0.002908875
0.0029265083
0.0029624391
0.0030165813
0.0030885219
0.0031768239
0.0032787518
0.0033908795
0.003509107
0.0036278785
0.0037408144
0.0038394664
0.003915346
0.0039620203
0.0039772011
0.0039628267
0.0039233684
0.0038643327
0.0037909193
0.0037084525
0.0036198956
0.003527992
0.0034350568
0.0033423908
0.0032494035
0.0031577907
0.0030671038
0.0029766069
0.0028871993
0.0027978089
0.0027087798
0.0026197446
0.0025285358
0.0024358755
0.002341953
0.002246795
0.002150259
0.0020518996
0.0019522353
0.0018503872
0.0017473749
0.0016425961
0.0015361984
0.0014288504
0.0013200681
0.0012112468
0.0011019948
0.00099417888
0.00088723179
0.00078763713
0.00068309582
0.00063281799
0.00046091557
0.001091246
-0.00066450851
0.020924989
0.019676374
0.018211875
0.016584416
0.014862379
0.013176822
0.011655105
0.010366357
0.009318097
0.0084789106
0.0078038182
0.0072522639
0.0067946218
0.006410042
0.0060828458
0.0058010782
0.0055558266
0.0053402059
0.0051487632
0.0049772628
0.0048222595
0.0046808468
0.0045507908
0.0044303642
0.0043179688
0.0042122007
0.0041121279
0.0040169747
0.003925828
0.0038380504
0.0037534991
0.0036719094
0.0035926677
0.003515604
0.0034410821
0.0033692779
0.0033000344
0.0032336658
0.0031711217
0.0031133047
0.0030608838
0.0030150106
0.0029776777
0.0029507536
0.0029357214
0.0029350037
0.002951259
0.002985476
0.0030375917
0.0031071693
0.0031928162
0.0032918907
0.0034010179
0.0035161439
0.0036318404
0.0037418393
0.0038379217
0.0039118805
0.0039574645
0.0039724132
0.0039585097
0.0039197321
0.0038615071
0.0037890251
0.0037073758
0.0036196074
0.0035280481
0.0034357059
0.0033433464
0.0032505118
0.003159055
0.0030684592
0.0029780526
0.0028887449
0.0027994339
0.002710521
0.0026215679
0.0025304673
0.0024380006
0.0023441968
0.0022491143
0.0021528114
0.0020544655
0.001954639
0.0018528807
0.0017498211
0.0016448145
0.0015385644
0.0014313307
0.0013225989
0.0012138437
0.001104631
0.0009968092
0.00088986588
0.00079017308
0.00068570609
0.00063467895
0.00047115348
0.0010884533
-0.00063401946
0.02030068
0.019156358
0.017832783
0.016364347
0.014800336
0.013249962
0.011825176
0.010591701
0.0095639882
0.0087226536
0.0080340942
0.007465024
0.0069891513
0.0065869944
0.0062435487
0.0059470834
0.0056886236
0.0054611913
0.0052592258
0.0050783308
0.0049149403
0.004766071
0.0046293627
0.0045029613
0.0043852208
0.0042746991
0.004170357
0.0040713536
0.0039767932
0.0038860004
0.0037987183
0.0037146585
0.0036332734
0.0035543492
0.003478148
0.0034048383
0.003334326
0.0032668938
0.0032033974
0.0031447172
0.0030915607
0.0030450435
0.0030070255
0.002979338
0.0029634938
0.0029617504
0.0029765951
0.003009058
0.0030591038
0.0031262766
0.003209224
0.0033053949
0.0034114703
0.0035234456
0.0036360172
0.0037430449
0.0038364848
0.0039085258
0.0039529888
0.0039676684
0.003954188
0.0039160775
0.0038586738
0.0037871211
0.0037062781
0.0036193043
0.0035281664
0.0034363585
0.0033442985
0.0032516918
0.0031603628
0.0030697985
0.0029794436
0.0028901543
0.0028008142
0.0027119258
0.0026229911
0.0025319538
0.0024396294
0.0023459327
0.0022509916
0.0021548337
0.0020565474
0.0019568717
0.001855333
0.0017521177
0.00164703
0.0015408569
0.0014334636
0.0013247414
0.0012161252
0.0011069451
0.00099917358
0.00089228367
0.00079250909
0.00068815925
0.00063625964
0.00048055939
0.0010798008
-0.00060171301
0.019719049
0.018669547
0.017470565
0.016142623
0.014720502
0.013294925
0.011963503
0.010787542
0.0097861059
0.0089492187
0.0082528671
0.007670507
0.0071793971
0.0067617399
0.0064034394
0.0060932014
0.0058221555
0.0055833177
0.0053710812
0.0051809475
0.0050092564
0.0048529588
0.0047095943
0.0045772004
0.0044540785
0.0043387492
0.0042300858
0.0041271831
0.0040291488
0.0039352758
0.0038452116
0.003758637
0.0036750524
0.0035942123
0.0035162898
0.0034414375
0.0033696113
0.0033010699
0.0032365848
0.0031770085
0.0031230762
0.0030758708
0.0030371322
0.003008645
0.0029919384
0.0029891235
0.003002523
0.0030331918
0.0030811248
0.0031458513
0.0032260551
0.0033192726
0.0034222451
0.0035310204
0.003640419
0.0037444419
0.0038351712
0.0039052939
0.0039485993
0.0039629721
0.0039498644
0.0039124034
0.0038558202
0.0037851968
0.0037051804
0.0036189107
0.0035284022
0.0034370261
0.0033452581
0.0032529034
0.0031617019
0.0030712164
0.0029809291
0.0028915985
0.0028021753
0.002713254
0.0026242442
0.0025331762
0.0024409185
0.0023472856
0.0022524555
0.0021564006
0.0020582064
0.0019586781
0.0018572512
0.0017541051
0.0016492436
0.0015430656
0.0014355556
0.0013268904
0.0012181849
0.0011088892
0.0010012578
0.00089439221
0.00079457287
0.00069039638
0.00063754392
0.00048899688
0.0010655862
-0.00056796716
0.019176023
0.018212777
0.017124226
0.015920626
0.01462586
0.013315141
0.012072992
0.010955684
0.0099850433
0.0091583002
0.0084593808
0.0078678332
0.0073645163
0.0069335424
0.0065619143
0.006238952
0.0059560425
0.0057062896
0.0054841032
0.0052849393
0.0051050758
0.0049414134
0.0047914155
0.0046530302
0.004524507
0.0044043308
0.0042913029
0.0041844582
0.0040828969
0.0039858845
0.0038929891
0.0038038562
0.0037180193
0.0036352099
0.0035555235
0.0034790912
0.0034059069
0.0033362108
0.0032706993
0.0032101925
0.0031554438
0.0031075054
0.0030680087
0.003038684
0.0030210644
0.0030171311
0.0030290493
0.0030578842
0.0031036617
0.0031659
0.0032433166
0.0033335316
0.003433351