/*--------------------------------*- C++ -*----------------------------------*\
| =========                 |                                                 |
| \\      /  F ield         | OpenFOAM: The Open Source CFD Toolbox           |
|  \\    /   O peration     | Version:  2206                                  |
|   \\  /    A nd           | Website:  www.openfoam.com                      |
|    \\/     M anipulation  |                                                 |
\*---------------------------------------------------------------------------*/
FoamFile
{
    version     2.0;
    format      ascii;
    arch        "LSB;label=32;scalar=64";
    class       surfaceScalarField;
    location    "200";
    object      phi;
}
// * * * * * * * * * * * * * * * * * * * * * * * * * * * * * * * * * * * * * //

dimensions      [0 3 -1 0 0 0 0];

oriented        oriented;

internalField   nonuniform List<scalar> 
14782
(
0.00061767434
8.7779815e-05
-0.00070545415
0.00051028156
0.00010739278
0.00040011182
0.00011016974
0.00030665143
9.3460387e-05
0.00023997992
6.6671518e-05
0.00019924489
4.0735024e-05
0.00017533039
2.3914502e-05
0.00016115915
1.4171245e-05
0.00015174987
9.4092787e-06
0.00014418108
7.5687848e-06
0.00013731016
6.8709213e-06
0.00013094777
6.3623904e-06
0.0001251384
5.8093672e-06
0.00011984484
5.2935633e-06
0.00011500872
4.8361252e-06
0.00011060532
4.4033964e-06
0.00010659873
4.0065883e-06
0.0001029078
3.6909344e-06
9.948047e-05
3.4273261e-06
9.6296831e-05
3.1836394e-06
9.3335192e-05
2.9616389e-06
9.0560791e-05
2.7744011e-06
8.7952295e-05
2.6084957e-06
8.5500306e-05
2.4519889e-06
8.3191999e-05
2.3083076e-06
8.100876e-05
2.1832386e-06
7.8939604e-05
2.0691562e-06
7.6979758e-05
1.9598464e-06
7.5121899e-05
1.8578585e-06
7.3356564e-05
1.7653354e-06
7.1678613e-05
1.6779504e-06
7.0085695e-05
1.5929181e-06
6.8573622e-05
1.5120732e-06
6.7137692e-05
1.43593e-06
6.5775696e-05
1.3619961e-06
6.4486727e-05
1.2889691e-06
6.3269071e-05
1.2176556e-06
6.212172e-05
1.1473507e-06
6.1045588e-05
1.0761325e-06
6.0042412e-05
1.0031764e-06
5.9113414e-05
9.2899762e-07
5.8260248e-05
8.5316601e-07
5.7486146e-05
7.741019e-07
5.6793689e-05
6.9245696e-07
5.6188732e-05
6.0495676e-07
5.5679916e-05
5.0881648e-07
5.5276359e-05
4.0355702e-07
5.4982341e-05
2.9401774e-07
5.4797384e-05
1.84957e-07
5.4720032e-05
7.7352137e-08
5.4746174e-05
-2.6142026e-08
5.4868996e-05
-1.2282227e-07
5.5076286e-05
-2.0729003e-07
5.5348218e-05
-2.7193184e-07
5.5671636e-05
-3.2341811e-07
5.6033769e-05
-3.6213225e-07
5.6401086e-05
-3.6731697e-07
5.6737008e-05
-3.3592277e-07
5.7006021e-05
-2.6901271e-07
5.7192116e-05
-1.8609431e-07
5.7292444e-05
-1.0032798e-07
5.7310643e-05
-1.8199875e-08
5.7256728e-05
5.3915775e-08
5.7144025e-05
1.1270233e-07
5.6985997e-05
1.5802786e-07
5.6794567e-05
1.9143053e-07
5.6580469e-05
2.1409778e-07
5.6351509e-05
2.2895995e-07
5.6113531e-05
2.3797797e-07
5.5870994e-05
2.425374e-07
5.5627137e-05
2.4385654e-07
5.5383661e-05
2.4347624e-07
5.5142085e-05
2.4157585e-07
5.4903675e-05
2.3840969e-07
5.4668334e-05
2.3534134e-07
5.443667e-05
2.3166414e-07
5.4205373e-05
2.3129697e-07
5.3969991e-05
2.3538148e-07
5.373183e-05
2.3816106e-07
5.3492216e-05
2.396142e-07
5.3252049e-05
2.4016692e-07
5.3011224e-05
2.4082537e-07
5.2768487e-05
2.4273671e-07
5.2524022e-05
2.4446524e-07
5.2277227e-05
2.4679482e-07
5.2028361e-05
2.4886579e-07
5.1777498e-05
2.5086376e-07
5.1524744e-05
2.5275332e-07
5.1270622e-05
2.541221e-07
5.1014987e-05
2.556352e-07
5.0758419e-05
2.5656839e-07
5.0500773e-05
2.5764591e-07
5.024221e-05
2.5856238e-07
4.9982424e-05
2.5978619e-07
4.9720586e-05
2.6183827e-07
4.945675e-05
2.6383642e-07
4.9211344e-05
2.4540516e-07
4.8808069e-05
4.0327529e-07
4.8817529e-05
-9.4602674e-09
8.4104901e-07
0.0007917429
9.1056251e-05
-0.00079501933
0.00077876746
0.00012036822
0.00075192749
0.0001370097
0.00070877646
0.00013661142
0.0006552367
0.00012021127
0.00060115165
9.4820079e-05
0.00055306118
7.2004973e-05
0.00051312641
5.4106014e-05
0.00048026334
4.2272354e-05
0.00045276503
3.5067088e-05
0.00042913498
3.0500975e-05
0.00040847163
2.702574e-05
0.00039016167
2.4119332e-05
0.00037371946
2.173577e-05
0.00035880268
1.9752901e-05
0.00034520758
1.7998504e-05
0.00033276078
1.6453388e-05
0.00032128589
1.5165824e-05
0.00031064799
1.4065222e-05
0.00030075664
1.3074988e-05
0.00029153392
1.2184366e-05
0.00028289818
1.1410141e-05
0.00027478709
1.071958e-05
0.0002671548
1.0084277e-05
0.00025995783
9.5052803e-06
0.00025315249
8.9885807e-06
0.00024670597
8.5156717e-06
0.00024059562
8.0702002e-06
0.00023479896
7.6545145e-06
0.00022929273
7.2715647e-06
0.0002240601
6.9105879e-06
0.00021908965
6.5633643e-06
0.00021436964
6.2320803e-06
0.00020988862
5.9169573e-06
0.00020563916
5.6114557e-06
0.00020161707
5.3110594e-06
0.00019781866
5.0160608e-06
0.00019424229
4.7237211e-06
0.00019089016
4.4282675e-06
0.00018776717
4.1261592e-06
0.00018487889
3.8172796e-06
0.00018223251
3.4995502e-06
0.00017983833
3.1682774e-06
0.00017770684
2.8239466e-06
0.00017585982
2.4519734e-06
0.00017431271
2.055934e-06
0.00017308765
1.6286113e-06
0.00017220068
1.1809914e-06
0.00017164752
7.3811605e-07
0.00017142024
3.046279e-07
0.00017150316
-1.0906123e-07
0.0001718722
-4.9185824e-07
0.00017248848
-8.2357316e-07
0.00017329698
-1.0804332e-06
0.00017424961
-1.2760423e-06
0.00017529154
-1.4040633e-06
0.00017632875
-1.4045235e-06
0.00017726196
-1.2691315e-06
0.00017799451
-1.0015675e-06
0.00017848657
-6.7815805e-07
0.00017873261
-3.4636229e-07
0.00017874254
-2.8132482e-08
0.00017854532
2.5113662e-07
0.00017817747
4.8055074e-07
0.00017767767
6.5783185e-07
0.00017708049
7.8860803e-07
0.00017641602
8.785698e-07
0.00017570722
9.3775597e-07
0.00017497145
9.7374601e-07
0.0001742218
9.9219414e-07
0.00017346766
9.9799333e-07
0.0001727147
9.9643121e-07
0.00017196753
9.8874628e-07
0.00017122961
9.7633545e-07
0.00017050152
9.6342376e-07
0.00016978402
9.4917222e-07
0.00016906615
9.4916309e-07
0.00016833615
9.6538241e-07
0.0001675983
9.7601193e-07
0.00016685684
9.8107814e-07
0.00016611353
9.8347177e-07
0.00016536766
9.8669338e-07
0.00016461654
9.9385914e-07
0.00016385982
1.0011842e-06
0.00016309633
1.0102844e-06
0.00016232651
1.0186926e-06
0.00016155066
1.0267137e-06
0.00016076934
1.0340725e-06
0.00015998376
1.039701e-06
0.00015919412
1.0452739e-06
0.00015840166
1.0490278e-06
0.00015760664
1.0526669e-06
0.00015680908
1.0561229e-06
0.00015600971
1.0591565e-06
0.00015520256
1.0689827e-06
0.00015440005
1.0663499e-06
0.00015359059
1.054865e-06
0.00015257475
1.4191166e-06
0.00015202118
5.4410874e-07
2.5339642e-06
0.00083154227
8.6586043e-05
-0.00082707206
0.00083705883
0.00011485165
0.00084158741
0.00013248112
0.00084049117
0.00013770766
0.00083137564
0.0001293268
0.0008140926
0.00011210312
0.00079124794
9.484963e-05
0.00076525485
8.0099101e-05
0.00073801439
6.9512823e-05
0.00071103765
6.2043827e-05
0.00068516419
5.6374434e-05
0.00066069105
5.1498883e-05
0.00063762613
4.718425e-05
0.00061586688
4.349502e-05
0.00059534821
4.0271566e-05
0.00057604065
3.7306067e-05
0.0005578857
3.4608338e-05
0.00054078878
3.2262744e-05
0.00052466577
3.0188234e-05
0.00050945155
2.8289208e-05
0.00049508071
2.6555201e-05
0.00048147951
2.5011341e-05
0.00046858769
2.3611402e-05
0.00045635783
2.231414e-05
0.00044474375
2.1119356e-05
0.000433697
2.0035333e-05
0.00042317861
1.9034058e-05
0.00041315876
1.8090056e-05
0.00040360869
1.7204585e-05
0.00039450024
1.6380014e-05
0.00038581195
1.5598872e-05
0.00037752804
1.4847275e-05
0.00036963351
1.4126609e-05
0.00036211482
1.343565e-05
0.00035496315
1.2763129e-05
0.00034817387
1.2100331e-05
0.00034174429
1.1445645e-05
0.00033567472
1.0793294e-05
0.00032997013
1.0132859e-05
0.00032463932
9.4569623e-06
0.00031969316
8.7634468e-06
0.00031514543
8.0472798e-06
0.00031101408
7.2996245e-06
0.00030731841
6.5196184e-06
0.00030408932
5.681059e-06
0.00030135368
4.7915719e-06
0.00029913445
3.8478416e-06
0.00029744484
2.8706073e-06
0.00029627703
1.9059225e-06
0.0002956128
9.6886102e-07
0.00029542179
8.1942954e-08
0.00029566124
-7.3130521e-07
0.00029626954
-1.4318668e-06
0.0002971659
-1.9767938e-06
0.00029827216
-2.3823077e-06
0.00029949335
-2.6252487e-06
0.00030069085
-2.6020296e-06
0.00030172685
-2.3051293e-06
0.00030248113
-1.7558486e-06
0.00030290004
-1.097066e-06
0.00030297662
-4.2294586e-07
0.00030272813
2.2035959e-07
0.00030219463
7.8463293e-07
0.00030142752
1.2476661e-06
0.00030047989
1.6054564e-06
0.00029939938
1.8691242e-06
0.00029822725
2.0506922e-06
0.00029699593
2.1690816e-06
0.00029573024
2.2394307e-06
0.00029444899
2.2734469e-06
0.00029316566
2.281329e-06
0.00029188887
2.2732209e-06
0.0002906255
2.2521126e-06
0.00028938047
2.2213641e-06
0.00028815506
2.1888309e-06
0.00028694942
2.1548164e-06
0.00028574623
2.1523535e-06
0.00028453059
2.1810193e-06
0.00028331024
2.1963661e-06
0.00028208972
2.2015927e-06
0.00028086969
2.2035031e-06
0.00027964824
2.2081428e-06
0.00027842166
2.2204459e-06
0.00027718858
2.2342631e-06
0.00027594729
2.251569e-06
0.00027469795
2.2680389e-06
0.00027344083
2.2838336e-06
0.00027217667
2.2982318e-06
0.00027090692
2.3094524e-06
0.0002696321
2.3200866e-06
0.00026835367
2.3274628e-06
0.00026707233
2.3340075e-06
0.00026578782
2.340632e-06
0.000264502
2.3449798e-06
0.00026320414
2.3668374e-06
0.00026191935
2.351139e-06
0.0002605902
2.3840157e-06
0.00025910512
2.9041953e-06
0.00025783468
1.8145519e-06
4.6202613e-06
0.00086133119
8.2257496e-05
-0.00085700264
0.00086786627
0.00010831657
0.00087515621
0.00012519117
0.00088218138
0.0001306825
0.00088608912
0.00012541906
0.00088507268
0.00011311956
0.00088098666
9.8935651e-05
0.00087426455
8.6821214e-05
0.00086517823
7.8599138e-05
0.00085397377
7.324829e-05
0.00084098123
6.936698e-05
0.0008264015
6.6078611e-05
0.00081059957
6.2986183e-05
0.0007941651
5.9929491e-05
0.00077743728
5.6999377e-05
0.00076064159
5.4101761e-05
0.00074391705
5.1332879e-05
0.00072735117
4.8828623e-05
0.00071102894
4.651046e-05
0.00069502925
4.4288904e-05
0.00067940719
4.2177258e-05
0.00066418977
4.0228763e-05
0.00064939862
3.8402555e-05
0.00063505204
3.6660712e-05
0.00062115889
3.501251e-05
0.00060771579
3.3478432e-05
0.00059471962
3.2030233e-05
0.00058216827
3.0641404e-05
0.00057005534
2.9317508e-05
0.00055837128
2.8064076e-05
0.00054710966
2.686049e-05
0.00053626665
2.5690288e-05
0.00052583752
2.4555742e-05
0.00051581811
2.3455061e-05
0.00050620833
2.2372904e-05
0.00049701209
2.129657e-05
0.00048823435
2.0223387e-05
0.00047988148
1.9146165e-05
0.00047196352
1.805082e-05
0.00046449417
1.692631e-05
0.00045748958
1.5768044e-05
0.0004509692
1.4567656e-05
0.00044495647
1.331235e-05
0.00043947752
1.199857e-05
0.00043456563
1.0592949e-05
0.00043024842
9.1087834e-06
0.00042653724
7.5590257e-06
0.00042343146
5.9763795e-06
0.00042091808
4.4193028e-06
0.00041897338
2.9135681e-06
0.00041756326
1.4920652e-06
0.00041663846
1.9348629e-07
0.00041612845
-9.2185318e-07
0.00041594991
-1.7982504e-06
0.00041601664
-2.4490394e-06
0.00041621098
-2.8195914e-06
0.00041638054
-2.7715866e-06
0.00041639502
-2.3196052e-06
0.00041615658
-1.5174093e-06
0.00041562473
-5.652166e-07
0.0004147968
4.0497938e-07
0.00041369201
1.3251479e-06
0.00041234796
2.1286835e-06
0.00041080898
2.7866444e-06
0.00040912074
3.2936992e-06
0.0004073251
3.6647611e-06
0.00040545941
3.9163819e-06
0.00040355394
4.0745519e-06
0.00040163255
4.1608221e-06
0.00039971358
4.1924141e-06
0.00039781024
4.184668e-06
0.0003959314
4.1520686e-06
0.00039408429
4.0992193e-06
0.00039227379
4.03186e-06
0.00039050097
3.9616517e-06
0.00038876455
3.8912367e-06
0.00038705918
3.8577259e-06
0.00038537742
3.8627835e-06
0.00038371454
3.8592406e-06
0.00038206657
3.8495667e-06
0.00038043056
3.8395093e-06
0.00037880298
3.8357221e-06
0.00037717904
3.8443877e-06
0.00037555609
3.8572124e-06
0.0003739315
3.8761653e-06
0.00037230448
3.8950558e-06
0.00037067466
3.9136506e-06
0.00036904226
3.9306377e-06
0.00036740824
3.9434688e-06
0.00036577287
3.9554594e-06
0.00036413717
3.9631561e-06
0.00036250183
3.9693542e-06
0.00036086599
3.9764673e-06
0.00035923204
3.9789275e-06
0.00035758595
4.0129285e-06
0.00035595955
3.9775438e-06
0.00035427077
4.0727982e-06
0.00035247485
4.7001062e-06
0.00035066947
3.6199336e-06
6.8522899e-06
0.0008916187
7.8534089e-05
-0.0008878953
0.00089765047
0.00010228481
0.00090485643
0.00011798522
0.00091176132
0.0001237776
0.00091692803
0.00012025236
0.00091985486
0.00011019273
0.00092049485
9.8295661e-05
0.00091935255
8.7963509e-05
0.00091746561
8.0486085e-05
0.00091491414
7.5799763e-05
0.0009116241
7.2657013e-05
0.00090737552
7.0327191e-05
0.00090192342
6.8438282e-05
0.0008952072
6.6645715e-05
0.0008872998
6.4906775e-05
0.00087822292
6.3178638e-05
0.00086812736
6.142844e-05
0.00085730118
5.9654809e-05
0.00084590734
5.7904299e-05
0.00083406687
5.6129372e-05
0.00082187811
5.4366019e-05
0.0008094194
5.2687474e-05
0.00079676853
5.1053422e-05
0.00078400434
4.9424905e-05
0.00077119593
4.7820916e-05
0.00075839929
4.6275068e-05
0.0007456672
4.4762329e-05
0.00073304709
4.3261511e-05
0.00072057677
4.1787832e-05
0.00070828649
4.0354351e-05
0.0006962052
3.8941786e-05
0.00068436002
3.7535459e-05
0.00067277396
3.6141802e-05
0.00066146814
3.4760887e-05
0.00065046622
3.3374822e-05
0.00063979424
3.1968547e-05
0.00062947282
3.0544811e-05
0.00061951806
2.910092e-05
0.00060994932
2.7619567e-05
0.00060078955
2.6086074e-05
0.00059206375
2.4493848e-05
0.00058379951
2.2831893e-05
0.00057602729
2.1084574e-05
0.00056878369
1.9242165e-05
0.00056209941
1.7277235e-05
0.000555986
1.5222192e-05
0.00055043929
1.3105736e-05
0.00054545265
1.0963018e-05
0.0005410203
8.8516509e-06
0.00053712884
6.8050272e-06
0.00053375477
4.8661407e-06
0.00053085748
3.0907722e-06
0.00052837397
1.5616608e-06
0.00052624023
3.3548498e-07
0.00052436485
-5.7365408e-07
0.00052260145
-1.0561979e-06
0.00052081508
-9.8520695e-07
0.00051893301
-4.3754239e-07
0.00051691523
5.003735e-07
0.00051475053
1.5994868e-06
0.00051244396
2.7115477e-06
0.00051000864
3.760461e-06
0.00050746483
4.6725016e-06
0.00050483575
5.4157204e-06
0.00050214669
5.9827533e-06
0.00049942216
6.3892968e-06
0.00049668555
6.652995e-06
0.00049395675
6.8033448e-06
0.00049125222
6.8653572e-06
0.00048858493
6.8597005e-06
0.00048596426
6.8053404e-06
0.00048339696
6.7193632e-06
0.00048088885
6.6073357e-06
0.00047844312
6.4775854e-06
0.00047605949
6.3452794e-06
0.00047373512
6.2156071e-06
0.00047147121
6.1216443e-06
0.00046926612
6.0678693e-06
0.00046710936
6.0160005e-06
0.00046499087
5.9680601e-06
0.00046290414
5.9262405e-06
0.00046084373
5.8961307e-06
0.00045880365
5.8844699e-06
0.00045677987
5.8809829e-06
0.0004547686
5.8874446e-06
0.00045276775
5.8959016e-06
0.00045077582
5.9055757e-06
0.00044879199
5.9144726e-06
0.00044681623
5.9192252e-06
0.00044484802
5.9236737e-06
0.00044288757
5.9236096e-06
0.00044093501
5.9219134e-06
0.00043898863
5.9228435e-06
0.00043705072
5.9168395e-06
0.00043510491
5.958738e-06
0.00043318551
5.8969389e-06
0.00043119959
6.0587223e-06
0.00042914696
6.752731e-06
0.00042691071
5.8561908e-06
9.1792027e-06
0.00092300937
7.5204635e-05
-0.00091967991
0.00092852759
9.6766585e-05
0.0009350998
0.00011141301
0.00094151826
0.00011735914
0.00094666814
0.00011510248
0.00094991071
0.00010695016
0.00095149816
9.6708207e-05
0.00095187371
8.758796e-05
0.00095153495
8.0824842e-05
0.00095102327
7.6311452e-05
0.00095037542
7.3304856e-05
0.00094952559
7.1177019e-05
0.00094837465
6.9589229e-05
0.00094679595
6.8224413e-05
0.0009447124
6.6990328e-05
0.00094198814
6.5902897e-05
0.00093848255
6.4934031e-05
0.00093415407
6.3983292e-05
0.00092900868
6.3049689e-05
0.00092302579
6.2112259e-05
0.00091625889
6.1132915e-05
0.00090883542
6.0110946e-05
0.00090083132
5.9057523e-05
0.00089230541
5.7950811e-05
0.00088331003
5.68163e-05
0.00087389768
5.5687415e-05
0.0008641249
5.4535117e-05
0.0008540459
5.3340507e-05
0.00084371328
5.2120454e-05
0.00083317856
5.0889067e-05
0.00082249426
4.962609e-05
0.00081171142
4.8318293e-05
0.00080087635
4.6976873e-05
0.00079003194
4.5605304e-05
0.00077922098
4.4185781e-05
0.00076848638
4.2703143e-05
0.00075787011
4.1161078e-05
0.0007474138
3.9557228e-05
0.00073715906
3.7874315e-05
0.0007271473
3.6097827e-05
0.00071741953
3.4221618e-05
0.0007080181
3.2233323e-05
0.00069898769
3.0114986e-05
0.00069038605
2.784381e-05
0.00068222046
2.5442821e-05
0.00067446905
2.2973607e-05
0.00066715432
2.0420463e-05
0.0006603071
1.7810234e-05
0.00065394577
1.5212985e-05
0.00064807033
1.2680463e-05
0.00064266301
1.0273464e-05
0.00063768496
8.0688175e-06
0.0006330857
6.1609207e-06
0.00062883723
4.5839605e-06
0.00062481015
3.4534229e-06
0.00062081418
2.9397787e-06
0.00061679715
3.0318218e-06
0.00061278562
3.5739831e-06
0.00060879377
4.4922205e-06
0.00060482539
5.5678755e-06
0.00060088371
6.6532217e-06
0.0005969717
7.6724699e-06
0.00059309137
8.5528342e-06
0.00058924628
9.2608116e-06
0.00058544284
9.7861939e-06
0.00058168842
1.0143716e-05
0.00057799158
1.0349834e-05
0.00057436033
1.0434593e-05
0.00057080199
1.0423694e-05
0.00056732288
1.0338812e-05
0.00056392813
1.0200093e-05
0.00056062088
1.0026611e-05
0.00055740322
9.8250027e-06
0.00055427572
9.6050844e-06
0.00055123624
9.3847543e-06
0.00054828078
9.1710643e-06
0.00054540762
8.9948077e-06
0.0005426153
8.8601919e-06
0.00053989692
8.7343776e-06
0.0005372425
8.6224853e-06
0.00053464387
8.5248696e-06
0.00053209412
8.4458765e-06
0.00052958617
8.3924221e-06
0.00052711478
8.3523759e-06
0.00052467494
8.3272824e-06
0.00052226325
8.3075888e-06
0.00051987689
8.2919428e-06
0.00051751372
8.2776344e-06
0.00051517249
8.2604549e-06
0.00051285175
8.2444192e-06
0.00051055071
8.2246473e-06
0.00050826844
8.2041883e-06
0.00050600208
8.1891996e-06
0.00050375332
8.1655971e-06
0.00050150421
8.2078511e-06
0.00049928882
8.112325e-06
0.00049700978
8.3377617e-06
0.00049469852
9.0639946e-06
0.00049206892
8.485794e-06
1.1633172e-05
0.00095538573
7.2205956e-05
-0.00095238705
0.00096046937
9.1682945e-05
0.00096653829
0.0001053441
0.00097250737
0.00011139005
0.00097739006
0.00011021979
0.0009806359
0.00010370432
0.0009823879
9.4956203e-05
0.00098314859
8.6827275e-05
0.00098335942
8.0614008e-05
0.0009833449
7.6325979e-05
0.00098325568
7.3394071e-05
0.00098314054
7.1292161e-05
0.00098299586
6.9733906e-05
0.0009827576
6.8462671e-05
0.00098237998
6.7367954e-05
0.00098182535
6.6457522e-05
0.00098104403
6.5715355e-05
0.00097997286
6.5054458e-05
0.00097856138
6.4461176e-05
0.00097672298
6.3950653e-05
0.00097436483
6.3491065e-05
0.00097144547
6.3030313e-05
0.00096794356
6.2559429e-05
0.00096382727
6.2067103e-05
0.00095911123
6.1532339e-05
0.0009538461
6.0952542e-05
0.00094806008
6.0321139e-05
0.00094177805
5.9622538e-05
0.00093502301
5.8875492e-05
0.00092782099
5.8091084e-05
0.00092020518
5.7241901e-05
0.00091221156
5.6311915e-05
0.00090387166
5.531677e-05
0.00089521755
5.4259417e-05
0.00088628755
5.3115783e-05
0.00087712113
5.1869563e-05
0.00086776033
5.0521878e-05
0.00085825229
4.9065267e-05
0.00084864654
4.7480071e-05
0.00083899369
4.5750676e-05
0.00082934526
4.3870043e-05
0.00081975487
4.1823715e-05
0.00081027964
3.9590218e-05
0.00080098004
3.7143409e-05
0.00079190536
3.4517503e-05
0.00078307949
3.1799475e-05
0.00077451953
2.8980423e-05
0.00076625647
2.6073291e-05
0.00075832112
2.3148333e-05
0.00075073316
2.0268431e-05
0.00074349689
1.7509731e-05
0.0007365976
1.496811e-05
0.0007300207
1.2737822e-05
0.000723773
1.0831657e-05
0.00071777308
9.453343e-06
0.00071188196
8.8308986e-06
0.00070606055
8.8532281e-06
0.00070032911
9.3054246e-06
0.00069469942
1.0121913e-05
0.00068917575
1.1091542e-05
0.00068376588
1.2063094e-05
0.0006784746
1.296375e-05
0.00067329996
1.3727472e-05
0.00066824126
1.4319515e-05
0.00066329938
1.472807e-05
0.00065847404
1.4969055e-05
0.00065376575
1.5058129e-05
0.00064917547
1.5024875e-05
0.00064470434
1.4894816e-05
0.00064035349
1.468967e-05
0.00063612443
1.442915e-05
0.00063201732
1.4133725e-05
0.00062803113
1.3811191e-05
0.00062416402
1.3472187e-05
0.00062041199
1.3136787e-05
0.00061677001
1.2813048e-05
0.0006132338
1.2531019e-05
0.00060980026
1.229373e-05
0.00060646462
1.2070013e-05
0.00060321863
1.1868476e-05
0.00060005425
1.1689255e-05
0.00059696395
1.1536174e-05
0.0005939399
1.1416474e-05
0.00059097588
1.1316395e-05
0.00058806582
1.1237342e-05
0.00058520503
1.1168375e-05
0.00058238934
1.1107633e-05
0.00057961526
1.1051719e-05
0.00057688012
1.0995594e-05
0.00057418131
1.094323e-05
0.00057151685
1.0889103e-05
0.00056888457
1.0836468e-05
0.0005662804
1.0793373e-05
0.00056370509
1.0740902e-05
0.00056113944
1.0773501e-05
0.0005586161
1.0635669e-05
0.00055603527
1.0918592e-05
0.00055345367
1.1645591e-05
0.0005504463
1.149317e-05
1.4245335e-05
0.00098878841
6.9476974e-05
-0.00098605943
0.00099346572
8.7005636e-05
0.00099909578
9.9714042e-05
0.001004677
0.00010580885
0.0010093339
0.00010556286
0.0010125571
0.00010048108
0.0010144055
9.3107858e-05
0.0010153049
8.5927857e-05
0.0010156913
8.0227638e-05
0.0010158639
7.6153408e-05
0.0010159622
7.3295753e-05
0.0010160321
7.122226e-05
0.0010161009
6.9665125e-05
0.0010161547
6.8408836e-05
0.0010161655
6.7357139e-05
0.0010161293
6.6493758e-05
0.0010160422
6.5802375e-05
0.0010158781
6.5218608e-05
0.0010156158
6.4723504e-05
0.001015231
6.4335414e-05
0.0010146884
6.403364e-05
0.001013947
6.3771745e-05
0.0010129666
6.3539849e-05
0.001011686
6.3347702e-05
0.0010100424
6.317594e-05
0.0010079983
6.2996604e-05
0.001005522
6.2797415e-05
0.0010025828
6.2561814e-05
0.00099918005
6.2278209e-05
0.00099532774
6.1943392e-05
0.0009910281
6.1541539e-05
0.00098628272
6.1057294e-05
0.00098109633
6.0503159e-05
0.00097547785
5.9877896e-05
0.00096943927
5.9154369e-05
0.0009629947
5.8314133e-05
0.00095615968
5.7356895e-05
0.00094895077
5.6274172e-05
0.00094138665
5.5044191e-05
0.00093349276
5.3644565e-05
0.00092530047
5.2062337e-05
0.00091684539
5.0278796e-05
0.00090816991
4.8265693e-05
0.00089931271
4.6000614e-05
0.00089035374
4.3476471e-05
0.00088138828
4.0764939e-05
0.00087244999
3.7918707e-05
0.00086355994
3.4963343e-05
0.00085475181
3.195646e-05
0.00084606498
2.8955268e-05
0.00083753993
2.603478e-05
0.00082921359
2.329445e-05
0.00082111449
2.0836922e-05
0.00081325035
1.8695799e-05
0.00080566469
1.7039002e-05
0.00079833946
1.615613e-05
0.00079119419
1.5998493e-05
0.00078419308
1.6306534e-05
0.00077730463
1.7010369e-05
0.00077052758
1.7868593e-05
0.00076387656
1.8714111e-05
0.00075736056
1.9479743e-05
0.0007509838
2.0104236e-05
0.00074475576
2.0547557e-05
0.00073868297
2.0800853e-05
0.00073276595
2.0886077e-05
0.00072700582
2.0818264e-05
0.00072140363
2.0627067e-05
0.00071595876
2.0339685e-05
0.00071066989
1.9978533e-05
0.00070553665
1.9562394e-05
0.00070055794
1.9112437e-05
0.00069573159
1.8637542e-05
0.00069105426
1.8149508e-05
0.00068652048
1.7670576e-05
0.00068212435
1.7209171e-05
0.00067786024
1.6795136e-05
0.00067372346
1.6430502e-05
0.0006697097
1.6083774e-05
0.00066581208
1.5766099e-05
0.00066202339
1.5477947e-05
0.00065833618
1.5223385e-05
0.00065474221
1.5010446e-05
0.00065123451
1.4824094e-05
0.00064780604
1.4665807e-05
0.00064445092
1.4523499e-05
0.00064116362
1.4394933e-05
0.00063793924
1.4276103e-05
0.00063477365
1.4161185e-05
0.00063166277
1.4054106e-05
0.00062860323
1.3948645e-05
0.00062559158
1.3848112e-05
0.00062262251
1.3762451e-05
0.00061969563
1.3667781e-05
0.00061679056
1.3678571e-05
0.00061393804
1.3488183e-05
0.00061103605
1.3820587e-05
0.00060816358
1.4518059e-05
0.00060477352
1.4883225e-05
1.7046871e-05
0.0010232544
6.6962038e-05
-0.0010207394
0.0010275509
8.2709129e-05
0.0010327671
9.4497846e-05
0.0010379881
0.00010058786
0.0010424389
0.00010111205
0.0010456419
9.7278107e-05
0.0010475911
9.1158655e-05
0.0010486264
8.4892562e-05
0.0010491366
7.9717419e-05
0.0010494059
7.5884094e-05
0.0010495832
7.311842e-05
0.0010497296
7.1075912e-05
0.0010498699
6.9524818e-05
0.0010499955
6.8283271e-05
0.0010500982
6.7254343e-05
0.0010501806
6.6411372e-05
0.0010502528
6.5730173e-05
0.0010503056
6.5165802e-05
0.0010503219
6.4707269e-05
0.0010503037
6.4353616e-05
0.0010502479
6.408944e-05
0.0010501379
6.3881731e-05
0.0010499583
6.3719421e-05
0.0010496905
6.3615511e-05
0.001049309
6.355742e-05
0.0010487849
6.3520683e-05
0.0010480862
6.3496161e-05
0.0010471673
6.3480742e-05
0.0010459831
6.3462374e-05
0.0010445028
6.3423675e-05
0.0010426922
6.3352174e-05
0.0010405209
6.3228612e-05
0.0010379818
6.3042193e-05
0.0010350716
6.2788143e-05
0.0010317793
6.244667e-05
0.001028093
6.2000402e-05
0.0010240016
6.1448346e-05
0.0010194976
6.0778153e-05
0.0010145772
5.9964623e-05
0.0010092362
5.8985564e-05
0.0010034698
5.7828661e-05
0.00099727422
5.647442e-05
0.0009906486
5.4891308e-05
0.00098358931
5.305991e-05
0.00097610591
5.0959863e-05
0.00096825943
4.8611423e-05
0.00096011912
4.6059012e-05
0.0009517297
4.3352762e-05
0.00094313304
4.0553125e-05
0.0009343754
3.7712903e-05
0.00092551271
3.4897476e-05
0.00091661203
3.2195125e-05
0.00090773643
2.9712527e-05
0.00089891205
2.7520178e-05
0.0008902391
2.571195e-05
0.00088185681
2.4538417e-05
0.00087376186
2.4093451e-05
0.00086582595
2.4242438e-05
0.00085797318
2.4863144e-05
0.00085022065
2.5621122e-05
0.00084256971
2.6365046e-05
0.00083502068
2.7028773e-05
0.00082759151
2.7533412e-05
0.00082030558
2.7833482e-05
0.00081317366
2.793278e-05
0.00080620152
2.7858211e-05
0.0007993999
2.7619888e-05
0.0007927757
2.7251265e-05
0.00078633005
2.678534e-05
0.00078006376
2.6244816e-05
0.00077397867
2.5647486e-05
0.00076807448
2.5016625e-05
0.00076234929
2.4362734e-05
0.00075680001
2.3698791e-05
0.00075142103
2.3049556e-05
0.0007462066
2.2423598e-05
0.00074115116
2.1850578e-05
0.00073624955
2.1332109e-05
0.00073149738
2.083594e-05
0.00072688863
2.0374856e-05
0.00072241706
1.9949515e-05
0.00071807571
1.9564736e-05
0.0007138563
1.9229855e-05
0.00070975141
1.8928981e-05
0.00070575322
1.8664002e-05
0.00070185476
1.8421957e-05
0.00069804928
1.8200412e-05
0.00069433049
1.7994893e-05
0.0006906928
1.7798873e-05
0.00068713061
1.7616296e-05
0.00068363903
1.744023e-05
0.00068021323
1.727391e-05
0.00067684656
1.7129118e-05
0.00067353738
1.6976961e-05
0.0006702641
1.6951852e-05
0.00066705544
1.6696848e-05
0.00066380664
1.7069378e-05
0.00066061737
1.7707339e-05
0.00065682691
1.8673679e-05
2.0068655e-05
0.0010588129
6.4621461e-05
-0.0010564723
0.0010627582
7.8763786e-05
0.0010675853
8.9670771e-05
0.0010724679
9.5705289e-05
0.0010767147
9.686523e-05
0.001079883
9.4109749e-05
0.0010819201
8.9121573e-05
0.0010830897
8.372299e-05
0.0010837293
7.9077808e-05
0.0010840991
7.5514298e-05
0.0010843471
7.2870414e-05
0.0010845428
7.0880259e-05
0.0010847183
6.934927e-05
0.0010848766
6.8124947e-05
0.001085016
6.7115008e-05
0.0010851403
6.6287084e-05
0.001085253
6.5617395e-05
0.0010853503
6.5068531e-05
0.0010854324
6.4625129e-05
0.0010855026
6.4283492e-05
0.0010855656
6.40264e-05
0.0010856172
6.3830147e-05
0.0010856429
6.3693762e-05
0.0010856412
6.3617175e-05
0.0010856115
6.3587157e-05
0.0010855422
6.3589903e-05
0.0010854226
6.3615763e-05
0.0010852376
6.3665736e-05
0.0010849673
6.3732735e-05
0.0010845903
6.3800645e-05
0.0010840803
6.3862172e-05
0.0010834021
6.3906814e-05
0.0010825218
6.3922487e-05
0.0010814138
6.3896139e-05
0.0010800448
6.3815712e-05
0.0010783874
6.3657741e-05
0.0010764294
6.340638e-05
0.0010741535
6.3054016e-05
0.0010715414
6.2576765e-05
0.0010685724
6.1954609e-05
0.0010652235
6.1177472e-05
0.0010614705
6.0227493e-05
0.0010572871
5.907472e-05
0.0010526441
5.7702852e-05
0.0010475039
5.610012e-05
0.0010418458
5.4269528e-05
0.0010356788
5.222594e-05
0.00102902
5.0011566e-05
0.0010218873
4.7685809e-05
0.0010143046
4.5295621e-05
0.0010063072
4.2894875e-05
0.00099794698
4.0555367e-05
0.00098929208
3.8367428e-05
0.00098040414
3.640811e-05
0.00097137549
3.4740609e-05
0.00096239943
3.3514473e-05
0.00095361441
3.2878469e-05
0.00094502082
3.2836031e-05
0.00093659889
3.3285071e-05
0.00092828436
3.3935656e-05
0.00091999286
3.4656543e-05
0.0009117236
3.5298033e-05
0.00090352794
3.5729075e-05
0.00089542474
3.5936673e-05
0.0008874203
3.5937226e-05
0.0008795386
3.5739915e-05
0.00087180654
3.5351945e-05
0.00086423605
3.4821749e-05
0.00085683395
3.4187446e-05
0.00084961104
3.3467725e-05
0.000842576
3.2682526e-05
0.00083573155
3.1861074e-05
0.00082907913
3.1015158e-05
0.0008226193
3.015862e-05
0.00081634896
2.9319894e-05
0.00081026478
2.8507781e-05
0.00080436362
2.7751737e-05
0.00079864152
2.7054208e-05
0.00079309466
2.63828e-05
0.00078771803
2.575148e-05
0.00078250662
2.5160935e-05
0.00077745425
2.4617099e-05
0.00077255312
2.4130987e-05
0.00076779579
2.368631e-05
0.00076317395
2.3285839e-05
0.00075867988
2.2916026e-05
0.00075430582
2.257448e-05
0.00075004424
2.225647e-05
0.0007458882
2.1954911e-05
0.00074183063
2.1673864e-05
0.00073786513
2.1405738e-05
0.0007339854
2.1153634e-05
0.00073018343
2.0931088e-05
0.0007264562
2.0704194e-05
0.00072278086
2.0627195e-05
0.00071918411
2.0293594e-05
0.00071555794
2.0695543e-05
0.00071202154
2.1243746e-05
0.00070780375
2.2891469e-05
2.3341939e-05
0.0010954978
6.2427079e-05
-0.0010933035
0.0010991243
7.5137352e-05
0.0011035882
8.5206864e-05
0.0011081528
9.1140695e-05
0.0011121978
9.2820175e-05
0.001115316
9.0991606e-05
0.0011174213
8.701626e-05
0.0011187113
8.2432998e-05
0.0011194747
7.8314399e-05
0.0011199475
7.5041472e-05
0.001120273
7.2544923e-05
0.0011205243
7.0628957e-05
0.0011207384
6.9135199e-05
0.0011209258
6.7937525e-05
0.0011210891
6.6951663e-05
0.0011212341
6.6142075e-05
0.0011213659
6.5485685e-05
0.0011214843
6.4950108e-05
0.0011215913
6.4518122e-05
0.0011216905
6.4184313e-05
0.0011217829
6.3933926e-05
0.0011218661
6.3746961e-05
0.0011219402
6.3619654e-05
0.0011220071
6.3550353e-05
0.001122066
6.3528183e-05
0.0011221203
6.3535661e-05
0.0011221593
6.3576738e-05
0.0011221734
6.3651589e-05
0.0011221656
6.3740622e-05
0.0011221277
6.3838546e-05
0.0011220514
6.393843e-05
0.0011219248
6.4033399e-05
0.0011217313
6.4115968e-05
0.0011214547
6.4172764e-05
0.0011210723
6.4198103e-05
0.0011205558
6.4174255e-05
0.0011198792
6.4082969e-05
0.0011190187
6.3914527e-05
0.0011179431
6.3652405e-05
0.0011166266
6.3271052e-05
0.0011150521
6.2751954e-05
0.001113193
6.2086583e-05
0.0011110187
6.1249085e-05
0.0011084953
6.0226261e-05
0.001105582
5.9013344e-05
0.0011022328
5.7618734e-05
0.001098405
5.6053803e-05
0.0010940636
5.4352953e-05
0.0010891779
5.2571513e-05
0.0010837219