/*--------------------------------*- C++ -*----------------------------------*\
| =========                 |                                                 |
| \\      /  F ield         | OpenFOAM: The Open Source CFD Toolbox           |
|  \\    /   O peration     | Version:  2206                                  |
|   \\  /    A nd           | Website:  www.openfoam.com                      |
|    \\/     M anipulation  |                                                 |
\*---------------------------------------------------------------------------*/
FoamFile
{
    version     2.0;
    format      ascii;
    arch        "LSB;label=32;scalar=64";
    class       volVectorField;
    location    "200";
    object      U;
}
// * * * * * * * * * * * * * * * * * * * * * * * * * * * * * * * * * * * * * //

dimensions      [0 1 -1 0 0 0 0];

internalField   nonuniform List<vector> 
7480
(
(0.82752704 0.01116748 0)
(0.70298027 0.020212047 0)
(0.56653249 0.021426006 0)
(0.43051758 0.014558974 0)
(0.33053243 0.0062891741 0)
(0.26656858 0.0019064256 0)
(0.23005728 0.0022231147 0)
(0.20852116 -0.00029240644 0)
(0.19446093 -0.00043092145 0)
(0.18413059 -0.00017574956 0)
(0.17530559 8.2005262e-07 0)
(0.16711607 5.3966694e-05 0)
(0.1595443 6.4671397e-05 0)
(0.15264271 6.6644649e-05 0)
(0.14635462 0.00023446682 0)
(0.14061477 0.0001799057 0)
(0.13538094 5.9479014e-05 0)
(0.13059672 4.9754701e-05 0)
(0.12617105 4.6190079e-05 0)
(0.12205623 4.1732266e-05 0)
(0.11823188 3.7958848e-05 0)
(0.11466222 3.5713413e-05 0)
(0.1113105 3.3267366e-05 0)
(0.10815874 3.0439949e-05 0)
(0.10519431 2.8018554e-05 0)
(0.10239699 2.6246367e-05 0)
(0.099747512 2.4420728e-05 0)
(0.097236685 2.2459972e-05 0)
(0.0948579 2.0757944e-05 0)
(0.092600177 1.9348165e-05 0)
(0.090453892 1.7910026e-05 0)
(0.08841487 1.6442404e-05 0)
(0.086479454 1.5136002e-05 0)
(0.084641756 1.3963545e-05 0)
(0.082897212 1.2792876e-05 0)
(0.081244184 1.1637974e-05 0)
(0.079681138 1.0575113e-05 0)
(0.078206137 9.5588372e-06 0)
(0.076819045 8.5356967e-06 0)
(0.075521786 7.5241563e-06 0)
(0.074316319 6.5674344e-06 0)
(0.073204144 5.6482421e-06 0)
(0.072188541 4.7251633e-06 0)
(0.071273 3.8284426e-06 0)
(0.070461051 1.452727e-05 0)
(0.069767694 5.2210862e-06 0)
(0.069195313 3.4587456e-06 0)
(0.068760658 1.4603319e-06 0)
(0.068463413 4.1868015e-08 0)
(0.068301834 -1.0545645e-06 0)
(0.068272665 -2.0675919e-06 0)
(0.068369465 -2.7791579e-06 0)
(0.068581424 -3.2512789e-06 0)
(0.068886385 -3.4042735e-06 0)
(0.069262635 -3.5111454e-06 0)
(0.069698362 -3.612448e-06 0)
(0.070164383 -3.2984987e-06 0)
(0.070612769 -2.8428971e-06 0)
(0.070999523 -2.4058676e-06 0)
(0.071282658 -1.1117417e-06 0)
(0.071459923 1.1183323e-07 0)
(0.071531182 -3.8757234e-07 0)
(0.071504754 -4.4728794e-08 0)
(0.071396143 1.001135e-07 0)
(0.071222998 1.8441386e-07 0)
(0.071001297 2.4629543e-07 0)
(0.070745341 2.7098201e-07 0)
(0.070466731 2.8216366e-07 0)
(0.070173788 2.8151727e-07 0)
(0.069872768 2.724977e-07 0)
(0.069568547 2.5811612e-07 0)
(0.069263998 2.4892305e-07 0)
(0.068960898 2.3795775e-07 0)
(0.068661274 2.234261e-07 0)
(0.068365617 2.1965614e-07 0)
(0.068074275 2.0993647e-07 0)
(0.067787699 2.2056625e-07 0)
(0.067496394 2.5014463e-07 0)
(0.067200212 2.5648831e-07 0)
(0.066901827 2.617684e-07 0)
(0.066602382 2.6030497e-07 0)
(0.066302513 2.5758196e-07 0)
(0.066000911 2.6339381e-07 0)
(0.065696977 2.6033422e-07 0)
(0.065390464 2.6285991e-07 0)
(0.065081107 2.6101364e-07 0)
(0.064769257 2.5958854e-07 0)
(0.064454872 2.5854748e-07 0)
(0.064138543 2.5410382e-07 0)
(0.063820362 2.5347174e-07 0)
(0.063500722 2.4809852e-07 0)
(0.063179711 2.4729958e-07 0)
(0.062857988 2.4155037e-07 0)
(0.062533451 2.4831247e-07 0)
(0.062212059 2.2486901e-07 0)
(0.061871622 3.1594606e-07 0)
(0.061578166 7.6519953e-07 0)
(0.061139359 1.1239044e-05 0)
(0.060898625 1.9095471e-05 0)
(0.060226487 5.8221106e-06 0)
(0.9586452 0.028029961 0)
(0.94940937 0.038586442 0)
(0.93028305 0.04183403 0)
(0.88510911 0.039311043 0)
(0.82439447 0.032446704 0)
(0.7568274 0.023951395 0)
(0.69436215 0.015506992 0)
(0.64138145 0.0094027548 0)
(0.59775304 0.0060303106 0)
(0.56169781 0.004363902 0)
(0.53120809 0.0035604355 0)
(0.50475091 0.0030822703 0)
(0.48141166 0.0027039501 0)
(0.46056939 0.0023898482 0)
(0.44173619 0.0021285941 0)
(0.42459057 0.0018779066 0)
(0.40892704 0.0016596579 0)
(0.39453716 0.0014829618 0)
(0.38122815 0.0013356091 0)
(0.36886484 0.0012045294 0)
(0.35735298 0.0010883882 0)
(0.34659631 0.00098947127 0)
(0.33650591 0.0009024982 0)
(0.3270189 0.00082361834 0)
(0.31808134 0.00075307804 0)
(0.30964142 0.00069128894 0)
(0.30165188 0.00063560746 0)
(0.29407988 0.00058414153 0)
(0.28689991 0.00053724028 0)
(0.28008389 0.00049504555 0)
(0.27360668 0.00045621591 0)
(0.26745187 0.00041992263 0)
(0.26160638 0.0003863997 0)
(0.25605583 0.00035555379 0)
(0.25078827 0.00032669182 0)
(0.24579709 0.00029943404 0)
(0.24107782 0.00027382002 0)
(0.23662689 0.00024958866 0)
(0.23244439 0.00022629888 0)
(0.22853509 0.00020375433 0)
(0.2249056 0.00018200472 0)
(0.22156315 0.00016092649 0)
(0.21851854 0.00014024129 0)
(0.21578469 0.00012005688 0)
(0.21337751 0.00010204091 0)
(0.21133775 0.00010028028 0)
(0.20964994 5.5269879e-05 0)
(0.20837597 3.6609581e-05 0)
(0.20751174 1.7524471e-05 0)
(0.20704725 2.1702306e-08 0)
(0.20696897 -1.5567088e-05 0)
(0.20725365 -2.9102284e-05 0)
(0.20786583 -3.9901686e-05 0)
(0.2087438 -4.7233048e-05 0)
(0.2098234 -5.2103264e-05 0)
(0.21105177 -5.4604176e-05 0)
(0.21233776 -5.2554579e-05 0)
(0.21355374 -4.5903405e-05 0)
(0.21458392 -3.794639e-05 0)
(0.21532279 -2.678172e-05 0)
(0.21576304 -1.5239972e-05 0)
(0.21591008 -5.5076364e-06 0)
(0.21578517 2.5181099e-06 0)
(0.21543073 8.5862047e-06 0)
(0.21489471 1.2883799e-05 0)
(0.21422192 1.5724032e-05 0)
(0.21345177 1.7378781e-05 0)
(0.21261629 1.8216907e-05 0)
(0.21173941 1.8483229e-05 0)
(0.21083906 1.8347618e-05 0)
(0.20992889 1.7946743e-05 0)
(0.20901747 1.7419453e-05 0)
(0.20811042 1.6793381e-05 0)
(0.20721327 1.6102353e-05 0)
(0.20632795 1.5442074e-05 0)
(0.20545542 1.4777412e-05 0)
(0.2045955 1.4449205e-05 0)
(0.20372067 1.4434919e-05 0)
(0.20283228 1.4252435e-05 0)
(0.20193836 1.395954e-05 0)
(0.20104177 1.3616399e-05 0)
(0.20014326 1.3287946e-05 0)
(0.19923974 1.302804e-05 0)
(0.19832951 1.2762325e-05 0)
(0.19741163 1.252588e-05 0)
(0.1964856 1.2276783e-05 0)
(0.19555217 1.2025068e-05 0)
(0.19461155 1.1768582e-05 0)
(0.19366525 1.1492502e-05 0)
(0.19271381 1.1224725e-05 0)
(0.19175838 1.0938155e-05 0)
(0.1907994 1.0661123e-05 0)
(0.18983868 1.0385883e-05 0)
(0.18887177 1.0121555e-05 0)
(0.18791167 9.9126672e-06 0)
(0.18690934 9.6324494e-06 0)
(0.18601031 1.1587159e-05 0)
(0.18477714 3.9499578e-05 0)
(0.18403559 6.5027675e-05 0)
(0.18205955 3.1237316e-05 0)
(0.96799182 0.029707337 0)
(0.97307952 0.037720548 0)
(0.98236849 0.041542545 0)
(0.98422817 0.041013476 0)
(0.97935513 0.037121047 0)
(0.96360464 0.030579613 0)
(0.93923801 0.024144221 0)
(0.91008764 0.019117618 0)
(0.87832586 0.015501044 0)
(0.84612644 0.012897755 0)
(0.81512584 0.010957685 0)
(0.78572287 0.0094046686 0)
(0.75798658 0.0081187016 0)
(0.73183462 0.00708116 0)
(0.70716302 0.006235105 0)
(0.68391674 0.0055151221 0)
(0.66205915 0.0048995781 0)
(0.6414975 0.0043849727 0)
(0.62211926 0.0039456075 0)
(0.60383619 0.0035583576 0)
(0.58657718 0.0032171566 0)
(0.57025939 0.0029220916 0)
(0.55480243 0.0026628152 0)
(0.5401436 0.0024303037 0)
(0.52623077 0.0022224797 0)
(0.51300787 0.0020387715 0)
(0.50042251 0.0018737706 0)
(0.48843508 0.0017230129 0)
(0.4770128 0.0015857513 0)
(0.46612195 0.0014614386 0)
(0.45573274 0.0013473639 0)
(0.44582403 0.0012414959 0)
(0.43637858 0.0011435905 0)
(0.4273794 0.0010531275 0)
(0.41881289 0.00096865165 0)
(0.4106715 0.00088912654 0)
(0.40295128 0.00081424816 0)
(0.39565058 0.0007433137 0)
(0.38877222 0.00067531258 0)
(0.38232465 0.00060964153 0)
(0.37631963 0.00054617321 0)
(0.37077114 0.00048455344 0)
(0.36569802 0.00042417275 0)
(0.36112245 0.00036510339 0)
(0.3570697 0.0003047903 0)
(0.35359205 0.00028643885 0)
(0.35068724 0.00018733256 0)
(0.34840692 0.00012859209 0)
(0.34674654 7.4309078e-05 0)
(0.34568748 2.4165819e-05 0)
(0.34520309 -2.0694327e-05 0)
(0.34524966 -5.94375e-05 0)
(0.34577039 -9.0597031e-05 0)
(0.34667517 -0.00011260152 0)
(0.3478713 -0.00012707575 0)
(0.34926787 -0.000133935 0)
(0.35072373 -0.00012958318 0)
(0.35206311 -0.00011325094 0)
(0.35313664 -8.635232e-05 0)
(0.35382378 -5.9765241e-05 0)
(0.35410567 -3.0402216e-05 0)
(0.35399476 -4.8633049e-06 0)
(0.3535214 1.595681e-05 0)
(0.35274363 3.2066508e-05 0)
(0.35172549 4.3568522e-05 0)
(0.35052646 5.1205555e-05 0)
(0.3491989 5.5680252e-05 0)
(0.34778588 5.7871943e-05 0)
(0.34632043 5.8440532e-05 0)
(0.34482748 5.7868413e-05 0)
(0.34332597 5.6542829e-05 0)
(0.34182802 5.4819404e-05 0)
(0.34034209 5.2811073e-05 0)
(0.33887581 5.0626544e-05 0)
(0.33743225 4.8488798e-05 0)
(0.33601255 4.6377592e-05 0)
(0.33461504 4.5161437e-05 0)
(0.33319961 4.4755338e-05 0)
(0.33177381 4.3968923e-05 0)
(0.33034729 4.2906613e-05 0)
(0.32892155 4.1760539e-05 0)
(0.32749601 4.0682648e-05 0)
(0.32606631 3.9779719e-05 0)
(0.32462957 3.8907734e-05 0)
(0.32318395 3.8112342e-05 0)
(0.32172851 3.7305675e-05 0)
(0.32026383 3.6496844e-05 0)
(0.31879019 3.5676701e-05 0)
(0.31730936 3.4816176e-05 0)
(0.31582218 3.396721e-05 0)
(0.31433012 3.3083103e-05 0)
(0.31283386 3.2211777e-05 0)
(0.31133579 3.1359601e-05 0)
(0.30983054 3.0506161e-05 0)
(0.30833383 2.9886419e-05 0)
(0.30678562 2.885189e-05 0)
(0.30536392 3.1556731e-05 0)
(0.30352205 7.1988557e-05 0)
(0.30231881 0.00011305224 0)
(0.29932346 5.1982566e-05 0)
(0.97002772 0.02708354 0)
(0.97637747 0.034265362 0)
(0.98543485 0.038379175 0)
(0.99340061 0.039212741 0)
(1.0016036 0.036175725 0)
(1.0024897 0.031201017 0)
(0.99953182 0.026294169 0)
(0.99329317 0.02224863 0)
(0.98416461 0.019369443 0)
(0.97247323 0.017347386 0)
(0.95864824 0.015776866 0)
(0.94308732 0.014350267 0)
(0.92566685 0.013014964 0)
(0.90732156 0.011780737 0)
(0.88850492 0.010669915 0)
(0.86950261 0.009663989 0)
(0.85051667 0.0087602832 0)
(0.83167136 0.0079706346 0)
(0.81305666 0.0072747845 0)
(0.79476497 0.0066465437 0)
(0.7768765 0.006078669 0)
(0.75943633 0.0055727572 0)
(0.74246854 0.0051175936 0)
(0.7259934 0.0047028256 0)
(0.71002921 0.00432641 0)
(0.69457792 0.0039879431 0)
(0.67963382 0.0036806046 0)
(0.66519391 0.003398291 0)
(0.65125432 0.0031395735 0)
(0.63780527 0.002903278 0)
(0.62483675 0.0026853246 0)
(0.61234328 0.002482512 0)
(0.60032048 0.0022940561 0)
(0.58876285 0.0021188711 0)
(0.57766731 0.0019546199 0)
(0.56703621 0.0017995113 0)
(0.55687547 0.0016528841 0)
(0.54719105 0.0015135942 0)
(0.53799171 0.0013799684 0)
(0.52929106 0.0012509079 0)
(0.5211062 0.0011260211 0)
(0.5134569 0.0010046408 0)
(0.5063679 0.00088579109 0)
(0.49986678 0.00076936932 0)
(0.49398588 0.00065102983 0)
(0.48877539 0.00059598862 0)
(0.48423332 0.00042589539 0)
(0.48038587 0.00031194595 0)
(0.47721963 0.00020954785 0)
(0.47471175 0.00011551356 0)
(0.47283113 3.1314548e-05 0)
(0.47153183 -4.1398255e-05 0)
(0.47074778 -0.00010006655 0)
(0.47038299 -0.00014245375 0)
(0.47035034 -0.00017126668 0)
(0.47054072 -0.0001859191 0)
(0.47078856 -0.00017836419 0)
(0.47092071 -0.00015169142 0)
(0.47081463 -0.00010377893 0)
(0.47037923 -6.0588445e-05 0)
(0.46960327 -1.4895898e-05 0)
(0.46850023 2.6348351e-05 0)
(0.4671018 6.0194402e-05 0)
(0.46545702 8.6024081e-05 0)
(0.46361874 0.00010421596 0)
(0.4616369 0.00011596265 0)
(0.45955672 0.00012242464 0)
(0.45741659 0.00012500798 0)
(0.45524688 0.00012481211 0)
(0.4530711 0.00012266668 0)
(0.45090718 0.00011924872 0)
(0.44876665 0.00011514151 0)
(0.44665838 0.00011055342 0)
(0.4445899 0.00010569896 0)
(0.44256404 0.00010094652 0)
(0.44058135 9.6343685e-05 0)
(0.43863765 9.29109e-05 0)
(0.43672438 9.0689376e-05 0)
(0.43483452 8.8312832e-05 0)
(0.43296371 8.5757108e-05 0)
(0.43110783 8.3198495e-05 0)
(0.42926393 8.0827796e-05 0)
(0.42742655 7.8788554e-05 0)
(0.42559151 7.6867292e-05 0)
(0.42375576 7.5106267e-05 0)
(0.42191734 7.3365454e-05 0)
(0.42007594 7.1644745e-05 0)
(0.41823114 6.9922188e-05 0)
(0.41638412 6.8152169e-05 0)
(0.41453532 6.6406991e-05 0)
(0.4126857 6.4622709e-05 0)
(0.41083568 6.2858969e-05 0)
(0.40898747 6.114968e-05 0)
(0.40713506 5.9418116e-05 0)
(0.40529469 5.8188307e-05 0)
(0.40340279 5.6008658e-05 0)
(0.40164289 5.9501595e-05 0)
(0.39945771 0.00010680365 0)
(0.39792338 0.00015560151 0)
(0.39438719 9.4593096e-05 0)
(0.97238246 0.025563256 0)
(0.97774134 0.032400267 0)
(0.98583039 0.036408064 0)
(0.99413739 0.037069495 0)
(1.0012179 0.03466897 0)
(1.0055697 0.030635316 0)
(1.0079071 0.026372831 0)
(1.0070576 0.022759001 0)
(1.0052496 0.020143306 0)
(1.0027412 0.018354964 0)
(0.99953435 0.017018506 0)
(0.99552896 0.015924878 0)
(0.99023573 0.014972719 0)
(0.98356426 0.014080052 0)
(0.9755292 0.013227091 0)
(0.96625427 0.012374186 0)
(0.95563922 0.011537971 0)
(0.9441358 0.010747332 0)
(0.93194045 0.010010014 0)
(0.91919587 0.0093176767 0)
(0.90601833 0.0086714173 0)
(0.89251068 0.0080775641 0)
(0.8787501 0.0075278059 0)
(0.8648227 0.0070123671 0)
(0.85081281 0.006530754 0)
(0.83678856 0.0060852125 0)
(0.82280807 0.0056703005 0)
(0.80892599 0.0052809924 0)
(0.79518973 0.0049173906 0)
(0.78163578 0.0045794938 0)
(0.76829539 0.0042633431 0)
(0.75519927 0.0039657135 0)
(0.74237514 0.0036860502 0)
(0.72984647 0.0034231867 0)
(0.71763664 0.0031742203 0)
(0.70577347 0.0029368646 0)
(0.69428564 0.002710766 0)
(0.6831901 0.002494996 0)
(0.67250536 0.0022874132 0)
(0.66225489 0.0020863691 0)
(0.65246528 0.0018911381 0)
(0.64316499 0.001700731 0)
(0.63438636 0.00151383 0)
(0.62616308 0.0013300971 0)
(0.61854181 0.0011482668 0)
(0.61154494 0.00096642941 0)
(0.60517199 0.00078986236 0)
(0.59941502 0.00062365554 0)
(0.59426851 0.00046667599 0)
(0.58972364 0.00032308147 0)
(0.58576082 0.00019460815 0)
(0.58234799 8.3328452e-05 0)
(0.57942769 -7.2237465e-06 0)
(0.57691734 -7.4662898e-05 0)
(0.57476448 -0.00012092634 0)
(0.57281907 -0.00014217993 0)
(0.57090371 -0.00013426501 0)
(0.56890623 -0.00010143777 0)
(0.56678126 -4.0591362e-05 0)
(0.56448961 9.5051412e-06 0)
(0.56203786 6.477116e-05 0)
(0.5594383 0.00011411795 0)
(0.55670734 0.0001540736 0)
(0.55386962 0.00018389792 0)
(0.55095264 0.00020410124 0)
(0.54798388 0.00021615482 0)
(0.54498991 0.00022148857 0)
(0.5419947 0.00022185633 0)
(0.53901813 0.00021865555 0)
(0.53607625 0.00021296843 0)
(0.53318142 0.00020569788 0)
(0.53034146 0.00019758831 0)
(0.52756367 0.00018891537 0)
(0.52485342 0.00018000022 0)
(0.52221184 0.00017134434 0)
(0.51963796 0.00016307394 0)
(0.51712587 0.00015634708 0)
(0.51468389 0.00015113328 0)
(0.51230085 0.00014595775 0)
(0.50996427 0.00014090465 0)
(0.50766513 0.00013609537 0)
(0.50539789 0.00013168886 0)
(0.50315587 0.00012783328 0)
(0.50093359 0.00012424635 0)
(0.49872675 0.00012095733 0)
(0.49653206 0.00011777252 0)
(0.49434789 0.0001146755 0)
(0.49217267 0.00011162584 0)
(0.49000638 0.00010855826 0)
(0.48784854 0.00010555822 0)
(0.48569912 0.00010254409 0)
(0.48355786 9.9579497e-05 0)
(0.48142621 9.6731467e-05 0)
(0.47929743 9.3850913e-05 0)
(0.47718717 9.1791605e-05 0)
(0.47503138 8.8204026e-05 0)
(0.47300784 9.2300605e-05 0)
(0.47058551 0.00014234593 0)
(0.46878907 0.00019628586 0)
(0.46490291 0.00014644763 0)
(0.9745703 0.024511744 0)
(0.97926302 0.030794433 0)
(0.98633492 0.0344691 0)
(0.99374668 0.035113172 0)
(1.0001424 0.033234087 0)
(1.0047681 0.029794957 0)
(1.0072603 0.025982327 0)
(1.0082459 0.02270051 0)
(1.0079222 0.020249553 0)
(1.0073691 0.018530571 0)
(1.0067387 0.017264462 0)
(1.0059815 0.016265818 0)
(1.0049501 0.015425627 0)
(1.0035304 0.014655832 0)
(1.0016085 0.013931514 0)
(0.99911849 0.013261092 0)
(0.99582452 0.012640338 0)
(0.99167316 0.012046315 0)
(0.98664941 0.011471626 0)
(0.9807675 0.010899719 0)
(0.97396133 0.01033162 0)
(0.96642074 0.0097850218 0)
(0.9582329 0.0092601633 0)
(0.94946259 0.0087548574 0)
(0.94016706 0.0082713715 0)
(0.93040255 0.0078128123 0)
(0.92022835 0.0073749358 0)
(0.90970085 0.0069538079 0)
(0.89887717 0.006550697 0)
(0.88781347 0.0061668353 0)
(0.87656416 0.0057992041 0)
(0.86518419 0.0054456717 0)
(0.85372601 0.0051070835 0)
(0.84223632 0.0047832703 0)
(0.83075968 0.0044717776 0)
(0.81934141 0.0041706365 0)
(0.80802657 0.0038795758 0)
(0.79685981 0.0035979697 0)
(0.78588478 0.0033241993 0)
(0.77514541 0.0030568861 0)
(0.76468532 0.0027954597 0)
(0.75454808 0.0025388626 0)
(0.74478015 0.0022857048 0)
(0.73542903 0.0020345558 0)
(0.72657006 0.0017874475 0)
(0.71814363 0.001546987 0)
(0.71016052 0.0013124476 0)
(0.70265951 0.0010870429 0)
(0.69566763 0.00087535246 0)
(0.68919504 0.00068050767 0)
(0.68323227 0.00050533871 0)
(0.67775079 0.00035311912 0)
(0.67269623 0.00022788205 0)
(0.6680145 0.00013027565 0)
(0.66370538 6.4558938e-05 0)
(0.6594899 3.4890928e-05 0)
(0.65524021 3.9236717e-05 0)
(0.65097997 6.898712e-05 0)
(0.64674492 0.00012971697 0)
(0.64252727 0.00017497169 0)
(0.63833715 0.00022747921 0)
(0.63417947 0.00027398959 0)
(0.63005361 0.00031071177 0)
(0.62596226 0.00033681712 0)
(0.62191126 0.00035274033 0)
(0.61790806 0.00035998109 0)
(0.61396124 0.00036000893 0)
(0.61007978 0.00035470514 0)
(0.60627199 0.00034558012 0)
(0.60254506 0.0003338241 0)
(0.59890517 0.00032044631 0)
(0.59535678 0.00030631488 0)
(0.59190234 0.00029175386 0)
(0.58854379 0.00027713732 0)
(0.58528 0.00026306632 0)
(0.58210825 0.0002497314 0)
(0.57902219 0.00023813794 0)
(0.57602431 0.00022828379 0)
(0.57310979 0.00021895425 0)
(0.57026821 0.00021024058 0)
(0.56748921 0.00020214106 0)
(0.56476561 0.00019475186 0)
(0.56208971 0.00018820769 0)
(0.55945498 0.00018215607 0)
(0.55685604 0.00017660612 0)
(0.55428833 0.00017130967 0)
(0.55174885 0.00016622811 0)
(0.5492347 0.0001612975 0)
(0.54674448 0.00015642874 0)
(0.54427651 0.0001517094 0)
(0.54182996 0.00014704053 0)
(0.53940338 0.00014248782 0)
(0.53699696 0.00013815141 0)
(0.53460319 0.00013379416 0)
(0.53223644 0.00013062752 0)
(0.52983373 0.00012534672 0)
(0.52756252 0.00012962671 0)
(0.5249254 0.0001797043 0)
(0.5228953 0.00023627392 0)
(0.51870029 0.00019217526 0)
(0.97654192 0.023526338 0)
(0.98070298 0.029152951 0)
(0.98696004 0.032517951 0)
(0.99357677 0.033276273 0)
(0.99938551 0.031815662 0)
(1.0036984 0.028880896 0)
(1.0062444 0.025505012 0)
(1.0073987 0.022523505 0)
(1.0077151 0.020237844 0)
(1.0076937 0.018573031 0)
(1.0075954 0.017319994 0)
(1.0074905 0.016319827 0)
(1.0073697 0.01548593 0)
(1.0071885 0.014746315 0)
(1.0068847 0.014072871 0)
(1.0064186 0.013464795 0)
(1.0057446 0.012911229 0)
(1.0048077 0.012388268 0)
(1.0035481 0.011891265 0)
(1.0019121 0.0114247 0)
(0.99976995 0.010984131 0)
(0.99706788 0.010556853 0)
(0.99378083 0.010137856 0)
(0.98988383 0.0097194033 0)
(0.98533303 0.0093032658 0)
(0.98020801 0.0088975666 0)
(0.97453622 0.0085007976 0)
(0.96834307 0.0081114387 0)
(0.96165301 0.0077320379 0)
(0.95449124 0.0073639738 0)
(0.94688739 0.0070040789 0)
(0.93887751 0.006650342 0)
(0.93049881 0.00630465 0)
(0.92178014 0.0059674712 0)
(0.9127588 0.0056363621 0)
(0.90347506 0.0053097989 0)
(0.89396908 0.0049886534 0)
(0.88428806 0.0046729892 0)
(0.87448152 0.0043611888 0)
(0.86460076 0.0040521082 0)
(0.85469815 0.0037456693 0)
(0.84482736 0.0034412318 0)
(0.83504483 0.0031377113 0)
(0.82541087 0.0028338897 0)
(0.8159885 0.0025305016 0)
(0.80681801 0.0022353778 0)
(0.79790499 0.0019517326 0)
(0.78927953 0.0016786966 0)
(0.78097598 0.0014200073 0)
(0.77302203 0.0011792074 0)
(0.76543077 0.00096024014 0)
(0.75819763 0.00076775194 0)
(0.75129644 0.00060624902 0)
(0.74472271 0.00047497815 0)
(0.73849841 0.00038040663 0)
(0.732431 0.00033262083 0)
(0.72642478 0.00032665531 0)
(0.72049908 0.00034654129 0)
(0.71468182 0.00039572562 0)
(0.70896336 0.00043002949 0)
(0.70335912 0.00047120626 0)
(0.69787827 0.0005063265 0)
(0.69251767 0.00053217697 0)
(0.68727528 0.00054784814 0)
(0.68215242 0.00055364399 0)
(0.6771493 0.00055106781 0)
(0.67226549 0.00054153813 0)
(0.66750193 0.00052692409 0)
(0.66286 0.00050872893 0)
(0.65834066 0.00048816388 0)
(0.65394523 0.00046625527 0)
(0.64967537 0.00044389908 0)
(0.64552993 0.00042143749 0)
(0.64150796 0.00039929337 0)
(0.63760626 0.00037813597 0)
(0.63382042 0.00035817954 0)
(0.63014406 0.00034033395 0)
(0.62657456 0.00032456469 0)
(0.62310893 0.0003097738 0)
(0.61973983 0.00029611302 0)
(0.61645799 0.00028351483 0)
(0.61325595 0.00027202069 0)
(0.61012555 0.00026174487 0)
(0.60705957 0.00025226452 0)
(0.60405176 0.00024356451 0)
(0.60109651 0.00023534227 0)
(0.59818952 0.00022753274 0)
(0.59532661 0.00022004397 0)
(0.59250497 0.00021275852 0)
(0.58972161 0.0002057591 0)
(0.58697466 0.00019892462 0)
(0.58426138 0.00019231705 0)
(0.58158069 0.00018606965 0)
(0.57892421 0.0001798469 0)
(0.57630475 0.00017522872 0)
(0.5736609 0.00016793967 0)
(0.57114904 0.00017196548 0)
(0.56830229 0.00022041367 0)
(0.56605575 0.00027878829 0)
(0.56156954 0.00023580559 0)
(0.9783413 0.022613454 0)
(0.98204406 0.027632524 0)
(0.9875889 0.030751531 0)
(0.99352829 0.031604652 0)
(0.99883491 0.030476939 0)
(1.0028709 0.027994074 0)
(1.0053943 0.025028604 0)
(1.0066404 0.022316376 0)
(1.0071228 0.020162898 0)
(1.0072917 0.018544713 0)
(1.0073831 0.017307242 0)
(1.0074633 0.016313021 0)
(1.0075274 0.015480418 0)
(1.0075968 0.014746305 0)
(1.0076363 0.014083819 0)
(1.0076223 0.013487292 0)
(1.0075641 0.012947733 0)
(1.0074448 0.012447616 0)
(1.0072392 0.011981728 0)
(1.0069248 0.01155157 0)
(1.0064724 0.011150089 0)
(1.005844 0.010765579 0)
(1.0050007 0.010395682 0)
(1.003897 0.01004298 0)
(1.0024543 0.0097047005 0)
(1.0006303 0.0093743787 0)
(0.99839605 0.0090475642 0)
(0.99571329 0.0087200094 0)
(0.99255829 0.0083937452 0)
(0.98895759 0.0080719199 0)
(0.98491299 0.0077527996 0)
(0.98042424 0.0074349982 0)
(0.97549427 0.007119911 0)
(0.9701318 0.0068081626 0)
(0.96434599 0.0064976072 0)
(0.95815004 0.0061866314 0)
(0.9515585 0.0058758531 0)
(0.94458903 0.0055651874 0)
(0.93725668 0.0052531395 0)
(0.92958273 0.0049385332 0)
(0.92159646 0.004621337 0)
(0.91333138 0.0043010303 0)
(0.9048248 0.0039764565 0)
(0.89612358 0.0036464716 0)
(0.8872556 0.0033135562 0)
(0.87835634 0.0029861133 0)
(0.86947662 0.0026662491 0)
(0.86063069 0.0023557452 0)
(0.85184722 0.0020589264 0)
(0.84316403 0.0017796149 0)
(0.83462187 0.0015223275 0)
(0.8262601 0.0012926073 0)
(0.81811249 0.0010959457 0)
(0.81020117 0.00093159863 0)
(0.80251994 0.00080664838 0)
(0.79516391 0.00073668113 0)
(0.78799513 0.00071296353 0)
(0.78099301 0.00071495394 0)
(0.77411494 0.00074450405 0)
(0.76733295 0.00076356263 0)
(0.76067208 0.00078792144 0)
(0.75414529 0.0008064247 0)
(0.74775221 0.00081642597 0)
(0.74150128 0.00081680677 0)
(0.73540342 0.00080787717 0)
(0.72946028 0.00079132269 0)
(0.72367153 0.00076846628 0)
(0.71803923 0.00074110976 0)
(0.71256372 0.00071076266 0)
(0.70724339 0.00067862129 0)
(0.70207728 0.00064564588 0)
(0.69706541 0.00061274176 0)
(0.69220583 0.00058027488 0)
(0.68749616 0.00054867619 0)
(0.6829318 0.00051865648 0)
(0.67850706 0.00049041856 0)
(0.67421552 0.00046482462 0)
(0.67005213 0.00044177638 0)
(0.66601343 0.00042016689 0)
(0.66209377 0.0004002099 0)
(0.65828549 0.00038181084 0)
(0.65458169 0.00036497764 0)
(0.65097428 0.00034981044 0)
(0.64745565 0.00033581987 0)
(0.64401892 0.00032296589 0)
(0.64065754 0.00031089269 0)
(0.63736608 0.0002995064 0)
(0.63413912 0.00028868352 0)
(0.63097248 0.00027827436 0)
(0.62786186 0.00026834829 0)
(0.62480391 0.00025875889 0)
(0.62179478 0.00024956197 0)
(0.61883209 0.00024091907 0)
(0.61590663 0.00023238847 0)
(0.61302947 0.00022591913 0)
(0.61014079 0.00021627066 0)
(0.60738658 0.00021965092 0)
(0.60432474 0.0002655251 0)
(0.6018674 0.00032589972 0)
(0.59708897 0.00028220029 0)
(0.97998531 0.021776595 0)
(0.98329688 0.026247953 0)
(0.98820765 0.029131911 0)
(0.99353286 0.030040921 0)
(0.99838012 0.029192891 0)
(1.002172 0.027113236 0)
(1.0046644 0.02452459 0)
(1.0060096 0.022066894 0)
(1.0066197 0.020048688 0)
(1.0068936 0.018488122 0)
(1.0070629 0.017271599 0)
(1.007209 0.016284495 0)
(1.0073458 0.015453465 0)
(1.0074759 0.014723836 0)
(1.0075871 0.014068218 0)
(1.0076767 0.0134765 0)
(1.0077451 0.012939945 0)
(1.0078122 0.012444646 0)
(1.0078473 0.011986505 0)
(1.0078441 0.011564754 0)
(1.0078107 0.01117295 0)
(1.0077348 0.010803197 0)
(1.0076001 0.010452717 0)
(1.0073898 0.010122273 0)
(1.0070836 0.0098082325 0)
(1.0066549 0.0095050743 0)
(1.006077 0.0092112761 0)
(1.0053115 0.0089270311 0)
(1.0043086 0.0086503831 0)
(1.0030344 0.0083780194 0)
(1.0014646 0.0081061848 0)
(0.99955476 0.0078320121 0)
(0.99729096 0.0075575959 0)
(0.99467657 0.0072840395 0)
(0.9917013 0.0070094059 0)
(0.98835271 0.0067322591 0)
(0.98462035 0.0064528664 0)
(0.98049472 0.006170642 0)
(0.97597105 0.0058838957 0)
(0.97104578 0.0055916454 0)
(0.96571451 0.0052937846 0)
(0.95997315 0.0049895586 0)
(0.95381828 0.0046773599 0)
(0.94725195 0.0043567453 0)
(0.94026325 0.0040288094 0)
(0.93288499 0.0036975055 0)
(0.92520129 0.0033669254 0)
(0.91725924 0.003042173 0)
(0.90909805 0.0027287304 0)
(0.90075865 0.0024303093 0)
(0.89228939 0.0021512651 0)
(0.88374915 0.0018971478 0)
(0.87520811 0.0016732784 0)
(0.86671665 0.0014805592 0)
(0.85827354 0.0013257548 0)
(0.85007706 0.001220984 0)
(0.84219198 0.0011646127 0)
(0.83454249 0.0011444184 0)
(0.8269663 0.0011537929 0)
(0.81947247 0.001157119 0)
(0.81208521 0.0011637573 0)
(0.80479182 0.0011646437 0)
(0.79759973 0.0011569649 0)
(0.79053655 0.0011396448 0)
(0.78361974 0.0011134546 0)
(0.77685199 0.0010803306 0)
(0.77024219 0.0010414119 0)
(0.7638015 0.00099856191 0)
(0.75753226 0.00095347175 0)
(0.75143421 0.00090729938 0)
(0.74550924 0.00086090405 0)
(0.73975877 0.00081522847 0)
(0.73418104 0.00077066498 0)
(0.72877413 0.00072764364 0)
(0.72353367 0.00068691394 0)
(0.71845385 0.00064864972 0)
(0.713529 0.00061367156 0)
(0.70875387 0.00058181802 0)
(0.70412451 0.00055192721 0)
(0.69963596 0.00052424642 0)
(0.69528193 0.00049865804 0)
(0.6910565 0.00047515438 0)
(0.68695201 0.00045383367 0)
(0.68296085 0.0004341469 0)
(0.67907573 0.00041603212 0)
(0.67528941 0.00039908233 0)
(0.67159551 0.00038317367 0)
(0.66798752 0.0003681489 0)
(0.66446001 0.00035382266 0)
(0.6610074 0.00034024691 0)
(0.65762493 0.00032724492 0)
(0.65430749 0.00031485895 0)
(0.6510515 0.00030327447 0)
(0.64784684 0.00029193856 0)
(0.64470285 0.00028316538 0)
(0.64156107 0.00027076165 0)
(0.63855831 0.00027311245 0)
(0.63527158 0.00031584537 0)
(0.6326021 0.00037897036 0)
(0.62752135 0.0003313722 0)
(0.98148711 0.021001723 0)
(0.98446187 0.02497698 0)
(0.9888121 0.027627694 0)
(0.99358001 0.028569843 0)
(0.99800125 0.027962359 0)
(1.0015558 0.026237727 0)
(1.0040008 0.023991723 0)
(1.0054265 0.021779456 0)
(1.0061583 0.019902917 0)
(1.0065377 0.018410362 0)
(1.0067799 0.017222344 0)
(1.0069727 0.016246261 0)
(1.0071421 0.015418731 0)
(1.0072964 0.014692805 0)
(1.0074352 0.014041557 0)
(1.0075576 0.013453503 0)
(1.0076662 0.012919613 0)
(1.0077645 0.012428453 0)
(1.0078472 0.011974873 0)
(1.007918 0.011555895 0)
(1.0079763 0.011166253 0)
(1.0080338 0.010799335 0)
(1.0080729 0.010453639 0)
(1.0080815 0.010129094 0)
(1.0080687 0.0098217958 0)
(1.0080249 0.0095284337 0)
(1.0079407 0.0092473219 0)
(1.0078023 0.0089772069 0)
(1.007595 0.0087162223 0)
(1.0072986 0.0084617107 0)
(1.0068943 0.008212791 0)
(1.0063496 0.007968695 0)
(1.0056311 0.007727683 0)
(1.0047117 0.0074878739 0)
(1.0035709 0.0072462506 0)
(1.0021652 0.0070006776 0)
(1.0004882 0.0067521574 0)
(0.99852452 0.0065007402 0)
(0.99625751 0.0062450864 0)
(0.99366866 0.0059837496 0)
(0.99073804 0.0057162562 0)
(0.9874439 0.0054419463 0)
(0.98376256 0.0051590835 0)
(0.97966888 0.0048672974 0)
(0.9751325 0.004566511 0)
(0.97011601 0.0042591252 0)
(0.96461839 0.0039485416 0)
(0.95865673 0.0036389811 0)
(0.95224586 0.0033358223 0)
(0.94540421 0.0030429642 0)
(0.93815809 0.0027645131 0)
(0.93054677 0.0025054113 0)
(0.92262774 0.0022710912 0)
(0.91447029 0.0020650643 0)
(0.9061187 0.0018911258 0)
(0.89770288 0.0017594186 0)
(0.88945225 0.0016728668 0)
(0.88138767 0.0016213797 0)
(0.87349914 0.0016031618 0)
(0.86574844 0.0015897327 0)
(0.85805415 0.00158178 0)
(0.85035137 0.0015678039 0)
(0.84269837 0.0015432143 0)
(0.83513273 0.0015084938 0)
(0.8276515 0.0014651049 0)
(0.82026929 0.0014146186 0)
(0.81301673 0.0013582618 0)
(0.80591235 0.0012984073 0)
(0.79895992 0.0012369616 0)
(0.79216836 0.0011749491 0)
(0.7855489 0.001113225 0)
(0.77910615 0.0010529173 0)
(0.77284074 0.00099442528 0)
(0.76675469 0.00093815502 0)
(0.76084667 0.00088493811 0)
(0.75511283 0.000834918 0)
(0.74955037 0.00078886394 0)
(0.74415604 0.00074658227 0)
(0.73892638 0.00070686315 0)
(0.73385728 0.00066996004 0)
(0.7289439 0.00063572325 0)
(0.72418146 0.00060414244 0)
(0.71956312 0.00057532374 0)
(0.71508178 0.00054866682 0)
(0.71073009 0.00052409521 0)
(0.70650046 0.00050115338 0)
(0.70238585 0.00047968763 0)
(0.69837895 0.00045950639 0)
(0.69447325 0.00044038622 0)
(0.69066207 0.0004223588 0)
(0.68693937 0.00040521254 0)
(0.68329882 0.00038896939 0)
(0.67973563 0.00037383333 0)
(0.67623878 0.00035913619 0)
(0.67281594 0.00034755191 0)
(0.66940975 0.00033194584 0)
(0.66614913 0.00033286259 0)
(0.66262535 0.00037203374 0)
(0.65973771 0.00043891414 0)
(0.65433931 0.00038439106 0)
(0.98286003 0.020277688 0)
(0.98554226 0.023808068 0)
(0.98939969 0.026234874 0)
(0.99366533 0.027194768 0)
(0.9976927 0.026791392 0)
(1.0010149 0.025375561 0)
(1.0033951 0.023439072 0)
(1.0048762 0.021460292 0)
(1.005711 0.019726321 0)
(1.0061882 0.018307775 0)
(1.006504 0.017154841 0)
(1.0067477 0.016195296 0)
(1.0069518 0.015375664 0)
(1.0071299 0.014655703 0)
(1.0072869 0.014009906 0)
(1.0074247 0.013426059 0)
(1.0075477 0.012895237 0)
(1.0076593 0.012407317 0)
(1.0077604 0.011956505 0)
(1.0078525 0.011539467 0)
(1.0079378 0.011151342 0)
(1.0080174 0.010786685 0)
(1.008088 0.010443722 0)
(1.008151 0.010121085 0)
(1.0082073 0.0098157008 0)
(1.0082559 0.0095239936 0)
(1.008306 0.0092453111 0)
(1.0083259 0.0089794385 0)
(1.00833 0.008723433 0)
(1.0083112 0.0084757059 0)
(1.0082625 0.0082354873 0)
(1.0081737 0.0080009514 0)
(1.008033 0.0077705473 0)
(1.007825 0.0075428624 0)