# Region        : all region0
# Cells         : 7480
# Volume        : 2.33333000e+00
# Time          	min(p)	min(k)	min(omega)	min(nut)
1               	7.65735656e-05	5.01106342e-05	1.79551860e+02	7.37368561e-08
2               	2.62775826e-05	2.51938575e-05	6.19650665e+01	7.97975485e-08
3               	9.05068981e-06	1.61970254e-05	3.24700584e+01	6.34058987e-08
4               	-8.90590343e-06	1.18684399e-05	2.17554160e+01	4.68444136e-08
5               	-1.60322004e-03	9.38018012e-06	1.65963395e+01	3.46345791e-08
6               	-4.23229780e-03	7.77529220e-06	1.36497975e+01	2.62769299e-08
7               	-6.09492899e-03	6.65406553e-06	1.17762597e+01	2.06054541e-08
8               	-7.17485151e-03	5.82335782e-06	1.04962117e+01	1.66995054e-08
9               	-7.32779481e-03	5.17954406e-06	9.57611577e+00	1.39473545e-08
10              	-7.30105812e-03	4.66254438e-06	8.88958464e+00	1.19615482e-08
11              	-6.77100838e-03	4.23541527e-06	8.36256326e+00	1.04977563e-08
12              	-5.98337687e-03	3.87440493e-06	7.94888521e+00	9.40030510e-09
13              	-5.15165550e-03	3.56373266e-06	7.61828350e+00	8.56868474e-09
14              	-4.33205802e-03	3.29268071e-06	7.35005591e+00	7.93712766e-09
15              	-3.55775295e-03	3.05388024e-06	7.12950396e+00	7.46197827e-09
16              	-2.97461605e-03	2.84223406e-06	6.94582657e+00	7.11392927e-09
17              	-2.52054302e-03	2.65418630e-06	6.79083694e+00	6.87288323e-09
18              	-2.16712125e-03	2.48717449e-06	6.65815906e+00	6.72482913e-09
19              	-1.99989189e-03	2.33919307e-06	6.54273465e+00	6.65953218e-09
20              	-1.83431659e-03	2.20843744e-06	6.44053025e+00	6.66910512e-09
21              	-1.77120394e-03	2.09302858e-06	6.34835619e+00	6.74671757e-09
22              	-1.69328168e-03	1.99084583e-06	6.26377613e+00	6.88426729e-09
23              	-1.61470886e-03	1.89947622e-06	6.18503822e+00	7.07212344e-09
24              	-1.55259097e-03	1.81629053e-06	6.11102073e+00	7.29936204e-09
25              	-1.46975411e-03	1.73862532e-06	6.04116220e+00	7.55553094e-09
26              	-1.41600419e-03	1.66403082e-06	5.97536436e+00	7.83163563e-09
27              	-1.37838269e-03	1.59052981e-06	5.91387061e+00	8.12043113e-09
28              	-1.34777567e-03	1.51682699e-06	5.85712410e+00	8.41633984e-09
29              	-1.30692708e-03	1.44242117e-06	5.80562491e+00	8.71515704e-09
30              	-1.26715589e-03	1.36759419e-06	5.75980169e+00	9.01374205e-09
31              	-1.22199813e-03	1.29328066e-06	5.71991473e+00	9.30977615e-09
32              	-1.19334888e-03	1.22084899e-06	5.68600004e+00	9.60152853e-09
33              	-1.18812345e-03	1.15184153e-06	5.65785865e+00	9.88774556e-09
34              	-1.18837066e-03	1.08772447e-06	5.63508329e+00	1.01674671e-08
35              	-1.25348478e-03	1.02968883e-06	5.61711031e+00	1.04400356e-08
36              	-1.25656457e-03	9.78526965e-07	5.60328515e+00	1.07050201e-08
37              	-1.22140304e-03	9.34588036e-07	5.59291906e+00	1.09622323e-08
38              	-1.11651494e-03	8.97803794e-07	5.58534390e+00	1.12115380e-08
39              	-1.05142948e-03	8.67761710e-07	5.57994589e+00	1.14529910e-08
40              	-1.01869316e-03	8.43804176e-07	5.57619164e+00	1.16865357e-08
41              	-1.00613801e-03	8.25131927e-07	5.57364145e+00	1.19123107e-08
42              	-9.95044856e-04	8.10895997e-07	5.57194941e+00	1.21304050e-08
43              	-9.77980458e-04	8.00269572e-07	5.57085387e+00	1.23409136e-08
44              	-9.56527055e-04	7.92497153e-07	5.57016362e+00	1.25439474e-08
45              	-9.66616706e-04	7.86922423e-07	5.56974294e+00	1.27395550e-08
46              	-9.89680004e-04	7.82998811e-07	5.56949842e+00	1.29279111e-08
47              	-1.04054027e-03	7.80287344e-07	5.56936715e+00	1.31092059e-08
48              	-9.94898949e-04	7.78446824e-07	5.56930934e+00	1.32836338e-08
49              	-9.46742483e-04	7.77219176e-07	5.56929746e+00	1.34514276e-08
50              	-8.75241592e-04	7.76414582e-07	5.56931471e+00	1.36128039e-08
51              	-8.20278443e-04	7.75896213e-07	5.56934702e+00	1.37680172e-08
52              	-7.91759877e-04	7.75567567e-07	5.56938247e+00	1.39172665e-08
53              	-7.80172318e-04	7.75361630e-07	5.56940855e+00	1.40608104e-08
54              	-7.62929211e-04	7.75232825e-07	5.56941427e+00	1.41989116e-08
55              	-7.62479503e-04	7.75150888e-07	5.56939194e+00	1.43318019e-08
56              	-7.74900951e-04	7.75096469e-07	5.56933940e+00	1.44596770e-08
57              	-7.86866428e-04	7.75057775e-07	5.56925989e+00	1.45827369e-08
58              	-7.98291130e-04	7.75028140e-07	5.56916135e+00	1.47011758e-08
59              	-8.08977378e-04	7.75004304e-07	5.56905534e+00	1.48151846e-08
60              	-8.19363201e-04	7.74985038e-07	5.56895459e+00	1.49249451e-08
61              	-8.29382271e-04	7.74970197e-07	5.56887110e+00	1.50306140e-08
62              	-8.39146757e-04	7.74959966e-07	5.56881383e+00	1.51323525e-08
63              	-9.18801041e-04	7.74954588e-07	5.56878887e+00	1.52303176e-08
64              	-8.62529480e-04	7.74954247e-07	5.56879963e+00	1.53246681e-08
65              	-8.64441802e-04	7.74958149e-07	5.56884060e+00	1.54155504e-08
66              	-8.71906213e-04	7.74964647e-07	5.56889900e+00	1.55030678e-08
67              	-8.79187454e-04	7.74971803e-07	5.56895980e+00	1.55873287e-08
68              	-8.85812109e-04	7.74977731e-07	5.56900867e+00	1.56684421e-08
69              	-8.91683213e-04	7.74980918e-07	5.56903464e+00	1.57465288e-08
70              	-8.96691911e-04	7.74980731e-07	5.56903370e+00	1.58216940e-08
71              	-9.00957204e-04	7.74977355e-07	5.56900814e+00	1.58940259e-08
72              	-9.04647733e-04	7.74971571e-07	5.56896445e+00	1.59635952e-08
73              	-9.07925711e-04	7.74964363e-07	5.56891037e+00	1.60304657e-08
74              	-9.11062719e-04	7.74956572e-07	5.56885227e+00	1.60947027e-08
75              	-9.13951434e-04	7.74948895e-07	5.56879538e+00	1.61563768e-08
76              	-9.16551891e-04	7.74941917e-07	5.56874417e+00	1.62155749e-08
77              	-9.18838935e-04	7.74936317e-07	5.56870389e+00	1.62723849e-08
78              	-9.20914498e-04	7.74932936e-07	5.56868118e+00	1.63268898e-08
79              	-9.50130045e-04	7.74932604e-07	5.56868249e+00	1.63791661e-08
80              	-9.23900247e-04	7.74936178e-07	5.56871409e+00	1.64292883e-08
81              	-9.25132449e-04	7.74943294e-07	5.56877244e+00	1.64773380e-08
82              	-9.26308810e-04	7.74952637e-07	5.56884660e+00	1.65233558e-08
83              	-9.27390808e-04	7.74962598e-07	5.56892357e+00	1.65674109e-08
84              	-9.27866218e-04	7.74971654e-07	5.56899142e+00	1.66095804e-08
85              	-9.28269802e-04	7.74978170e-07	5.56903799e+00	1.66499469e-08
86              	-9.28066048e-04	7.74981242e-07	5.56905707e+00	1.66885621e-08
87              	-9.27527177e-04	7.74980776e-07	5.56904884e+00	1.67254934e-08
88              	-9.26790182e-04	7.74977401e-07	5.56901880e+00	1.67607848e-08
89              	-9.25761937e-04	7.74972191e-07	5.56897555e+00	1.67944780e-08
90              	-9.24846769e-04	7.74966344e-07	5.56892839e+00	1.68266214e-08
91              	-9.24105518e-04	7.74960972e-07	5.56888581e+00	1.68572542e-08
92              	-9.23801370e-04	7.74956876e-07	5.56885396e+00	1.68864305e-08
93              	-9.22822323e-04	7.74955024e-07	5.56884018e+00	1.69142111e-08
94              	-9.50332770e-04	7.74955824e-07	5.56884753e+00	1.69406880e-08
95              	-9.20746927e-04	7.74959763e-07	5.56887920e+00	1.69658938e-08
96              	-9.20128121e-04	7.74966141e-07	5.56892922e+00	1.69898920e-08
97              	-9.19422566e-04	7.74973974e-07	5.56898940e+00	1.70126865e-08
98              	-9.18963082e-04	7.74981903e-07	5.56904898e+00	1.70343451e-08
99              	-9.17881777e-04	7.74988446e-07	5.56909652e+00	1.70549217e-08
100             	-9.16610070e-04	7.74992196e-07	5.56912159e+00	1.70744907e-08
101             	-9.14896058e-04	7.74992709e-07	5.56912138e+00	1.70930827e-08
102             	-9.13221233e-04	7.74990432e-07	5.56909991e+00	1.71107296e-08
103             	-9.11687440e-04	7.74986393e-07	5.56906551e+00	1.71274412e-08
104             	-9.10179795e-04	7.74981754e-07	5.56902733e+00	1.71432408e-08
105             	-9.09179065e-04	7.74977413e-07	5.56899242e+00	1.71581677e-08
106             	-9.08075763e-04	7.74974253e-07	5.56896766e+00	1.71722535e-08
107             	-9.88231941e-04	7.74972949e-07	5.56895832e+00	1.71855638e-08
108             	-9.05158402e-04	7.74974375e-07	5.56897082e+00	1.71981434e-08
109             	-9.04328767e-04	7.74978159e-07	5.56900177e+00	1.72100490e-08
110             	-9.02883552e-04	7.74983597e-07	5.56904498e+00	1.72212511e-08
111             	-9.02519244e-04	7.74989382e-07	5.56908988e+00	1.72318161e-08
112             	-9.01439804e-04	7.74994036e-07	5.56912494e+00	1.72417457e-08
113             	-9.00188623e-04	7.74996028e-07	5.56913868e+00	1.72511252e-08
114             	-8.98401261e-04	7.74994483e-07	5.56912499e+00	1.72599884e-08
115             	-8.96528832e-04	7.74989328e-07	5.56908398e+00	1.72683264e-08
116             	-8.94725228e-04	7.74981162e-07	5.56902082e+00	1.72761345e-08
117             	-8.92818580e-04	7.74971108e-07	5.56894434e+00	1.72834520e-08
118             	-8.91684761e-04	7.74960334e-07	5.56886353e+00	1.72903173e-08
119             	-8.90907414e-04	7.74949839e-07	5.56878599e+00	1.72967124e-08
120             	-8.90097007e-04	7.74940481e-07	5.56871816e+00	1.73026647e-08
121             	-8.89523621e-04	7.74932997e-07	5.56866564e+00	1.73082383e-08
122             	-9.11065830e-04	7.74928201e-07	5.56863464e+00	1.73134465e-08
123             	-1.00802319e-03	7.74926861e-07	5.56863095e+00	1.73183217e-08
124             	-9.12603125e-04	7.74929784e-07	5.56866022e+00	1.73229016e-08
125             	-8.87184424e-04	7.74936463e-07	5.56871771e+00	1.73272580e-08
126             	-8.86874026e-04	7.74945543e-07	5.56879208e+00	1.73312494e-08
127             	-8.86683696e-04	7.74955399e-07	5.56887018e+00	1.73349731e-08
128             	-8.85963592e-04	7.74964434e-07	5.56893953e+00	1.73384769e-08
129             	-8.85573497e-04	7.74970917e-07	5.56898722e+00	1.73417848e-08
130             	-8.84464383e-04	7.74973862e-07	5.56900650e+00	1.73448773e-08
131             	-8.83286073e-04	7.74973108e-07	5.56899703e+00	1.73478041e-08
132             	-8.82242085e-04	7.74969240e-07	5.56896402e+00	1.73505692e-08
133             	-8.81084449e-04	7.74963361e-07	5.56891631e+00	1.73531542e-08
134             	-8.80640778e-04	7.74956635e-07	5.56886294e+00	1.73555562e-08
135             	-8.80510344e-04	7.74950061e-07	5.56881160e+00	1.73577480e-08
136             	-8.80082026e-04	7.74944567e-07	5.56876934e+00	1.73597478e-08
137             	-9.28619506e-04	7.74940605e-07	5.56873977e+00	1.73616255e-08
138             	-9.77053855e-04	7.74939334e-07	5.56873175e+00	1.73633334e-08
139             	-9.53091101e-04	7.74941165e-07	5.56874831e+00	1.73650150e-08
140             	-8.79329886e-04	7.74946409e-07	5.56879110e+00	1.73665378e-08
141             	-8.79993896e-04	7.74954064e-07	5.56885166e+00	1.73680166e-08
142             	-8.80070472e-04	7.74962971e-07	5.56892038e+00	1.73693241e-08
143             	-8.80213357e-04	7.74971635e-07	5.56898545e+00	1.73705507e-08
144             	-8.79798422e-04	7.74978488e-07	5.56903492e+00	1.73717016e-08
145             	-8.79257236e-04	7.74982233e-07	5.56905941e+00	1.73728112e-08
146             	-8.78494814e-04	7.74982540e-07	5.56905711e+00	1.73738832e-08
147             	-8.77939037e-04	7.74979931e-07	5.56903274e+00	1.73748820e-08
148             	-8.77361187e-04	7.74975503e-07	5.56899516e+00	1.73757821e-08
149             	-8.76956448e-04	7.74970487e-07	5.56895399e+00	1.73765928e-08
150             	-8.77118996e-04	7.74965868e-07	5.56891686e+00	1.73773279e-08
151             	-8.92728802e-04	7.74962470e-07	5.56889018e+00	1.73779594e-08
152             	-9.88684241e-04	7.74961011e-07	5.56887945e+00	1.73785276e-08
153             	-9.40950874e-04	7.74962249e-07	5.56889027e+00	1.73790676e-08
154             	-8.76884087e-04	7.74966155e-07	5.56892190e+00	1.73796063e-08
155             	-8.76901425e-04	7.74972112e-07	5.56896889e+00	1.73800683e-08
156             	-8.77573123e-04	7.74979011e-07	5.56902213e+00	1.73804843e-08
157             	-8.77674558e-04	7.74985479e-07	5.56907077e+00	1.73808270e-08
158             	-8.77523993e-04	7.74989891e-07	5.56910246e+00	1.73811643e-08
159             	-8.77127813e-04	7.74991007e-07	5.56910817e+00	1.73815213e-08
160             	-8.76628804e-04	7.74988475e-07	5.56908588e+00	1.73818716e-08
161             	-8.76052075e-04	7.74982797e-07	5.56904005e+00	1.73821833e-08
162             	-8.75422973e-04	7.74975101e-07	5.56897970e+00	1.73824533e-08
163             	-8.75202516e-04	7.74966613e-07	5.56891438e+00	1.73826789e-08
164             	-8.75208442e-04	7.74958388e-07	5.56885217e+00	1.73828424e-08
165             	-8.75331783e-04	7.74951249e-07	5.56879937e+00	1.73829571e-08
166             	-8.89079467e-04	7.74945970e-07	5.56876189e+00	1.73830418e-08
167             	-9.83573348e-04	7.74943306e-07	5.56874552e+00	1.73831157e-08
168             	-9.58346611e-04	7.74944048e-07	5.56875607e+00	1.73831882e-08
169             	-8.75316956e-04	7.74948290e-07	5.56879354e+00	1.73832800e-08
170             	-8.75738363e-04	7.74955127e-07	5.56885015e+00	1.73833585e-08
171             	-8.76254653e-04	7.74963210e-07	5.56891478e+00	1.73833930e-08
172             	-8.76330462e-04	7.74971048e-07	5.56897559e+00	1.73834069e-08
173             	-8.76450777e-04	7.74976905e-07	5.56901942e+00	1.73834614e-08
174             	-8.76225029e-04	7.74979499e-07	5.56903700e+00	1.73835410e-08
175             	-8.75713485e-04	7.74978402e-07	5.56902586e+00	1.73836326e-08
176             	-8.75215863e-04	7.74973970e-07	5.56898945e+00	1.73837299e-08
177             	-8.74501489e-04	7.74967220e-07	5.56893601e+00	1.73838175e-08
178             	-8.74255379e-04	7.74959326e-07	5.56887468e+00	1.73838958e-08
179             	-8.74451315e-04	7.74951287e-07	5.56881317e+00	1.73839330e-08
180             	-8.74526272e-04	7.74943972e-07	5.56875810e+00	1.73839304e-08
181             	-8.74772264e-04	7.74938094e-07	5.56871497e+00	1.73839267e-08
182             	-9.23562641e-04	7.74934453e-07	5.56868997e+00	1.73839226e-08
183             	-1.01232627e-03	7.74933824e-07	5.56868902e+00	1.73839315e-08
184             	-9.03849218e-04	7.74937007e-07	5.56871774e+00	1.73839566e-08
185             	-8.75394139e-04	7.74943474e-07	5.56877129e+00	1.73840317e-08
186             	-8.75728804e-04	7.74952053e-07	5.56883978e+00	1.73840522e-08
187             	-8.76318617e-04	7.74961281e-07	5.56891140e+00	1.73840695e-08
188             	-8.76143305e-04	7.74969658e-07	5.56897441e+00	1.73840920e-08
189             	-8.76273844e-04	7.74975543e-07	5.56901660e+00	1.73841753e-08
190             	-8.75918306e-04	7.74978011e-07	5.56903157e+00	1.73842643e-08
191             	-8.75482429e-04	7.74976990e-07	5.56901959e+00	1.73843623e-08
192             	-8.75013627e-04	7.74973174e-07	5.56898662e+00	1.73844585e-08
193             	-8.74546749e-04	7.74967705e-07	5.56894177e+00	1.73845438e-08
194             	-8.74556605e-04	7.74961748e-07	5.56889410e+00	1.73846101e-08
195             	-8.74623082e-04	7.74956321e-07	5.56885143e+00	1.73846392e-08
196             	-8.99809309e-04	7.74952099e-07	5.56881899e+00	1.73846590e-08
197             	-9.52455945e-04	7.74950029e-07	5.56880404e+00	1.73846586e-08
198             	-9.83970514e-04	7.74950615e-07	5.56881036e+00	1.73846875e-08
199             	-8.74770555e-04	7.74954401e-07	5.56884159e+00	1.73847157e-08
200             	-8.75615631e-04	7.74960679e-07	5.56889161e+00	1.73847936e-08
201             	-8.75887503e-04	7.74968428e-07	5.56895184e+00	1.73847927e-08
202             	-8.76500805e-04	7.74976251e-07	5.56901116e+00	1.73847935e-08
203             	-8.76255780e-04	7.74982629e-07	5.56905785e+00	1.73847954e-08
204             	-8.76233697e-04	7.74986056e-07	5.56908081e+00	1.73848605e-08
205             	-8.75765279e-04	7.74985981e-07	5.56907646e+00	1.73849290e-08
206             	-8.75338905e-04	7.74982715e-07	5.56904788e+00	1.73849958e-08
207             	-8.74820042e-04	7.74977301e-07	5.56900352e+00	1.73850460e-08
208             	-8.74689918e-04	7.74970958e-07	5.56895298e+00	1.73850762e-08
209             	-8.74634893e-04	7.74964801e-07	5.56890487e+00	1.73850677e-08
210             	-8.75671319e-04	7.74959562e-07	5.56886485e+00	1.73850429e-08
211             	-9.01791228e-04	7.74956195e-07	5.56884023e+00	1.73849857e-08
212             	-1.01726597e-03	7.74955142e-07	5.56883446e+00	1.73849527e-08
213             	-8.99595635e-04	7.74957382e-07	5.56885461e+00	1.73849134e-08
214             	-8.75471949e-04	7.74962371e-07	5.56889587e+00	1.73849337e-08
215             	-8.75353877e-04	7.74969243e-07	5.56895076e+00	1.73848767e-08
216             	-8.76266351e-04	7.74976637e-07	5.56900826e+00	1.73848409e-08
217             	-8.76117326e-04	7.74983003e-07	5.56905628e+00	1.73847706e-08
218             	-8.76193331e-04	7.74986693e-07	5.56908248e+00	1.73847672e-08
219             	-8.75835560e-04	7.74986778e-07	5.56908041e+00	1.73847751e-08
220             	-8.75350491e-04	7.74983189e-07	5.56905028e+00	1.73847934e-08
221             	-8.74786409e-04	7.74976630e-07	5.56899810e+00	1.73848116e-08
222             	-8.74218768e-04	7.74968304e-07	5.56893338e+00	1.73848202e-08
223             	-8.74214465e-04	7.74959356e-07	5.56886497e+00	1.73848084e-08
224             	-8.74448048e-04	7.74950757e-07	5.56880033e+00	1.73847510e-08
225             	-8.74303137e-04	7.74943401e-07	5.56874620e+00	1.73846676e-08
226             	-9.20313282e-04	7.74937782e-07	5.56870647e+00	1.73846075e-08
227             	-9.59240300e-04	7.74935137e-07	5.56869051e+00	1.73845295e-08
228             	-9.84654889e-04	7.74935871e-07	5.56870129e+00	1.73844977e-08
229             	-8.74513557e-04	7.74940581e-07	5.56874259e+00	1.73844517e-08
230             	-8.75608633e-04	7.74948167e-07	5.56880512e+00	1.73844661e-08
231             	-8.75672434e-04	7.74957335e-07	5.56887809e+00	1.73843903e-08
232             	-8.76188189e-04	7.74966484e-07	5.56894876e+00	1.73843466e-08
233             	-8.76075048e-04	7.74973946e-07	5.56900439e+00	1.73843208e-08
234             	-8.76034639e-04	7.74978237e-07	5.56903417e+00	1.73843486e-08
235             	-8.75582323e-04	7.74978819e-07	5.56903482e+00	1.73843913e-08
236             	-8.75173078e-04	7.74975972e-07	5.56900928e+00	1.73844459e-08
237             	-8.74581456e-04	7.74970667e-07	5.56896556e+00	1.73844973e-08
238             	-8.74265409e-04	7.74964121e-07	5.56891321e+00	1.73845452e-08
239             	-8.74472163e-04	7.74957429e-07	5.56886070e+00	1.73845670e-08
240             	-8.74406491e-04	7.74951603e-07	5.56881574e+00	1.73845536e-08
241             	-9.15616442e-04	7.74947156e-07	5.56878237e+00	1.73845540e-08
242             	-9.62841212e-04	7.74945190e-07	5.56876899e+00	1.73845369e-08
243             	-9.74858390e-04	7.74946122e-07	5.56877872e+00	1.73845649e-08
244             	-8.74691885e-04	7.74950456e-07	5.56881477e+00	1.73845853e-08
245             	-8.75673606e-04	7.74957332e-07	5.56886979e+00	1.73846590e-08
246             	-8.75944583e-04	7.74965655e-07	5.56893464e+00	1.73846451e-08
247             	-8.76486632e-04	7.74973961e-07	5.56899769e+00	1.73846407e-08
248             	-8.76237484e-04	7.74980716e-07	5.56904714e+00	1.73846496e-08
249             	-8.76189428e-04	7.74984452e-07	5.56907222e+00	1.73847205e-08
250             	-8.75749675e-04	7.74984678e-07	5.56906989e+00	1.73847977e-08
251             	-8.75361015e-04	7.74981750e-07	5.56904359e+00	1.73848724e-08
252             	-8.74853401e-04	7.74976710e-07	5.56900180e+00	1.73849315e-08
253             	-8.74730474e-04	7.74970775e-07	5.56895408e+00	1.73849744e-08
254             	-8.74660872e-04	7.74965071e-07	5.56890911e+00	1.73849819e-08
255             	-8.86803889e-04	7.74960312e-07	5.56887245e+00	1.73849782e-08
256             	-9.19615160e-04	7.74957477e-07	5.56885160e+00	1.73849414e-08
257             	-1.00871362e-03	7.74957031e-07	5.56885012e+00	1.73849287e-08
258             	-8.85567587e-04	7.74959808e-07	5.56887392e+00	1.73849140e-08
259             	-8.75577323e-04	7.74965176e-07	5.56891750e+00	1.73849554e-08
260             	-8.75602066e-04	7.74972194e-07	5.56897286e+00	1.73849121e-08
261             	-8.76398010e-04	7.74979511e-07	5.56902914e+00	1.73848836e-08
262             	-8.76239683e-04	7.74985578e-07	5.56907432e+00	1.73848339e-08
263             	-8.76244337e-04	7.74988816e-07	5.56909667e+00	1.73848498e-08
264             	-8.75836894e-04	7.74988446e-07	5.56909084e+00	1.73848757e-08
265             	-8.75358764e-04	7.74984561e-07	5.56905828e+00	1.73849065e-08
266             	-8.74765079e-04	7.74978034e-07	5.56900620e+00	1.73849304e-08
267             	-8.74413589e-04	7.74970089e-07	5.56894424e+00	1.73849408e-08
268             	-8.74516070e-04	7.74961824e-07	5.56888091e+00	1.73849180e-08
269             	-8.74500882e-04	7.74954201e-07	5.56882353e+00	1.73848543e-08
270             	-8.81418203e-04	7.74947854e-07	5.56877702e+00	1.73847861e-08
271             	-9.08068380e-04	7.74943803e-07	5.56874915e+00	1.73847008e-08
272             	-1.02223920e-03	7.74942515e-07	5.56874354e+00	1.73846541e-08
273             	-8.97481943e-04	7.74945044e-07	5.56876772e+00	1.73845978e-08
274             	-8.75385732e-04	7.74950786e-07	5.56881630e+00	1.73846022e-08
275             	-8.75400895e-04	7.74958678e-07	5.56888021e+00	1.73845305e-08
276             	-8.76212440e-04	7.74967211e-07	5.56894722e+00	1.73844807e-08
277             	-8.76018144e-04	7.74974796e-07	5.56900493e+00	1.73844174e-08
278             	-8.76194906e-04	7.74979700e-07	5.56904042e+00	1.73844215e-08
279             	-8.75801268e-04	7.74981004e-07	5.56904735e+00	1.73844368e-08
280             	-8.75367702e-04	7.74978614e-07	5.56902586e+00	1.73844694e-08
281             	-8.74794826e-04	7.74973237e-07	5.56898200e+00	1.73845056e-08
282             	-8.74240660e-04	7.74966045e-07	5.56892510e+00	1.73845400e-08
283             	-8.74263622e-04	7.74958175e-07	5.56886398e+00	1.73845585e-08
284             	-8.74540318e-04	7.74950581e-07	5.56880598e+00	1.73845351e-08
285             	-8.74380640e-04	7.74944171e-07	5.56875799e+00	1.73844891e-08
286             	-9.27843410e-04	7.74939420e-07	5.56872377e+00	1.73844725e-08
287             	-9.77670397e-04	7.74937539e-07	5.56871256e+00	1.73844393e-08
288             	-9.61777746e-04	7.74938996e-07	5.56872774e+00	1.73844527e-08
289             	-8.74703801e-04	7.74944146e-07	5.56877126e+00	1.73844567e-08
290             	-8.75788463e-04	7.74951898e-07	5.56883388e+00	1.73845116e-08
291             	-8.75963481e-04	7.74960993e-07	5.56890519e+00	1.73844768e-08
292             	-8.76349755e-04	7.74969892e-07	5.56897297e+00	1.73844656e-08
293             	-8.76245675e-04	7.74976975e-07	5.56902492e+00	1.73844803e-08
294             	-8.76120490e-04	7.74980870e-07	5.56905108e+00	1.73845429e-08
295             	-8.75683771e-04	7.74981154e-07	5.56904902e+00	1.73846166e-08
296             	-8.75285103e-04	7.74978240e-07	5.56902267e+00	1.73846925e-08
297             	-8.74740179e-04	7.74973180e-07	5.56898058e+00	1.73847578e-08
298             	-8.74607139e-04	7.74967199e-07	5.56893235e+00	1.73848118e-08
299             	-8.74559227e-04	7.74961425e-07	5.56888668e+00	1.73848321e-08
300             	-8.88258727e-04	7.74956573e-07	5.56884911e+00	1.73848409e-08
301             	-9.10598708e-04	7.74953655e-07	5.56882738e+00	1.73848174e-08
302             	-1.01624060e-03	7.74953055e-07	5.56882448e+00	1.73848270e-08
303             	-8.90615802e-04	7.74955737e-07	5.56884734e+00	1.73848275e-08
304             	-8.75579439e-04	7.74961120e-07	5.56889088e+00	1.73848934e-08
305             	-8.75559502e-04	7.74968345e-07	5.56894770e+00	1.73848712e-08
306             	-8.76447274e-04	7.74976080e-07	5.56900706e+00	1.73848683e-08
307             	-8.76271796e-04	7.74982825e-07	5.56905727e+00	1.73848359e-08
308             	-8.76329155e-04	7.74986963e-07	5.56908622e+00	1.73848707e-08
309             	-8.75921218e-04	7.74987626e-07	5.56908787e+00	1.73849160e-08
310             	-8.75481933e-04	7.74984850e-07	5.56906321e+00	1.73849685e-08
311             	-8.74944167e-04	7.74979467e-07	5.56901917e+00	1.73850113e-08
312             	-8.74639604e-04	7.74972685e-07	5.56896532e+00	1.73850382e-08
313             	-8.74633918e-04	7.74965647e-07	5.56891053e+00	1.73850321e-08
314             	-8.74811258e-04	7.74959266e-07	5.56886182e+00	1.73849920e-08
315             	-8.80475297e-04	7.74954305e-07	5.56882507e+00	1.73849314e-08
316             	-9.62846678e-04	7.74951504e-07	5.56880599e+00	1.73848686e-08
317             	-9.75806669e-04	7.74951616e-07	5.56881019e+00	1.73848172e-08
318             	-8.74866686e-04	7.74954991e-07	5.56883981e+00	1.73847873e-08
319             	-8.75398840e-04	7.74960920e-07	5.56888860e+00	1.73847842e-08
320             	-8.75816549e-04	7.74968224e-07	5.56894677e+00	1.73847316e-08
321             	-8.76120586e-04	7.74975499e-07	5.56900309e+00	1.73846684e-08
322             	-8.76192635e-04	7.74981074e-07	5.56904475e+00	1.73846326e-08
323             	-8.76046816e-04	7.74983551e-07	5.56906152e+00	1.73846351e-08
324             	-8.75576231e-04	7.74982391e-07	5.56904999e+00	1.73846536e-08
325             	-8.75089422e-04	7.74977866e-07	5.56901297e+00	1.73846809e-08
326             	-8.74420417e-04	7.74970965e-07	5.56895848e+00	1.73847024e-08
327             	-8.74168297e-04	7.74962871e-07	5.56889580e+00	1.73847152e-08
328             	-8.74342276e-04	7.74954600e-07	5.56883273e+00	1.73846903e-08
329             	-8.74403448e-04	7.74947024e-07	5.56877593e+00	1.73846275e-08
330             	-8.74704848e-04	7.74940835e-07	5.56873074e+00	1.73845631e-08
331             	-9.15810947e-04	7.74936892e-07	5.56870376e+00	1.73844968e-08
332             	-1.01595976e-03	7.74935895e-07	5.56870034e+00	1.73844499e-08
333             	-9.06356875e-04	7.74938733e-07	5.56872682e+00	1.73844146e-08
334             	-8.75267538e-04	7.74944892e-07	5.56877844e+00	1.73844330e-08
335             	-8.75514719e-04	7.74953248e-07	5.56884569e+00	1.73843978e-08
336             	-8.76198370e-04	7.74962320e-07	5.56891657e+00	1.73843680e-08
337             	-8.76028600e-04	7.74970584e-07	5.56897917e+00	1.73843375e-08
338             	-8.76205490e-04	7.74976353e-07	5.56902086e+00	1.73843724e-08
339             	-8.75864805e-04	7.74978642e-07	5.56903483e+00	1.73844164e-08
340             	-8.75420209e-04	7.74977322e-07	5.56902091e+00	1.73844754e-08
341             	-8.74942833e-04	7.74973042e-07	5.56898473e+00	1.73845383e-08
342             	-8.74386409e-04	7.74966947e-07	5.56893545e+00	1.73845945e-08
343             	-8.74411074e-04	7.74960209e-07	5.56888219e+00	1.73846380e-08
344             	-8.74470957e-04	7.74953866e-07	5.56883290e+00	1.73846416e-08
345             	-8.77122114e-04	7.74948629e-07	5.56879305e+00	1.73846339e-08
346             	-9.12030616e-04	7.74945405e-07	5.56876963e+00	1.73846110e-08
347             	-1.01712430e-03	7.74944705e-07	5.56876658e+00	1.73846179e-08
348             	-8.97974974e-04	7.74947478e-07	5.56879073e+00	1.73846297e-08
349             	-8.75468000e-04	7.74953202e-07	5.56883740e+00	1.73846984e-08
350             	-8.75532449e-04	7.74960963e-07	5.56889873e+00	1.73846901e-08
351             	-8.76384729e-04	7.74969398e-07	5.56896371e+00	1.73846968e-08
352             	-8.76201085e-04	7.74977041e-07	5.56902084e+00	1.73846793e-08
353             	-8.76321312e-04	7.74982246e-07	5.56905779e+00	1.73847292e-08
354             	-8.75924817e-04	7.74984073e-07	5.56906798e+00	1.73847892e-08
355             	-8.75511768e-04	7.74982466e-07	5.56905173e+00	1.73848594e-08
356             	-8.75012953e-04	7.74978186e-07	5.56901547e+00	1.73849216e-08
357             	-8.74702551e-04	7.74972400e-07	5.56896849e+00	1.73849694e-08
358             	-8.74633979e-04	7.74966276e-07	5.56891987e+00	1.73849882e-08
359             	-8.74906713e-04	7.74960709e-07	5.56887655e+00	1.73849798e-08
360             	-8.84823609e-04	7.74956528e-07	5.56884492e+00	1.73849428e-08
361             	-9.83136647e-04	7.74954402e-07	5.56883016e+00	1.73849069e-08
362             	-9.54101147e-04	7.74955169e-07	5.56883850e+00	1.73848805e-08
363             	-8.75083914e-04	7.74958919e-07	5.56887005e+00	1.73848903e-08
364             	-8.75319582e-04	7.74964982e-07	5.56891891e+00	1.73848879e-08
365             	-8.76009578e-04	7.74972185e-07	5.56897539e+00	1.73848639e-08
366             	-8.76153367e-04	7.74979151e-07	5.56902855e+00	1.73848071e-08
367             	-8.76237898e-04	7.74984225e-07	5.56906576e+00	1.73847899e-08
368             	-8.76051207e-04	7.74986112e-07	5.56907760e+00	1.73848090e-08
369             	-8.75590424e-04	7.74984369e-07	5.56906138e+00	1.73848407e-08
370             	-8.75093445e-04	7.74979381e-07	5.56902073e+00	1.73848749e-08
371             	-8.74463753e-04	7.74972208e-07	5.56896417e+00	1.73848989e-08
372             	-8.74283417e-04	7.74964042e-07	5.56890101e+00	1.73849079e-08
373             	-8.74462528e-04	7.74955903e-07	5.56883909e+00	1.73848750e-08
374             	-8.74395974e-04	7.74948700e-07	5.56878532e+00	1.73848065e-08
375             	-9.05033757e-04	7.74942983e-07	5.56874400e+00	1.73847484e-08
376             	-9.35206249e-04	7.74939902e-07	5.56872389e+00	1.73846715e-08
377             	-1.00713666e-03	7.74939869e-07	5.56872811e+00	1.73846373e-08
378             	-8.74507681e-04	7.74943731e-07	5.56876246e+00	1.73845888e-08
379             	-8.75542583e-04	7.74950581e-07	5.56881919e+00	1.73846034e-08
380             	-8.75581473e-04	7.74959206e-07	5.56888809e+00	1.73845281e-08
381             	-8.76279255e-04	7.74968031e-07	5.56895657e+00	1.73844812e-08
382             	-8.76031590e-04	7.74975467e-07	5.56901237e+00	1.73844359e-08