/*--------------------------------*- C++ -*----------------------------------*\
| =========                 |                                                 |
| \\      /  F ield         | OpenFOAM: The Open Source CFD Toolbox           |
|  \\    /   O peration     | Version:  2206                                  |
|   \\  /    A nd           | Website:  www.openfoam.com                      |
|    \\/     M anipulation  |                                                 |
\*---------------------------------------------------------------------------*/
FoamFile
{
    version     2.0;
    format      ascii;
    arch        "LSB;label=32;scalar=64";
    class       volScalarField;
    location    "600";
    object      epsilon;
}
// * * * * * * * * * * * * * * * * * * * * * * * * * * * * * * * * * * * * * //

dimensions      [0 2 -3 0 0 0 0];

internalField   nonuniform List<scalar> 
13056
(
0.0091751647
0.009141334
0.0091244443
0.0091166828
0.0091122832
0.0091093387
0.0091072163
0.009105639
0.0091044516
0.009103557
0.0091028919
0.0091024155
0.0091021037
0.009101946
0.0091019472
0.0091021287
0.0091025529
0.0091033036
0.0091047211
0.0091069371
0.0091125725
0.0091215972
0.0091423476
0.012285815
0.031543043
0.0020863036
0.0071226577
0.00054201608
0.0034089215
0.0024612035
0.0023547661
0.0020284889
0.0018399024
0.0016704641
0.0015341474
0.0014224957
0.0013293095
0.0012503169
0.0011824616
0.0011235052
0.0010717757
0.0010259949
0.00098516795
0.00094851149
0.00091540116
0.00088532456
0.0008578676
0.00083268825
0.00080950132
0.00078806716
0.00076818283
0.00074967553
0.00073239714
0.00071622003
0.00070103372
0.00068674189
0.00067325992
0.00066051383
0.00064843809
0.00063697467
0.00062607272
0.00061568572
0.0006057724
0.00059629565
0.00058722212
0.00057852171
0.00057016707
0.00056213345
0.00055439832
0.00054694121
0.00053974354
0.00053278813
0.00052605911
0.00051954197
0.00051322338
0.000507091
0.00050113341
0.00049534
0.00048970103
0.00048420755
0.00047885108
0.00047362363
0.00046851785
0.00046352688
0.00045864428
0.00045386401
0.00044918039
0.00044458804
0.00044008222
0.00043565815
0.0004313113
0.0004270375
0.00042283279
0.00041869343
0.00041461583
0.00041059659
0.00040663259
0.00040272082
0.00039885833
0.00039504231
0.00039127014
0.00038753926
0.00038384725
0.00038019176
0.00037657065
0.00037298177
0.00036942303
0.00036589252
0.00036238843
0.00035890917
0.00035545328
0.00035202175
0.00034860909
0.00034531799
0.00034226054
0.00033944776
0.0003368526
0.00033444924
0.00033221487
0.00033013057
0.00032818048
0.00032635103
0.00032463047
0.00032300854
0.00032147622
0.00032002543
0.00031864887
0.0003173397
0.00031609176
0.00031489776
0.00031375338
0.00031264137
0.0003115788
0.00031047016
0.00030955548
0.00030812794
0.0091735568
0.0091396229
0.0091226743
0.009114882
0.0091104634
0.0091075055
0.0091053729
0.0091037874
0.0091025932
0.0091016924
0.0091010214
0.009100539
0.0091002206
0.0091000549
0.0091000459
0.0091002137
0.0091006179
0.0091013395
0.0091027062
0.0091048488
0.0091102903
0.0091190936
0.0091383699
0.012282309
0.03199001
0.0023128086
0.0079259471
0.0012980763
0.0042140483
0.0033002067
0.0031430311
0.0028154781
0.0026140989
0.002438133
0.0022964562
0.0021800517
0.0020826168
0.001999804
0.0019284964
0.0018664037
0.0018118112
0.0017634047
0.0017201595
0.001681268
0.0016460872
0.0016140807
0.001584819
0.0015579472
0.0015331686
0.0015102333
0.0014889297
0.0014690771
0.0014505205
0.0014331261
0.0014167782
0.0014013754
0.001386829
0.0013730611
0.0013600025
0.0013475922
0.0013357765
0.0013245063
0.0013137381
0.0013034325
0.0012935542
0.0012840715
0.0012749553
0.0012661794
0.0012577199
0.0012495551
0.0012416651
0.0012340319
0.0012266384
0.0012194694
0.0012125105
0.0012057488
0.001199172
0.001192769
0.0011865293
0.0011804434
0.0011745022
0.0011686974
0.001163021
0.0011574659
0.0011520251
0.0011466922
0.0011414614
0.0011363266
0.0011312831
0.0011263258
0.0011214498
0.0011166509
0.0011119247
0.0011072675
0.0011026753
0.0010981448
0.0010936725
0.0010892553
0.0010848903
0.0010805744
0.0010763049
0.0010720793
0.0010678949
0.0010637494
0.0010596406
0.0010555662
0.0010515242
0.0010475127
0.00104353
0.0010395745
0.001035645
0.0010317438
0.0010278625
0.00102414
0.0010207065
0.0010175629
0.0010146731
0.0010120043
0.0010095286
0.0010072235
0.0010050705
0.0010030538
0.0010011598
0.00099937673
0.00099769439
0.00099610352
0.00099459585
0.00099316364
0.00099179997
0.00099049667
0.00098924903
0.00098803729
0.00098688229
0.00098567267
0.00098468092
0.00098312941
0.0091684475
0.0091341975
0.0091170686
0.0091091821
0.009104706
0.0091017078
0.0090995449
0.0090979357
0.0090967223
0.0090958054
0.0090951204
0.0090946251
0.0090942939
0.0090941148
0.0090940905
0.0090942394
0.0090946179
0.0090953034
0.0090966092
0.0090986648
0.0091038761
0.0091124329
0.0091298413
0.012271136
0.032421578
0.0025322533
0.0086867523
0.002046121
0.0049868863
0.0041031922
0.0039032898
0.0035747775
0.0033626802
0.0031813688
0.0030351494
0.0029146938
0.00281362
0.0027275227
0.0026532374
0.0025884328
0.0025313592
0.0024806732
0.0024353251
0.0023944874
0.0023575018
0.002323811
0.0022929724
0.0022646202
0.0022384481
0.0022141974
0.0021916491
0.0021706155
0.0021509361
0.0021324716
0.0021151017
0.0020987208
0.0020832365
0.0020685675
0.0020546416
0.0020413951
0.002028772
0.0020167209
0.0020051961
0.0019941565
0.0019835652
0.0019733887
0.0019635966
0.0019541615
0.0019450582
0.0019362639
0.0019277578
0.0019195208
0.0019115351
0.0019037846
0.0018962543
0.0018889304
0.0018818003
0.001874852
0.0018680747
0.0018614583
0.0018549932
0.0018486707
0.0018424825
0.0018364209
0.0018304788
0.0018246494
0.0018189265
0.0018133038
0.0018077765
0.001802339
0.0017969865
0.0017917143
0.0017865181
0.0017813938
0.0017763375
0.0017713455
0.0017664144
0.001761541
0.0017567221
0.0017519547
0.001747236
0.0017425633
0.001737934
0.0017333457
0.001728796
0.0017242829
0.0017198041
0.0017153579
0.0017109426
0.0017065569
0.0017021996
0.0016978742
0.0016935697
0.0016894593
0.0016856893
0.001682251
0.0016790994
0.0016761953
0.0016735061
0.0016710061
0.0016686742
0.0016664926
0.0016644461
0.0016625216
0.0016607078
0.0016589943
0.001657372
0.0016558323
0.0016543677
0.0016529692
0.0016516318
0.0016503333
0.0016490982
0.0016478006
0.0016467422
0.0016450833
0.0091596757
0.0091248859
0.0091074489
0.0090994018
0.0090948274
0.0090917606
0.0090895464
0.0090878973
0.0090866519
0.0090857088
0.0090850014
0.0090844864
0.0090841371
0.0090839401
0.0090838968
0.0090840239
0.0090843745
0.0090850224
0.0090862667
0.0090882362
0.0090932187
0.0091015498
0.009116966
0.012252491
0.032819047
0.0027414231
0.0093955642
0.0027757861
0.0057188522
0.0048628643
0.0046271645
0.0042982192
0.0040774326
0.0038918851
0.0037419522
0.0036181542
0.0035140554
0.003425211
0.0033484235
0.0032813309
0.0032221572
0.003169536
0.0031223982
0.0030799008
0.0030413738
0.0030062416
0.0029740512
0.0029444282
0.002917058
0.0028916749
0.0028680536
0.002846001
0.0028253515
0.0028059614
0.0027877066
0.002770478
0.0027541799
0.0027387283
0.0027240485
0.0027100745
0.0026967481
0.0026840162
0.0026718313
0.0026601506
0.0026489359
0.0026381523
0.0026277683
0.0026177552
0.002608087
0.0025987399
0.0025896922
0.002580924
0.0025724168
0.0025641538
0.0025561195
0.0025482994
0.0025406804
0.00253325
0.0025259969
0.0025189106
0.0025119813
0.0025051997
0.0024985571
0.0024920457
0.002485658
0.002479387
0.0024732263
0.0024671691
0.0024612107
0.0024553452
0.0024495676
0.0024438731
0.0024382573
0.0024327159
0.0024272448
0.0024218404
0.002416499
0.0024112175
0.0024059924
0.002400821
0.0023957001
0.0023906271
0.0023855994
0.0023806144
0.0023756699
0.0023707637
0.0023658937
0.002361058
0.0023562552
0.0023514841
0.0023467436
0.0023420384
0.0023373549
0.0023328987
0.0023288304
0.0023251319
0.0023217498
0.0023186391
0.0023157629
0.0023130924
0.0023106043
0.002308279
0.0023060998
0.0023040524
0.0023021245
0.0023003048
0.0022985833
0.0022969508
0.0022953991
0.0022939186
0.0022925039
0.0022911309
0.0022898271
0.0022884538
0.0022873383
0.0022855875
0.0091469889
0.0091114185
0.009093536
0.0090852564
0.0090805398
0.0090773737
0.0090750855
0.009073379
0.0090720879
0.0090711074
0.0090703687
0.0090698268
0.0090694532
0.0090692334
0.009069167
0.0090692689
0.009069589
0.0090701976
0.0090713793
0.0090732629
0.0090780167
0.0090861427
0.0090994226
0.012225881
0.033163386
0.0029368292
0.010041855
0.0034759682
0.0064004321
0.0055707541
0.0053054042
0.0049767648
0.0047492756
0.0045605789
0.0044077868
0.0042813743
0.0041748792
0.004083837
0.0040050319
0.0039360827
0.0038751957
0.0038209886
0.0037723785
0.0037285111
0.0036887087
0.0036523804
0.0036190653
0.0035883824
0.0035600107
0.0035336794
0.0035091578
0.0034862487
0.0034647823
0.0034446118
0.0034256096
0.0034076638
0.0033906765
0.003374561
0.0033592408
0.0033446478
0.0033307226
0.0033174101
0.0033046615
0.0032924329
0.0032806845
0.0032693806
0.0032584886
0.0032479791
0.003237825
0.0032280017
0.003218487
0.0032092603
0.0032003025
0.0031915961
0.0031831252
0.0031748749
0.0031668315
0.0031589823
0.0031513155
0.0031438202
0.0031364863
0.0031293043
0.0031222651
0.0031153607
0.0031085834
0.0031019259
0.0030953817
0.0030889437
0.0030826071
0.003076366
0.003070215
0.0030641494
0.0030581645
0.003052256
0.0030464198
0.003040652
0.0030349491
0.0030293077
0.0030237245
0.0030181965
0.0030127206
0.0030072942
0.0030019146
0.0029965793
0.002991286
0.0029860325
0.0029808166
0.0029756368
0.0029704915
0.0029653798
0.0029603008
0.0029552601
0.0029502419
0.0029454814
0.0029411524
0.0029372274
0.0029336455
0.002930356
0.0029273185
0.0029245013
0.0029218788
0.0029194303
0.0029171375
0.0029149851
0.0029129598
0.0029110496
0.0029092438
0.0029075325
0.002905907
0.0029043571
0.0029028772
0.0029014413
0.0029000798
0.0028986423
0.002897479
0.0028956511
0.0091300455
0.009093431
0.0090749517
0.0090663606
0.0090614533
0.0090581543
0.0090557668
0.0090539835
0.0090526314
0.0090516014
0.0090508216
0.0090502445
0.00904984
0.0090495918
0.0090494978
0.0090495709
0.0090498574
0.0090504244
0.0090515419
0.0090533396
0.0090578634
0.0090658057
0.009076786
0.012190648
0.033435031
0.003114671
0.010613989
0.004134657
0.0070210739
0.0062171782
0.0059277712
0.0056003907
0.0053681542
0.0051774112
0.0050226519
0.0048943828
0.0047861446
0.0046934743
0.0046131532
0.0045427933
0.0044805922
0.0044251594
0.0043754036
0.0043304643
0.0042896598
0.0042523872
0.0042181803
0.0041866536
0.0041574821
0.0041303907
0.0041051456
0.0040815461
0.0040594197
0.0040386168
0.0040190077
0.0040004782
0.0039829286
0.0039662705
0.0039504256
0.0039353246
0.0039209069
0.0039071161
0.0038939024
0.0038812206
0.0038690302
0.0038572945
0.0038459803
0.0038350573
0.0038244978
0.0038142768
0.0038043712
0.0037947602
0.003785424
0.0037763449
0.0037675064
0.0037588932
0.0037504915
0.003742288
0.0037342708
0.0037264288
0.0037187514
0.0037112289
0.0037038521
0.0036966129
0.0036895032
0.0036825156
0.0036756435
0.0036688795
0.0036622191
0.0036556558
0.0036491844
0.0036427999
0.0036364977
0.0036302734
0.0036241228
0.0036180421
0.0036120274
0.0036060756
0.0036001833
0.0035943473
0.0035885648
0.0035828329
0.0035771491
0.0035715107
0.0035659156
0.0035603615
0.0035548463
0.0035493684
0.0035439267
0.0035385201
0.0035331479
0.0035278169
0.0035225089
0.0035174864
0.0035129343
0.0035088165
0.0035050652
0.0035016249
0.0034984514
0.0034955108
0.0034927759
0.0034902243
0.0034878366
0.0034855967
0.0034834905
0.0034815052
0.0034796296
0.0034778533
0.003476167
0.0034745601
0.0034730266
0.0034715392
0.0034701305
0.0034686403
0.0034674382
0.0034655476
0.0091084175
0.0090704659
0.0090512216
0.0090422307
0.0090370786
0.0090336088
0.009031094
0.0090292122
0.009027782
0.0090266887
0.0090258566
0.0090252354
0.0090247924
0.0090245096
0.0090243827
0.0090244226
0.0090246721
0.0090251948
0.0090262461
0.0090279574
0.0090322495
0.0090400313
0.009048528
0.012145978
0.03361396
0.0032708551
0.011099329
0.0047389579
0.007569259
0.0067913555
0.0064831003
0.0061581459
0.0059231008
0.0057314566
0.0055756704
0.0054463421
0.0053370466
0.0052433454
0.0051620337
0.0050907293
0.0050276314
0.0049713486
0.0049207879
0.0048750872
0.0048335652
0.0047956103
0.0047607537
0.004728608
0.0046988459
0.0046711901
0.0046454048
0.0046212873
0.0045986634
0.0045773818
0.0045573114
0.0045383365
0.0045203562
0.0045032809
0.0044870314
0.0044715372
0.0044567372
0.0044425742
0.0044289972
0.0044159606
0.0044034231
0.0043913474
0.0043796997
0.0043684493
0.004357568
0.0043470303
0.0043368129
0.0043268944
0.0043172549
0.0043078762
0.0042987416
0.0042898356
0.0042811439
0.0042726533
0.0042643515
0.0042562273
0.0042482698
0.0042404693
0.0042328164
0.0042253026
0.00421792
0.004210661
0.0042035189
0.0041964861
0.0041895581
0.0041827284
0.0041759916
0.0041693428
0.0041627772
0.0041562904
0.0041498783
0.0041435368
0.0041372623
0.0041310515
0.004124901
0.0041188078
0.0041127688
0.0041067813
0.0041008427
0.0040949504
0.0040891023
0.0040832961
0.0040775298
0.0040718019
0.0040661113
0.0040604573
0.004054839
0.0040492643
0.0040437131
0.004038472
0.0040337354
0.0040294591
0.0040255693
0.004022006
0.0040187223
0.0040156821
0.0040128564
0.0040102219
0.0040077583
0.0040054485
0.0040032778
0.0040012329
0.0039993021
0.0039974743
0.0039957402
0.0039940885
0.0039925132
0.0039909855
0.0039895403
0.0039880088
0.0039867767
0.0039848376
0.0090815931
0.0090419759
0.0090217771
0.0090122869
0.0090068288
0.0090031456
0.0090004715
0.0089984667
0.0089969391
0.0089957671
0.0089948701
0.0089941942
0.0089937042
0.0089933796
0.0089932139
0.0089932157
0.0089934242
0.0089938994
0.0089948823
0.0089965065
0.0090005644
0.0090082113
0.009014018
0.012090907
0.033680039
0.0034010757
0.011484542
0.0052753161
0.0080327594
0.0072816932
0.0069595391
0.0066383882
0.0064024717
0.0062111311
0.0060553139
0.0059257697
0.0058161418
0.00572204
0.0056402919
0.0055685345
0.005504979
0.0054482417
0.0053972343
0.0053510987
0.0053091584
0.0052707962
0.005235544
0.0052030151
0.0051728819
0.005144867
0.0051187337
0.0050942789
0.0050713278
0.0050497285
0.0050293492
0.0050100739
0.0049918007
0.0049744398
0.0049579112
0.0049421441
0.0049270774
0.0049126531
0.0048988197
0.0048855311
0.0048727459
0.0048604264
0.0048485383
0.0048370507
0.0048259352
0.004815166
0.0048047195
0.0047945742
0.0047847101
0.0047751086
0.004765753
0.0047566276
0.004747718
0.0047390108
0.0047304936
0.004722155
0.0047139842
0.0047059711
0.0046981065
0.0046903819
0.0046827889
0.0046753203
0.0046679691
0.0046607275
0.0046535913
0.0046465538
0.0046396096
0.0046327538
0.0046259816
0.0046192885
0.0046126705
0.0046061235
0.0045996438
0.0045932281
0.0045868732
0.0045805759
0.0045743332
0.0045681426
0.0045620013
0.0045559069
0.0045498572
0.0045438499
0.0045378833
0.0045319557
0.0045260664
0.0045202145
0.0045143997
0.0045086303
0.0045028848
0.0044974702
0.0044925891
0.0044881898
0.0044841932
0.0044805359
0.0044771683
0.0044740525
0.0044711584
0.0044684618
0.0044659413
0.0044635796
0.0044613612
0.0044592724
0.004457301
0.0044554358
0.0044536669
0.0044519829
0.0044503774
0.004448821
0.0044473499
0.0044457886
0.0044445355
0.0044425622
0.0090489786
0.0090073254
0.0089859579
0.0089758554
0.0089700219
0.0089660766
0.0089632071
0.0089610513
0.0089594041
0.0089581356
0.0089571593
0.008956417
0.0089558702
0.0089554956
0.0089552844
0.0089552424
0.0089554051
0.0089558293
0.0089567408
0.008958277
0.0089620978
0.0089696386
0.0089725238
0.012024331
0.033613637
0.0035009551
0.011756099
0.0057299385
0.0083990747
0.007676241
0.0073449628
0.0070291942
0.006794354
0.00660459
0.0064497976
0.0063209308
0.0062117375
0.0061179022
0.0060363037
0.0059646127
0.005901064
0.00584429
0.0057932143
0.0057469885
0.0057049454
0.0056664662
0.0056310867
0.0055984232
0.0055681505
0.0055399925
0.005513714
0.0054891124
0.0054660137
0.0054442664
0.0054237391
0.0054043159
0.0053858952
0.0053683872
0.005351712
0.005335799
0.0053205873
0.0053060186
0.0052920414
0.0052786096
0.0052656816
0.0052532196
0.0052411893
0.0052295597
0.0052183025
0.0052073917
0.0051968037
0.0051865169
0.0051765113
0.0051667684
0.0051572712
0.0051480041
0.0051389526
0.0051301034
0.0051214439
0.0051129629
0.0051046493
0.0050964933
0.0050884854
0.0050806171
0.0050728803
0.0050652673
0.0050577716
0.005050385
0.0050431036
0.0050359205
0.0050288305
0.0050218285
0.0050149099
0.0050080702
0.0050013052
0.0049946111
0.0049879842
0.0049814212
0.0049749187
0.0049684739
0.0049620838
0.0049557457
0.004949457
0.0049432152
0.0049370183
0.0049308642
0.0049247509
0.0049186771
0.004912642
0.0049066451
0.004900686
0.0048947738
0.0048888856
0.0048833454
0.0048783615
0.0048738762
0.004869806
0.0048660846
0.0048626603
0.004859494
0.0048565546
0.0048538172
0.0048512598
0.0048488646
0.0048466158
0.0048444992
0.0048425025
0.004840614
0.0048388239
0.0048371203
0.0048354969
0.0048339233
0.0048324373
0.0048308581
0.0048295932
0.0048276004
0.0090099012
0.0089657932
0.0089430138
0.0089321703
0.0089258819
0.0089216191
0.0089185127
0.0089161739
0.008914382
0.0089129967
0.0089119246
0.0089111023
0.0089104874
0.0089100535
0.0089097888
0.0089096965
0.0089098081
0.0089101768
0.0089110137
0.0089124607
0.0089160409
0.0089235084
0.0089232118
0.011945023
0.033396486
0.0035662427
0.011900955
0.0060893972
0.0086560326
0.0079632988
0.0076275489
0.0073189265
0.0070871279
0.0069002832
0.0067476311
0.0066203851
0.0065124367
0.0064195723
0.006338742
0.0062676662
0.0062046144
0.0061482449
0.0060975003
0.0060515481
0.0060097354
0.0059714456
0.0059362217
0.0059036862
0.0058735184
0.0058454457
0.0058192359
0.0057946887
0.005771632
0.0057499159
0.0057294103
0.0057100005
0.0056915858
0.0056740772
0.0056573954
0.0056414705
0.0056262424
0.005611653
0.0055976511
0.0055841908
0.0055712308
0.0055587336
0.005546665
0.0055349942
0.0055236931
0.005512736
0.0055020991
0.0054917613
0.0054817023
0.005471904
0.0054623494
0.0054530231
0.0054439105
0.0054349984
0.0054262744
0.0054177273
0.005409346
0.0054011208
0.0053930422
0.0053851018
0.0053772916
0.0053696039
0.0053620322
0.0053545685
0.0053472088
0.0053399464
0.0053327759
0.0053256925
0.0053186915
0.0053117686
0.0053049196
0.0052981407
0.0052914282
0.0052847789
0.0052781897
0.0052716576
0.0052651796
0.0052587532
0.0052523759
0.0052460452
0.0052397591
0.0052335156
0.0052273129
0.0052211496
0.0052150252
0.0052089393
0.0052028915
0.0051968915
0.0051909155
0.0051853001
0.0051802576
0.0051757252
0.0051716162
0.005167862
0.0051644096
0.005161219
0.0051582584
0.0051555025
0.0051529289
0.0051505194
0.0051482581
0.0051461306
0.0051441243
0.0051422274
0.00514043
0.00513872
0.0051370912
0.0051355126
0.0051340231
0.0051324382
0.0051311711
0.0051291739
0.0089636111
0.008916574
0.0088921059
0.0088803747
0.0088735409
0.0088688969
0.0088655063
0.0088629478
0.0088609822
0.0088594569
0.00885827
0.0088573521
0.0088566562
0.0088561522
0.008855825
0.0088556748
0.0088557291
0.0088560374
0.0088567957
0.0088581521
0.0088614876
0.0088689185
0.008865148
0.011851639
0.033012676
0.0035930621
0.011907378
0.0063413873
0.0087925316
0.008132157
0.0077964889
0.0074969368
0.0072701622
0.0070876434
0.0069383015
0.006813666
0.0067078128
0.0066166589
0.0065372469
0.0064673624
0.0064053226
0.0063498212
0.0062998277
0.0062545317
0.0062132997
0.0061755216
0.006140751
0.0061086197
0.006078814
0.006051067
0.0060251511
0.00600087
0.005978055
0.0059565588
0.0059362539
0.0059170273
0.0058987804
0.0058814255
0.0058648848
0.0058490893
0.0058339804
0.0058195008
0.0058055997
0.005792232
0.0057793571
0.0057669379
0.0057549408
0.0057433354
0.0057320939
0.005721191
0.0057106033
0.0057003099
0.0056902909
0.0056805283
0.0056710055
0.0056617071
0.005652619
0.0056437279
0.0056350217
0.0056264893
0.0056181198
0.0056099036
0.0056018313
0.0055938948
0.0055860859
0.0055783974
0.0055708226
0.0055633537
0.0055559868
0.0055487151
0.0055415337
0.0055344377
0.0055274224
0.0055204836
0.0055136173
0.0055068198
0.0055000873
0.0054934168
0.0054868052
0.0054802497
0.0054737473
0.0054672956
0.0054608921
0.0054545346
0.0054482209
0.0054419492
0.0054357178
0.0054295254
0.0054233717
0.0054172561
0.0054111788
0.0054051495
0.005399144
0.0053935069
0.0053884523
0.0053839137
0.0053798023
0.0053760484
0.0053725979
0.0053694105
0.005366454
0.005363703
0.0053611348
0.0053587312
0.0053564762
0.0053543553
0.0053523559
0.0053504661
0.005348676
0.0053469735
0.0053453523
0.0053437814
0.0053423001
0.0053407225
0.0053394629
0.0053374774
0.0089092838
0.0088587806
0.0088323093
0.0088195229
0.0088120399
0.0088069423
0.008803213
0.0088003929
0.0087982204
0.0087965284
0.008795205
0.0087941736
0.0087933818
0.0087927952
0.0087923951
0.0087921783
0.0087921678
0.00879241
0.0087930852
0.0087943491
0.008797435
0.0088048711
0.0087972983
0.011742737
0.03244985
0.0035781988
0.011765903
0.0064755997
0.0087993926
0.008173941
0.0078428056
0.0075543738
0.0073346133
0.0071578775
0.0070130593
0.0068920618
0.0067891874
0.0067005129
0.0066231954
0.0065551023
0.0064946111
0.0064404611
0.0063916567
0.0063474159
0.00630713
0.0062701998
0.0062361935
0.0062047549
0.00617558
0.0061484098
0.0061230234
0.0060992299
0.0060768655
0.0060557868
0.0060358697
0.0060170044
0.0059990947
0.0059820552
0.0059658101
0.0059502923
0.0059354449
0.0059212116
0.0059075431
0.0058943952
0.0058817282
0.0058695059
0.0058576955
0.0058462673
0.0058351941
0.0058244511
0.0058140156
0.0058038671
0.0057939861
0.0057843552
0.0057749579
0.0057657793
0.0057568056
0.0057480238
0.0057394221
0.0057309896
0.0057227156
0.0057145908
0.0057066061
0.0056987534
0.0056910248
0.0056834132
0.0056759121
0.0056685138
0.0056612147
0.0056540082
0.0056468892
0.0056398531
0.0056328954
0.0056260119
0.0056191988
0.0056124524
0.0056057692
0.0055991462
0.0055925804
0.0055860689
0.0055796092
0.0055731987
0.0055668352
0.0055605163
0.0055542401
0.005548005
0.005541809
0.0055356514
0.0055295316
0.0055234494
0.0055174048
0.0055114082
0.0055054346
0.0054998323
0.0054948146
0.005490313
0.0054862378
0.0054825187
0.0054791017
0.0054759463
0.0054730205
0.0054702988
0.0054677587
0.0054653822
0.0054631532
0.0054610574
0.0054590821
0.0054572157
0.0054554482
0.0054537676
0.0054521678
0.0054506178
0.005449157
0.0054476001
0.0054463586
0.0054444011
0.0088460236
0.0087914474
0.0087626153
0.0087485827
0.0087403321
0.0087346976
0.0087305675
0.0087274377
0.0087250202
0.0087231308
0.008721646
0.0087204805
0.0087195757
0.0087188922
0.0087184072
0.0087181137
0.0087180301
0.0087181992
0.0087187858
0.0087199551
0.0087227857
0.0087302737
0.00871853
0.011616793
0.031700351
0.0035194152
0.011470373
0.0064846629
0.0086702865
0.0080825217
0.0077602401
0.0074850583
0.0072742906
0.0071048241
0.0069657698
0.0068494616
0.0067504709
0.0066650647
0.006590536
0.0065248509
0.0064664603
0.006414159
0.0063669948
0.0063242205
0.0062852574
0.0062495221
0.0062166009
0.006186153
0.0061578866
0.0061315529
0.0061069395
0.0060838629
0.0060621652
0.0060417085
0.0060223732
0.0060040535
0.0059866566
0.0059701003
0.0059543113
0.0059392248
0.0059247865
0.0059109417
0.0058976424
0.0058848463
0.0058725148
0.0058606129
0.005849109
0.0058379743
0.0058271824
0.0058167094
0.0058065333
0.0057966342
0.0057869934
0.0057775939
0.0057684199
0.0057594568
0.0057506914
0.005742111
0.0057337042
0.0057254604
0.0057173694
0.005709422
0.0057016096
0.0056939241
0.0056863582
0.0056789048
0.0056715578
0.0056643095
0.0056571565
0.0056500925
0.0056431126
0.0056362124
0.0056293874
0.0056226337
0.0056159475
0.0056093254
0.005602764
0.0055962603
0.0055898115
0.005583415
0.005577068
0.0055707684
0.005564514
0.0055583024
0.005552132
0.0055460011
0.005539908
0.0055338518
0.0055278323
0.0055218494
0.0055159031
0.0055100038
0.0055041268
0.0054986183
0.005493689
0.0054892695
0.0054852705
0.0054816225
0.0054782719
0.0054751788
0.0054723113
0.0054696447
0.0054671565
0.0054648291
0.0054626467
0.0054605952
0.0054586621
0.005456836
0.005455107
0.0054534635
0.0054518993
0.0054503841
0.0054489567
0.0054474346
0.0054462219
0.0054443098
0.008772868
0.0087135339
0.0086819353
0.0086664389
0.0086572854
0.008651019
0.008646417
0.0086429224
0.0086402164
0.0086380946
0.0086364197
0.0086350966
0.0086340592
0.0086332623
0.0086326784
0.0086322966
0.0086321301
0.0086322184
0.00863271
0.0086337818
0.0086363501
0.0086439425
0.0086276155
0.011472222
0.030762311
0.0034157786
0.011019004
0.0063650933
0.0084026868
0.0078554481
0.007546162
0.007286381
0.0070865424
0.0069258305
0.0067937825
0.0066832186
0.0065890218
0.0065076781
0.0064366384
0.006373984
0.0063182518
0.0062683027
0.0062232356
0.0061823448
0.0061450865
0.0061108983
0.0060793882
0.0060502339
0.0060231585
0.0059979257
0.0059743333
0.005952207
0.0059313966
0.0059117704
0.0058932149
0.005875629
0.0058589244
0.0058430225
0.0058278536
0.0058133557
0.0057994774
0.0057861662
0.0057733763
0.0057610671
0.0057492017
0.0057377469
0.0057266722
0.0057159501
0.0057055554
0.0056954652
0.0056856585
0.0056761162
0.0056668204
0.0056577548
0.0056489043
0.0056402551
0.0056317942
0.0056235098
0.0056153908
0.0056074272
0.005599609
0.0055919277
0.0055843746
0.0055769425
0.005569624
0.0055624125
0.0055553022
0.0055482856
0.0055413596
0.005534518
0.0055277562
0.0055210701
0.0055144553
0.0055079082
0.005501425
0.0054950026
0.0054886377
0.0054823275
0.0054760693
0.0054698607
0.0054636991
0.0054575823
0.0054515084
0.0054454751
0.0054394809
0.0054335241
0.0054276034
0.0054217178
0.0054158672
0.0054100517
0.0054042713
0.0053985363
0.0053928225
0.0053874691
0.0053826813
0.0053783906
0.0053745097
0.0053709703
0.0053677203
0.0053647206
0.0053619403
0.0053593552
0.0053569436
0.0053546882
0.0053525737
0.0053505865
0.0053487142
0.005346946
0.0053452721
0.0053436812
0.0053421675
0.0053407014
0.0053393208
0.0053378481
0.0053366754
0.0053348266
0.0086887942
0.0086239314
0.0085891065
0.0085718989
0.0085616885
0.0085546818
0.0085495267
0.0085456045
0.0085425601
0.0085401659
0.0085382682
0.0085367603
0.0085355677
0.0085346386
0.0085339399
0.0085334563
0.0085331956
0.0085331938
0.008533583
0.008534554
0.0085368515
0.0085446069
0.0085232372
0.011307404
0.029640514
0.0032679816
0.010415423
0.0061181823
0.0079987915
0.0074948431
0.0072024431
0.0069601626
0.0067731043
0.0066225922
0.006498763
0.0063949756
0.0063064651
0.0062299647
0.0061631035
0.006104094
0.0060515715
0.0060044725
0.0059619551
0.0059233611
0.0058881866
0.0058558952
0.0058261204
0.0057985612
0.0057729581
0.0057490895
0.0057267657
0.0057058228
0.0056861196
0.0056675325
0.0056499546
0.0056332908
0.005617458
0.0056023821
0.0055879974
0.0055742457
0.0055610788
0.0055484469
0.0055363068
0.0055246201
0.0055133522
0.0055024714
0.0054919492
0.0054817595
0.0054718785
0.0054622845
0.0054529577
0.0054438802
0.0054350348
0.0054264064
0.0054179805
0.005409744
0.0054016849
0.0053937918
0.0053860544
0.005378463
0.0053710083
0.0053636822
0.0053564766
0.0053493845
0.0053423992
0.0053355141
0.0053287239
0.0053220215
0.0053154041
0.0053088656
0.005302402
0.005296009
0.0052896829
0.0052834199
0.0052772167
0.0052710704
0.0052649776
0.005258936
0.005252943
0.0052469962
0.0052410933
0.0052352323
0.0052294112
0.0052236282
0.0052178816
0.00521217
0.0052064921
0.0052008472
0.0051952352
0.0051896562
0.0051841103
0.0051786076
0.005173125
0.0051679888
0.0051633967
0.0051592825
0.005155562
0.0051521696
0.0051490549
0.0051461807
0.0051435169
0.0051410405
0.0051387306
0.0051365706
0.0051345459
0.0051326433
0.0051308511
0.0051291586
0.0051275568
0.0051260346
0.0051245865
0.0051231842
0.005121864
0.0051204555
0.0051193344
0.0051175672
0.0085927279
0.0085214719
0.0084829012
0.0084637015
0.0084522589
0.0084443885
0.0084385879
0.0084341662
0.0084307267
0.0084280142
0.0084258563
0.0084241329
0.0084227592
0.0084216762
0.0084208445
0.0084202436
0.0084198758
0.0084197733
0.0084200512
0.0084209171
0.0084229339
0.0084309172
0.0084039963
0.011120716
0.028346913
0.003078627
0.0096695887
0.0057507364
0.0074663307
0.0070081904
0.0067362223
0.0065134057
0.0063408377
0.006201881
0.0060874132
0.0059913781
0.0059094004
0.005838486
0.0057764609
0.0057216831
0.0056728982
0.005629127
0.0055895942
0.0055536948
0.0055209689
0.0054909114
0.0054631848
0.0054375121
0.0054136535
0.0053914043
0.0053705889
0.0053510555
0.0053326734
0.0053153279
0.00529892
0.0052833615
0.0052685752
0.0052544925
0.0052410522
0.0052282003
0.0052158923
0.0052040818
0.0051927287
0.0051817971
0.0051712547
0.0051610722
0.005151223
0.0051416828
0.0051324295
0.0051234428
0.0051147043
0.0051061972
0.0050979056
0.0050898154
0.0050819131
0.0050741866
0.0050666245
0.0050592163
0.0050519523
0.0050448236
0.0050378215
0.0050309383
0.0050241666
0.0050174999
0.0050109318
0.0050044563
0.0049980684
0.0049917615
0.0049855329
0.0049793771
0.0049732902
0.0049672685
0.0049613081
0.0049554059
0.0049495586
0.0049437635
0.0049380177
0.0049323188
0.0049266644
0.0049210525
0.0049154808
0.0049099475
0.0049044508
0.0048989891
0.0048935607
0.0048881646
0.0048827993
0.0048774644
0.0048721599
0.0048668858
0.0048616425
0.0048564396
0.0048512552
0.0048463981
0.0048420555
0.0048381652
0.0048346476
0.0048314404
0.004828496
0.004825779
0.0048232612
0.0048209206
0.0048187376
0.0048166965
0.0048147835
0.0048129859
0.0048112928
0.0048096942
0.0048081813
0.0048067439
0.0048053766
0.0048040527
0.0048028067
0.0048014774
0.0048004193
0.0047987522
0.0084835559
0.008404941
0.0083620389
0.008340529
0.0083276554
0.0083187811
0.0083122298
0.0083072272
0.0083033279
0.008300245
0.0082977843
0.00829581
0.008294226
0.0082929643
0.0082919786
0.0082912428
0.0082907528
0.0082905373
0.0082906936
0.0082914494
0.0082931734
0.0083014563
0.0082684264
0.010910574
0.026900655
0.0028524438
0.0087984748
0.0052755653
0.0068191709
0.0064089176
0.0061604696
0.0059588447
0.0058022684
0.0056760745
0.0055719921
0.0054845883
0.0054099095
0.0053452557
0.0052886659
0.0052386567
0.005194093
0.0051540887
0.0051179409
0.005085103
0.0050551626
0.0050276511
0.0050022627
0.0049787469
0.0049568859
0.0049364935
0.00491741
0.0048994969
0.0048826354
0.0048667209
0.004851663
0.0048373812
0.0048238052
0.0048108722
0.0047985265
0.0047867186
0.0047754082
0.0047645528
0.0047541155
0.0047440635
0.0047343674
0.0047250001
0.0047159375
0.0047071572
0.004698639
0.0046903644
0.0046823162
0.0046744794
0.0046668392
0.0046593827
0.0046520977
0.0046449728