/*--------------------------------*- C++ -*----------------------------------*\
| =========                 |                                                 |
| \\      /  F ield         | OpenFOAM: The Open Source CFD Toolbox           |
|  \\    /   O peration     | Version:  2206                                  |
|   \\  /    A nd           | Website:  www.openfoam.com                      |
|    \\/     M anipulation  |                                                 |
\*---------------------------------------------------------------------------*/
FoamFile
{
    version     2.0;
    format      ascii;
    arch        "LSB;label=32;scalar=64";
    class       volScalarField;
    location    "600";
    object      k;
}
// * * * * * * * * * * * * * * * * * * * * * * * * * * * * * * * * * * * * * //

dimensions      [0 2 -2 0 0 0 0];

internalField   nonuniform List<scalar> 
13056
(
0.00014151842
0.00013871438
0.00013780839
0.00013739593
0.00013714957
0.00013698177
0.0001368602
0.00013676901
0.00013669905
0.00013664453
0.00013660159
0.00013656753
0.00013654043
0.00013651889
0.00013650184
0.00013648846
0.00013647807
0.00013647034
0.00013646433
0.00013646215
0.00013645272
0.00013649728
0.00013623179
0.00013755384
1.839021e-05
3.0053696e-06
6.8073764e-06
1.2220551e-06
4.1606608e-06
3.3420759e-06
3.2489377e-06
2.9397525e-06
2.7545083e-06
2.582282e-06
2.4393117e-06
2.3190356e-06
2.216228e-06
2.1271884e-06
2.0491983e-06
1.9802197e-06
1.918699e-06
1.8634244e-06
1.8134353e-06
1.7679625e-06
1.7263839e-06
1.6881794e-06
1.652924e-06
1.6202619e-06
1.5898926e-06
1.5615608e-06
1.5350477e-06
1.5101648e-06
1.4867493e-06
1.4646591e-06
1.4437706e-06
1.4239745e-06
1.4051744e-06
1.3872849e-06
1.3702303e-06
1.3539425e-06
1.3383618e-06
1.3234331e-06
1.3091069e-06
1.2953387e-06
1.282088e-06
1.2693182e-06
1.2569957e-06
1.24509e-06
1.2335732e-06
1.2224197e-06
1.2116063e-06
1.2011113e-06
1.1909146e-06
1.1809976e-06
1.1713432e-06
1.1619356e-06
1.1527599e-06
1.1438023e-06
1.1350501e-06
1.1264915e-06
1.1181153e-06
1.1099109e-06
1.1018684e-06
1.0939786e-06
1.0862328e-06
1.0786229e-06
1.071141e-06
1.0637797e-06
1.0565327e-06
1.0493931e-06
1.0423547e-06
1.0354117e-06
1.0285583e-06
1.0217894e-06
1.0150998e-06
1.0084845e-06
1.001939e-06
9.9545909e-07
9.8904023e-07
9.8267833e-07
9.7636943e-07
9.7010974e-07
9.6389551e-07
9.5772318e-07
9.5158941e-07
9.4549088e-07
9.3942429e-07
9.3338658e-07
9.2737486e-07
9.2138657e-07
9.1541932e-07
9.0947497e-07
9.0354415e-07
8.9780581e-07
8.9245793e-07
8.8752342e-07
8.8295821e-07
8.7871964e-07
8.7476973e-07
8.7107693e-07
8.6761469e-07
8.6436026e-07
8.6129385e-07
8.5839813e-07
8.5565783e-07
8.5305921e-07
8.5058983e-07
8.4823795e-07
8.4599296e-07
8.4384216e-07
8.417781e-07
8.3976996e-07
8.3784872e-07
8.3584199e-07
8.3418419e-07
8.31594e-07
0.00014150342
0.00013869088
0.00013778172
0.00013736766
0.0001371203
0.00013695179
0.00013682969
0.0001367381
0.00013666783
0.00013661306
0.00013656991
0.00013653569
0.00013650845
0.00013648679
0.00013646964
0.00013645617
0.00013644572
0.00013643792
0.00013643186
0.00013642964
0.00013642014
0.00013646485
0.00013619844
0.00013752605
1.8286925e-05
2.9692543e-06
6.8758586e-06
1.3499406e-06
4.3071259e-06
3.5385284e-06
3.4152007e-06
3.116662e-06
2.9291495e-06
2.7585694e-06
2.6171361e-06
2.4979724e-06
2.3959709e-06
2.3075156e-06
2.229947e-06
2.1612679e-06
2.0999536e-06
2.0448138e-06
1.9949036e-06
1.9494675e-06
1.9078974e-06
1.8696701e-06
1.8343677e-06
1.8016401e-06
1.7711906e-06
1.7427665e-06
1.7161512e-06
1.6911583e-06
1.6676261e-06
1.6454139e-06
1.6243989e-06
1.6044727e-06
1.5855394e-06
1.5675142e-06
1.5503218e-06
1.5338944e-06
1.5181752e-06
1.5031073e-06
1.4886408e-06
1.4747312e-06
1.4613383e-06
1.4484254e-06
1.4359587e-06
1.4239078e-06
1.4122449e-06
1.4009446e-06
1.3899838e-06
1.3793407e-06
1.3689953e-06
1.3589292e-06
1.3491251e-06
1.3395673e-06
1.3302409e-06
1.3211321e-06
1.3122282e-06
1.3035174e-06
1.2949884e-06
1.2866307e-06
1.2784344e-06
1.2703903e-06
1.2624896e-06
1.2547241e-06
1.2470862e-06
1.2395683e-06
1.232164e-06
1.2248665e-06
1.2176696e-06
1.2105674e-06
1.2035543e-06
1.1966249e-06
1.1897742e-06
1.1829971e-06
1.1762892e-06
1.1696461e-06
1.1630634e-06
1.156537e-06
1.150063e-06
1.1436374e-06
1.1372567e-06
1.1309172e-06
1.1246156e-06
1.1183486e-06
1.1121129e-06
1.1059055e-06
1.0997236e-06
1.0935647e-06
1.0874265e-06
1.0813113e-06
1.0752087e-06
1.0693107e-06
1.0638229e-06
1.0587656e-06
1.0540914e-06
1.049755e-06
1.0457164e-06
1.0419428e-06
1.0384065e-06
1.0350839e-06
1.0319546e-06
1.0290007e-06
1.0262063e-06
1.0235574e-06
1.0210412e-06
1.0186455e-06
1.0163595e-06
1.0141701e-06
1.0120699e-06
1.0100269e-06
1.0080741e-06
1.0060321e-06
1.0043489e-06
1.0017154e-06
0.00014145541
0.00013861694
0.00013769815
0.0001372792
0.00013702876
0.00013685811
0.00013673442
0.00013664161
0.00013657038
0.00013651484
0.00013647107
0.00013643634
0.00013640868
0.00013638666
0.0001363692
0.00013635548
0.00013634481
0.00013633682
0.00013633059
0.00013632825
0.00013631856
0.00013636367
0.0001360945
0.00013743807
1.8177052e-05
2.9264515e-06
6.9173478e-06
1.477895e-06
4.430743e-06
3.7088128e-06
3.5612259e-06
3.273477e-06
3.0852397e-06
2.9172993e-06
2.7780912e-06
2.6606565e-06
2.5600174e-06
2.4726515e-06
2.3959662e-06
2.3280109e-06
2.267295e-06
2.2126536e-06
2.1631611e-06
2.1180784e-06
2.0768143e-06
2.0388439e-06
2.0037584e-06
1.971215e-06
1.9409219e-06
1.9126304e-06
1.8861274e-06
1.8612289e-06
1.8377756e-06
1.8156288e-06
1.7946671e-06
1.7747834e-06
1.7558833e-06
1.7378828e-06
1.7207072e-06
1.70429e-06
1.6885772e-06
1.6735108e-06
1.6590406e-06
1.6451223e-06
1.6317161e-06
1.6187856e-06
1.6062967e-06
1.5942195e-06
1.5825265e-06
1.5711927e-06
1.5601951e-06
1.5495124e-06
1.5391245e-06
1.5290133e-06
1.5191617e-06
1.5095539e-06
1.5001753e-06
1.4910121e-06
1.4820518e-06
1.4732826e-06
1.4646935e-06
1.4562737e-06
1.4480137e-06
1.4399041e-06
1.4319365e-06
1.4241026e-06
1.4163946e-06
1.4088053e-06
1.4013281e-06
1.3939565e-06
1.3866842e-06
1.3795052e-06
1.3724142e-06
1.3654057e-06
1.3584747e-06
1.3516164e-06
1.3448261e-06
1.3380996e-06
1.3314326e-06
1.324821e-06
1.3182608e-06
1.3117484e-06
1.30528e-06
1.298852e-06
1.2924613e-06
1.2861046e-06
1.2797787e-06
1.2734806e-06
1.2672076e-06
1.2609573e-06
1.2547275e-06
1.2485212e-06
1.2423268e-06
1.2363472e-06
1.2307929e-06
1.225681e-06
1.2209612e-06
1.2165862e-06
1.2125144e-06
1.2087119e-06
1.2051504e-06
1.2018058e-06
1.1986572e-06
1.1956863e-06
1.1928772e-06
1.1902153e-06
1.1876877e-06
1.1852821e-06
1.1829875e-06
1.1807908e-06
1.1786843e-06
1.1766357e-06
1.1746792e-06
1.1726312e-06
1.1709467e-06
1.1683078e-06
0.00014137292
0.00013849021
0.00013755499
0.00013712771
0.00013687204
0.00013669772
0.00013657131
0.00013647642
0.00013640355
0.00013634671
0.00013630188
0.00013626626
0.00013623788
0.00013621525
0.00013619728
0.00013618312
0.00013617207
0.00013616376
0.00013615725
0.00013615471
0.00013614468
0.00013619049
0.00013591662
0.00013728711
1.8058547e-05
2.8757248e-06
6.9284554e-06
1.6033764e-06
4.5287225e-06
3.8509076e-06
3.6842951e-06
3.4075524e-06
3.2201215e-06
3.0557129e-06
2.9193945e-06
2.8042801e-06
2.7055338e-06
2.6197369e-06
2.5443709e-06
2.4775388e-06
2.4177888e-06
2.3639854e-06
2.3152261e-06
2.270791e-06
2.2301085e-06
2.1926535e-06
2.1580282e-06
2.1258986e-06
2.0959792e-06
2.0680267e-06
2.0418319e-06
2.0172147e-06
1.9940188e-06
1.9721079e-06
1.951363e-06
1.9316789e-06
1.9129627e-06
1.8951321e-06
1.8781135e-06
1.8618415e-06
1.8462663e-06
1.8313288e-06
1.8169781e-06
1.8031708e-06
1.7898676e-06
1.7770323e-06
1.7646308e-06
1.7526339e-06
1.7410148e-06
1.729749e-06
1.7188139e-06
1.7081886e-06
1.6978532e-06
1.6877899e-06
1.6779819e-06
1.6684137e-06
1.6590709e-06
1.6499398e-06
1.6410081e-06
1.6322644e-06
1.6236975e-06
1.6152972e-06
1.6070537e-06
1.5989582e-06
1.5910019e-06
1.583177e-06
1.5754758e-06
1.5678909e-06
1.5604161e-06
1.5530449e-06
1.545771e-06
1.5385887e-06
1.5314925e-06
1.5244773e-06
1.517538e-06
1.5106698e-06
1.5038683e-06
1.4971293e-06
1.4904486e-06
1.483822e-06
1.4772459e-06
1.4707164e-06
1.4642301e-06
1.4577835e-06
1.4513733e-06
1.4449966e-06
1.43865e-06
1.4323308e-06
1.4260364e-06
1.4197645e-06
1.4135131e-06
1.4072857e-06
1.4010698e-06
1.3950769e-06
1.3895201e-06
1.3844127e-06
1.3797021e-06
1.3753393e-06
1.3712817e-06
1.3674948e-06
1.3639499e-06
1.3606226e-06
1.3574917e-06
1.3545389e-06
1.3517481e-06
1.3491047e-06
1.3465957e-06
1.3442087e-06
1.3419328e-06
1.3397548e-06
1.3376673e-06
1.3356374e-06
1.3337006e-06
1.3316709e-06
1.3300052e-06
1.3273925e-06
0.00014125366
0.00013830706
0.0001373481
0.00013690877
0.00013664553
0.0001364659
0.00013633556
0.00013623766
0.00013616243
0.00013610369
0.00013605732
0.00013602045
0.00013599101
0.00013596751
0.00013594879
0.00013593399
0.0001359224
0.00013591362
0.0001359067
0.00013590386
0.00013589334
0.00013594015
0.00013565951
0.00013706875
1.7929291e-05
2.815854e-06
6.9055726e-06
1.7233792e-06
4.5979898e-06
3.9623775e-06
3.781421e-06
3.51599e-06
3.3308664e-06
3.1708151e-06
3.0380375e-06
2.925819e-06
2.829479e-06
2.745713e-06
2.6720852e-06
2.606758e-06
2.5483241e-06
2.4956816e-06
2.4479544e-06
2.4044447e-06
2.3646031e-06
2.3279065e-06
2.2939696e-06
2.2624688e-06
2.2331263e-06
2.2057049e-06
2.180001e-06
2.1558387e-06
2.1330657e-06
2.1115489e-06
2.0911721e-06
2.0718326e-06
2.0534398e-06
2.0359129e-06
2.0191804e-06
2.0031781e-06
1.987861e-06
1.9731695e-06
1.9590518e-06
1.9454654e-06
1.9323719e-06
1.9197352e-06
1.9075212e-06
1.895702e-06
1.8842518e-06
1.8731466e-06
1.8623645e-06
1.8518848e-06
1.8416885e-06
1.8317578e-06
1.8220765e-06
1.8126293e-06
1.8034021e-06
1.7943817e-06
1.7855559e-06
1.7769137e-06
1.7684442e-06
1.7601373e-06
1.7519834e-06
1.7439739e-06
1.7361004e-06
1.7283549e-06
1.72073e-06
1.7132185e-06
1.7058144e-06
1.6985112e-06
1.6913028e-06
1.6841836e-06
1.6771484e-06
1.6701919e-06
1.6633094e-06
1.6564962e-06
1.6497478e-06
1.6430604e-06
1.6364297e-06
1.6298517e-06
1.6233229e-06
1.6168396e-06
1.6103984e-06
1.6039959e-06
1.5976291e-06
1.5912949e-06
1.5849903e-06
1.5787127e-06
1.5724596e-06
1.5662289e-06
1.5600186e-06
1.5538328e-06
1.5476583e-06
1.5417131e-06
1.5362103e-06
1.5311596e-06
1.5265063e-06
1.5222002e-06
1.5181982e-06
1.5144656e-06
1.5109735e-06
1.5076974e-06
1.5046163e-06
1.5017118e-06
1.4989678e-06
1.49637e-06
1.4939052e-06
1.4915613e-06
1.4893274e-06
1.4871904e-06
1.4851431e-06
1.4831527e-06
1.4812553e-06
1.4792647e-06
1.4776347e-06
1.475075e-06
0.00014109457
0.00013806254
0.00013707184
0.0001366164
0.00013634301
0.00013615628
0.00013602068
0.00013591874
0.00013584035
0.00013577908
0.00013573065
0.00013569208
0.00013566124
0.00013563655
0.00013561683
0.00013560119
0.00013558886
0.00013557946
0.00013557198
0.00013556876
0.00013555757
0.00013560572
0.00013531605
0.00013677705
1.7787479e-05
2.7456671e-06
6.8449255e-06
1.8344126e-06
4.6352328e-06
4.0404324e-06
3.8493777e-06
3.5956575e-06
3.4142952e-06
3.2593865e-06
3.1307926e-06
3.0220353e-06
2.9286039e-06
2.8473187e-06
2.7758351e-06
2.712382e-06
2.6556016e-06
2.6044303e-06
2.5580215e-06
2.5157029e-06
2.4769495e-06
2.4412424e-06
2.4082106e-06
2.3775423e-06
2.3489687e-06
2.3222602e-06
2.2972193e-06
2.2736755e-06
2.2514811e-06
2.2305069e-06
2.2106402e-06
2.1917813e-06
2.173842e-06
2.1567442e-06
2.1404182e-06
2.1248018e-06
2.1098549e-06
2.0955189e-06
2.08174e-06
2.068477e-06
2.0556926e-06
2.0433505e-06
2.0314167e-06
2.0198654e-06
2.0086719e-06
1.997813e-06
1.9872673e-06
1.9770151e-06
1.9670376e-06
1.9573177e-06
1.9478396e-06
1.9385885e-06
1.9295506e-06
1.9207134e-06
1.912065e-06
1.9035946e-06
1.8952917e-06
1.8871465e-06
1.8791497e-06
1.8712929e-06
1.8635677e-06
1.8559666e-06
1.8484824e-06
1.8411078e-06
1.8338373e-06
1.8266644e-06
1.8195833e-06
1.8125885e-06
1.8056749e-06
1.7988376e-06
1.7920718e-06
1.785373e-06
1.7787371e-06
1.7721601e-06
1.7656379e-06
1.759167e-06
1.7527436e-06
1.7463643e-06
1.7400259e-06
1.7337251e-06
1.7274591e-06
1.7212248e-06
1.7150196e-06
1.7088407e-06
1.702686e-06
1.6965537e-06
1.6904417e-06
1.6843547e-06
1.6782787e-06
1.6724363e-06
1.6670386e-06
1.6620911e-06
1.6575379e-06
1.6533281e-06
1.6494185e-06
1.6457742e-06
1.6423667e-06
1.6391718e-06
1.6361684e-06
1.6333385e-06
1.6306664e-06
1.6281376e-06
1.6257393e-06
1.6234596e-06
1.6212879e-06
1.6192112e-06
1.6172224e-06
1.6152895e-06
1.6134484e-06
1.6115148e-06
1.6099349e-06
1.607451e-06
0.00014089182
0.00013775051
0.00013671917
0.00013624308
0.0001359567
0.00013576087
0.00013561852
0.00013551142
0.00013542896
0.00013536444
0.00013531338
0.00013527264
0.00013523999
0.00013521378
0.00013519278
0.00013517604
0.00013516277
0.00013515258
0.00013514438
0.00013514066
0.00013512862
0.00013517848
0.00013487728
0.00013640453
1.7631731e-05
2.6640903e-06
6.7427359e-06
1.9325315e-06
4.6369715e-06
4.0820544e-06
3.8847971e-06
3.6432761e-06
3.4670691e-06
3.318063e-06
3.194289e-06
3.0895496e-06
2.9995192e-06
2.9211545e-06
2.8522108e-06
2.7909902e-06
2.7361902e-06
2.6867896e-06
2.6419754e-06
2.6011033e-06
2.563675e-06
2.5291785e-06
2.4972589e-06
2.4676176e-06
2.439996e-06
2.4141732e-06
2.3899588e-06
2.3671887e-06
2.3457203e-06
2.3254293e-06
2.3062068e-06
2.2879567e-06
2.270594e-06
2.2540433e-06
2.2382372e-06
2.2231158e-06
2.2086445e-06
2.194767e-06
2.1814266e-06
2.1685834e-06
2.1562015e-06
2.1442437e-06
2.1326767e-06
2.1214774e-06
2.1106225e-06
2.1000897e-06
2.0898584e-06
2.0799097e-06
2.0702254e-06
2.0607892e-06
2.0515856e-06
2.0426004e-06
2.0338205e-06
2.025234e-06
2.0168295e-06
2.0085966e-06
2.0005251e-06
1.9926055e-06
1.9848287e-06
1.9771866e-06
1.9696712e-06
1.9622751e-06
1.9549914e-06
1.9478131e-06
1.9407348e-06
1.9337504e-06
1.9268541e-06
1.9200407e-06
1.9133054e-06
1.9066433e-06
1.9000499e-06
1.893521e-06
1.8870524e-06
1.8806404e-06
1.8742813e-06
1.8679714e-06
1.8617073e-06
1.8554858e-06
1.8493037e-06
1.8431579e-06
1.8370457e-06
1.8309644e-06
1.8249114e-06
1.8188841e-06
1.8128807e-06
1.8068994e-06
1.8009384e-06
1.7950026e-06
1.7890778e-06
1.7833886e-06
1.7781424e-06
1.7733404e-06
1.7689259e-06
1.7648477e-06
1.7610631e-06
1.7575376e-06
1.754243e-06
1.7511556e-06
1.7482548e-06
1.7455228e-06
1.7429443e-06
1.7405052e-06
1.738193e-06
1.7359961e-06
1.733904e-06
1.7319043e-06
1.7299902e-06
1.7281301e-06
1.72636e-06
1.724499e-06
1.7229816e-06
1.7205932e-06
0.00014064087
0.00013736359
0.00013628166
0.00013577985
0.00013547727
0.00013527009
0.00013511934
0.00013500578
0.00013491826
0.00013484969
0.00013479533
0.00013475188
0.00013471697
0.00013468888
0.00013466627
0.00013464817
0.00013463373
0.00013462253
0.00013461345
0.00013460909
0.00013459599
0.00013464796
0.00013433245
0.00013594229
1.7461244e-05
2.5702156e-06
6.5954424e-06
2.0134336e-06
4.59985e-06
4.0841918e-06
3.884336e-06
3.6555779e-06
3.4858486e-06
3.343485e-06
3.2251571e-06
3.1249813e-06
3.0388331e-06
2.9638173e-06
2.8977979e-06
2.8391574e-06
2.7866538e-06
2.7393131e-06
2.6963593e-06
2.6571791e-06
2.6213028e-06
2.5882287e-06
2.5576192e-06
2.5291903e-06
2.5026952e-06
2.4779224e-06
2.45469e-06
2.4328407e-06
2.4122383e-06
2.3927635e-06
2.3743122e-06
2.3567922e-06
2.3401223e-06
2.32423e-06
2.3090508e-06
2.2945274e-06
2.2806304e-06
2.2673085e-06
2.2545007e-06
2.2421684e-06
2.2302771e-06
2.2187872e-06
2.2076677e-06
2.1968991e-06
2.1864594e-06
2.1763273e-06
2.1664833e-06
2.1569091e-06
2.1475876e-06
2.1385028e-06
2.1296403e-06
2.1209863e-06
2.1125285e-06
2.1042561e-06
2.0961582e-06
2.0882246e-06
2.0804452e-06
2.0728111e-06
2.0653135e-06
2.0579444e-06
2.0506963e-06
2.0435621e-06
2.0365351e-06
2.0296086e-06
2.0227775e-06
2.0160358e-06
2.0093781e-06
2.0027996e-06
1.9962954e-06
1.989861e-06
1.9834921e-06
1.9771847e-06
1.9709348e-06
1.964739e-06
1.9585936e-06
1.9524952e-06
1.9464406e-06
1.9404267e-06
1.9344506e-06
1.9285094e-06
1.9226005e-06
1.9167215e-06
1.9108698e-06
1.9050433e-06
1.8992401e-06
1.8934587e-06
1.8876974e-06
1.8819615e-06
1.8762362e-06
1.8707468e-06
1.8656944e-06
1.8610762e-06
1.8568351e-06
1.8529205e-06
1.8492902e-06
1.8459106e-06
1.8427541e-06
1.8397977e-06
1.8370213e-06
1.8344078e-06
1.8319422e-06
1.829611e-06
1.827402e-06
1.8253041e-06
1.8233071e-06
1.821399e-06
1.8195733e-06
1.8177997e-06
1.8161133e-06
1.8143382e-06
1.8128942e-06
1.8106181e-06
0.00014033653
0.00013689329
0.00013574956
0.00013521629
0.00013489391
0.00013467284
0.00013451179
0.00013439034
0.00013429662
0.00013422309
0.00013416469
0.00013411793
0.00013408026
0.00013404984
0.00013402527
0.00013400549
0.00013398962
0.00013397719
0.00013396701
0.00013396188
0.00013394747
0.00013400202
0.00013366907
0.00013537998
1.7275973e-05
2.4633845e-06
6.3999866e-06
2.072635e-06
4.5208358e-06
4.0440145e-06
3.8449055e-06
3.6295295e-06
3.467516e-06
3.3325114e-06
3.220239e-06
3.125156e-06
3.0433556e-06
2.9721019e-06
2.9093769e-06
2.8536503e-06
2.8037462e-06
2.7587421e-06
2.7179025e-06
2.6806482e-06
2.6465398e-06
2.6150892e-06
2.5859775e-06
2.5589368e-06
2.5337332e-06
2.5101659e-06
2.4880622e-06
2.4672728e-06
2.4476682e-06
2.4291349e-06
2.4115743e-06
2.3948985e-06
2.3790303e-06
2.363901e-06
2.3494491e-06
2.3356203e-06
2.3223895e-06
2.3097143e-06
2.2975274e-06
2.2857914e-06
2.2744736e-06
2.2635288e-06
2.252932e-06
2.2426672e-06
2.2327138e-06
2.2230519e-06
2.2136628e-06
2.2045293e-06
2.195635e-06
2.1869649e-06
2.1785052e-06
2.1702429e-06
2.1621672e-06
2.1542689e-06
2.1465366e-06
2.1389603e-06
2.1315303e-06
2.124238e-06
2.1170749e-06
2.1100335e-06
2.1031066e-06
2.0962874e-06
2.0895696e-06
2.0829468e-06
2.0764142e-06
2.0699661e-06
2.0635973e-06
2.0573033e-06
2.0510796e-06
2.0449219e-06
2.038826e-06
2.0327883e-06
2.0268049e-06
2.0208727e-06
2.0149883e-06
2.0091483e-06
2.0033499e-06
1.9975901e-06
1.9918662e-06
1.9861754e-06
1.9805157e-06
1.9748848e-06
1.9692803e-06
1.9637e-06
1.9581424e-06
1.952606e-06
1.9470895e-06
1.9415982e-06
1.9361173e-06
1.9308701e-06
1.9260503e-06
1.9216505e-06
1.9176142e-06
1.9138918e-06
1.910442e-06
1.9072325e-06
1.9042363e-06
1.9014317e-06
1.898799e-06
1.896322e-06
1.8939863e-06
1.8917789e-06
1.889688e-06
1.8877031e-06
1.8858145e-06
1.8840107e-06
1.8822856e-06
1.88061e-06
1.8790181e-06
1.8773406e-06
1.8759791e-06
1.8738298e-06
0.00013997299
0.00013632997
0.00013511181
0.00013454062
0.00013419433
0.0001339565
0.00013378303
0.00013365205
0.00013355085
0.00013347132
0.00013340806
0.00013335728
0.00013331628
0.00013328306
0.00013325611
0.00013323431
0.00013321669
0.00013320277
0.00013319127
0.00013318519
0.00013316922
0.00013322685
0.00013287296
0.00013470589
1.7076829e-05
2.3432812e-06
6.1541546e-06
2.1057261e-06
4.3974837e-06
3.9592222e-06
3.7639584e-06
3.5626111e-06
3.4094539e-06
3.2824912e-06
3.1768561e-06
3.0873699e-06
3.0103596e-06
2.9432603e-06
2.8841801e-06
2.8316829e-06
2.7846643e-06
2.7422574e-06
2.7037711e-06
2.6686624e-06
2.636524e-06
2.6068849e-06
2.5794467e-06
2.5539585e-06
2.5302004e-06
2.5079836e-06
2.4871453e-06
2.467545e-06
2.4490606e-06
2.4315854e-06
2.4150263e-06
2.3993005e-06
2.3843353e-06
2.3700658e-06
2.3564342e-06
2.3433891e-06
2.3309092e-06
2.3189474e-06
2.3074447e-06
2.2963666e-06
2.2856822e-06
2.275354e-06
2.2653539e-06
2.2556657e-06
2.2462701e-06
2.2371483e-06
2.2282828e-06
2.2196573e-06
2.2112565e-06
2.2030663e-06
2.1950735e-06
2.187266e-06
2.1796329e-06
2.1721652e-06
2.1648538e-06
2.157689e-06
2.1506616e-06
2.1437633e-06
2.1369862e-06
2.1303232e-06
2.1237675e-06
2.1173126e-06
2.1109527e-06
2.1046816e-06
2.0984949e-06
2.0923873e-06
2.086354e-06
2.0803906e-06
2.0744929e-06
2.068657e-06
2.062879e-06
2.0571554e-06
2.0514827e-06
2.0458579e-06
2.0402779e-06
2.0347396e-06
2.0292403e-06
2.0237773e-06
2.0183481e-06
2.0129501e-06
2.007582e-06
2.0022414e-06
1.996926e-06
1.9916338e-06
1.9863634e-06
1.9811136e-06
1.9758831e-06
1.9706772e-06
1.9654813e-06
1.960515e-06
1.9559627e-06
1.9518126e-06
1.9480091e-06
1.944504e-06
1.9412579e-06
1.9382395e-06
1.9354234e-06
1.9327885e-06
1.9303165e-06
1.9279916e-06
1.9258003e-06
1.9237303e-06
1.9217705e-06
1.9199106e-06
1.9181418e-06
1.916453e-06
1.9148386e-06
1.9132709e-06
1.9117828e-06
1.9102127e-06
1.9089416e-06
1.9069308e-06
0.0001395439
0.00013566298
0.0001343561
0.00013373967
0.00013336486
0.00013310702
0.00013291872
0.00013277636
0.00013266621
0.00013257952
0.00013251044
0.00013245487
0.00013240987
0.0001323733
0.00013234352
0.00013231929
0.00013229958
0.00013228388
0.0001322708
0.00013226359
0.00013224573
0.00013230701
0.00013192827
0.00013390699
1.6865903e-05
2.2100328e-06
5.856956e-06
2.1087027e-06
4.2283084e-06
3.8283913e-06
3.639817e-06
3.4531387e-06
3.3098641e-06
3.1915776e-06
3.0931205e-06
3.0096982e-06
2.9378876e-06
2.8753052e-06
2.8201936e-06
2.7712167e-06
2.7273469e-06
2.6877769e-06
2.6518631e-06
2.6191016e-06
2.589118e-06
2.5614625e-06
2.5358581e-06
2.5120722e-06
2.4899002e-06
2.4691657e-06
2.4497174e-06
2.4314237e-06
2.4141711e-06
2.3978597e-06
2.3824027e-06
2.3677229e-06
2.3537523e-06
2.3404305e-06
2.3277034e-06
2.3155231e-06
2.3038706e-06
2.2926969e-06
2.2819511e-06
2.2716013e-06
2.2616183e-06
2.2519704e-06
2.2426296e-06
2.2335792e-06
2.2248009e-06
2.2162774e-06
2.2079922e-06
2.1999303e-06
2.1920772e-06
2.1844198e-06
2.176946e-06
2.1696442e-06
2.1625042e-06
2.1555186e-06
2.1486788e-06
2.1419751e-06
2.1353989e-06
2.1289423e-06
2.1225981e-06
2.1163596e-06
2.1102203e-06
2.1041745e-06
2.0982166e-06
2.0923408e-06
2.0865432e-06
2.0808187e-06
2.075163e-06
2.0695719e-06
2.0640417e-06
2.0585685e-06
2.0531489e-06
2.0477797e-06
2.0424576e-06
2.0371799e-06
2.0319436e-06
2.0267461e-06
2.0215848e-06
2.0164572e-06
2.011361e-06
2.0062939e-06
2.0012543e-06
1.9962403e-06
1.9912499e-06
1.9862814e-06
1.9813336e-06
1.9764054e-06
1.9714954e-06
1.9666089e-06
1.9617319e-06
1.9570765e-06
1.9528164e-06
1.9489378e-06
1.9453866e-06
1.9421169e-06
1.9390906e-06
1.9362785e-06
1.9336561e-06
1.9312039e-06
1.9289042e-06
1.9267425e-06
1.924706e-06
1.9227829e-06
1.920963e-06
1.9192367e-06
1.9175955e-06
1.9160293e-06
1.9145327e-06
1.9130796e-06
1.9117015e-06
1.910246e-06
1.9090699e-06
1.9072079e-06
0.00013904242
0.00013488065
0.00013346896
0.00013279902
0.00013239045
0.00013210893
0.00013190307
0.00013174723
0.00013162649
0.00013153132
0.00013145534
0.00013139409
0.00013134437
0.00013130382
0.00013127067
0.00013124356
0.00013122138
0.00013120356
0.0001311886
0.00013118004
0.00013115994
0.00013122551
0.00013081753
0.00013296897
1.664667e-05
2.0643061e-06
5.5090179e-06
2.0783554e-06
4.0131482e-06
3.6513389e-06
3.4720226e-06
3.3006086e-06
3.16811e-06
3.0590656e-06
2.9682692e-06
2.8913275e-06
2.8250816e-06
2.767339e-06
2.7164836e-06
2.6712856e-06
2.6307982e-06
2.5942778e-06
2.5611309e-06
2.5308946e-06
2.5032289e-06
2.4777087e-06
2.4540795e-06
2.432128e-06
2.4116656e-06
2.3925297e-06
2.3745806e-06
2.3576969e-06
2.3417737e-06
2.326719e-06
2.3124524e-06
2.2989028e-06
2.2860073e-06
2.2737101e-06
2.2619612e-06
2.2507165e-06
2.2399584e-06
2.2296388e-06
2.2197138e-06
2.2101537e-06
2.2009318e-06
2.1920206e-06
2.1833939e-06
2.1750346e-06
2.1669258e-06
2.1590514e-06
2.1513961e-06
2.1439462e-06
2.1366882e-06
2.1296102e-06
2.1227007e-06
2.1159494e-06
2.1093464e-06
2.1028837e-06
2.0965537e-06
2.0903483e-06
2.0842598e-06
2.0782811e-06
2.0724054e-06
2.0666267e-06
2.060939e-06
2.055337e-06
2.0498157e-06
2.0443696e-06
2.0389951e-06
2.0336877e-06
2.0284433e-06
2.0232582e-06
2.0181289e-06
2.0130518e-06
2.008024e-06
2.0030423e-06
1.9981039e-06
1.9932062e-06
1.9883466e-06
1.9835226e-06
1.978732e-06
1.9739724e-06
1.9692419e-06
1.9645383e-06
1.9598601e-06
1.9552055e-06
1.9505728e-06
1.9459606e-06
1.9413679e-06
1.9367939e-06
1.9322376e-06
1.9277041e-06
1.9231801e-06
1.9188658e-06
1.9149236e-06
1.911339e-06
1.9080604e-06
1.9050442e-06
1.9022547e-06
1.8996641e-06
1.8972497e-06
1.8949932e-06
1.8928781e-06
1.8908908e-06
1.8890195e-06
1.8872533e-06
1.8855825e-06
1.8839983e-06
1.8824929e-06
1.8810568e-06
1.8796851e-06
1.8783538e-06
1.877092e-06
1.8757585e-06
1.8746822e-06
1.8729795e-06
0.00013846132
0.00013397039
0.00013243577
0.00013170302
0.0001312548
0.00013094545
0.00013071894
0.00013054727
0.00013041408
0.00013030894
0.00013022485
0.00013015692
0.00013010163
0.0001300564
0.00013001928
0.00012998878
0.00012996368
0.00012994337
0.00012992618
0.00012991603
0.0001298933
0.00012996386
0.00012952177
0.00013187631
1.6424195e-05
1.9073927e-06
5.1129631e-06
2.0126889e-06
3.7535217e-06
3.4294793e-06
3.26168e-06
3.1060373e-06
2.9850533e-06
2.8857264e-06
2.8029969e-06
2.7328861e-06
2.6725117e-06
2.6198802e-06
2.573523e-06
2.5323209e-06
2.4954123e-06
2.4621196e-06
2.4319025e-06
2.4043406e-06
2.3791288e-06
2.3558704e-06
2.3343343e-06
2.3143273e-06
2.2956775e-06
2.2782369e-06
2.261878e-06
2.2464903e-06
2.2319779e-06
2.2182569e-06
2.2052542e-06
2.1929046e-06
2.1811509e-06
2.1699422e-06
2.1592329e-06
2.1489826e-06
2.1391748e-06
2.1297642e-06
2.120713e-06
2.111994e-06
2.1035828e-06
2.0954554e-06
2.0875882e-06
2.0799644e-06
2.0725684e-06
2.0653853e-06
2.0584013e-06
2.0516037e-06
2.0449803e-06
2.0385202e-06
2.0322131e-06
2.0260493e-06
2.0200201e-06
2.0141173e-06
2.0083341e-06
2.0026633e-06
1.997098e-06
1.9916321e-06
1.9862593e-06
1.9809742e-06
1.9757715e-06
1.9706462e-06
1.9655939e-06
1.9606095e-06
1.95569e-06
1.9508311e-06
1.9460291e-06
1.9412808e-06
1.9365828e-06
1.9319321e-06
1.927326e-06
1.9227616e-06
1.9182363e-06
1.9137479e-06
1.9092941e-06
1.9048725e-06
1.9004812e-06
1.8961182e-06
1.8917817e-06
1.8874697e-06
1.8831807e-06
1.8789134e-06
1.8746662e-06
1.8704379e-06
1.8662277e-06
1.8620349e-06
1.8578589e-06
1.8537047e-06
1.8495596e-06
1.8456107e-06
1.8420076e-06
1.8387351e-06
1.8357451e-06
1.8329966e-06
1.8304563e-06
1.8280986e-06
1.8259024e-06
1.8238508e-06
1.8219288e-06
1.8201238e-06
1.8184248e-06
1.816822e-06
1.8153065e-06
1.81387e-06
1.8125056e-06
1.8112046e-06
1.8099624e-06
1.8087571e-06
1.8076156e-06
1.8064085e-06
1.8054352e-06
1.8038965e-06
0.00013779308
0.0001329188
0.00013124093
0.0001304349
0.0001299404
0.00012959856
0.00012934796
0.00012915779
0.00012901005
0.00012889326
0.00012879969
0.00012872395
0.00012866216
0.00012861146
0.0001285697
0.00012853523
0.00012850672
0.00012848348
0.00012846369
0.00012845166
0.00012842586
0.00012850218
0.00012802056
0.00013061239
1.6205288e-05
1.7412709e-06
4.673732e-06
1.9113329e-06
3.4529394e-06
3.1661354e-06
3.0117615e-06
2.872263e-06
2.7633538e-06
2.6741047e-06
2.5997513e-06
2.5367379e-06
2.4824691e-06
2.4351562e-06
2.393482e-06
2.3564419e-06
2.3232618e-06
2.2933332e-06
2.2661701e-06
2.2413965e-06
2.2187418e-06
2.1978414e-06
2.178488e-06
2.1605091e-06
2.1437502e-06
2.1280783e-06
2.1133788e-06
2.0995521e-06
2.0865123e-06
2.0741836e-06
2.0625002e-06
2.0514037e-06
2.0408425e-06
2.0307707e-06
2.0211473e-06
2.0119361e-06
2.0031213e-06
1.9946616e-06
1.9865246e-06
1.9786858e-06
1.9711232e-06
1.9638157e-06
1.9567427e-06
1.9498882e-06
1.9432379e-06
1.9367783e-06
1.930497e-06
1.9243825e-06
1.918424e-06
1.9126114e-06
1.9069356e-06
1.9013879e-06
1.8959605e-06
1.8906458e-06
1.8854373e-06
1.8803289e-06
1.8753144e-06
1.8703883e-06
1.8655451e-06
1.86078e-06
1.8560882e-06
1.8514653e-06
1.8469074e-06
1.84241e-06
1.8379703e-06
1.8335845e-06
1.8292493e-06
1.8249619e-06
1.8207193e-06
1.8165187e-06
1.8123578e-06
1.8082341e-06
1.8041452e-06
1.8000891e-06
1.7960639e-06
1.7920675e-06
1.788098e-06
1.7841539e-06
1.7802335e-06
1.7763351e-06
1.7724575e-06
1.7685993e-06
1.7647592e-06
1.7609363e-06
1.7571299e-06
1.7533396e-06
1.7495647e-06
1.7458102e-06
1.7420643e-06
1.7384994e-06
1.735251e-06
1.732304e-06
1.7296138e-06
1.7271428e-06
1.7248604e-06
1.7227433e-06
1.7207722e-06
1.7189318e-06
1.7172083e-06
1.7155906e-06
1.7140685e-06
1.7126332e-06
1.7112766e-06
1.7099913e-06
1.708771e-06
1.7076078e-06
1.7064978e-06
1.7054209e-06
1.7044018e-06
1.7033235e-06
1.702455e-06
1.7010828e-06
0.00013703006
0.00013171181
0.00012986795
0.00012897692
0.00012842872
0.00012804919
0.00012777061
0.00012755897
0.00012739435
0.00012726403
0.00012715945
0.00012707464
0.00012700529
0.00012694823
0.00012690106
0.00012686199
0.00012682949
0.00012680284
0.00012678001
0.0001267658
0.00012673642
0.00012681935
0.00012629226
0.0001291596
1.5998608e-05
1.5686288e-06
4.1987995e-06
1.7758921e-06
3.1171291e-06
2.8667658e-06
2.7273298e-06
2.6041675e-06
2.5076899e-06
2.4287382e-06
2.3629517e-06
2.3072012e-06
2.2591842e-06
2.2173199e-06
2.180445e-06
2.1476716e-06
2.1183148e-06
2.0918362e-06
2.0678059e-06
2.0458921e-06
2.0258591e-06
2.0073769e-06
1.9902627e-06
1.9743644e-06
1.9595456e-06
1.9456885e-06
1.9326917e-06
1.9204671e-06
1.9089385e-06
1.8980388e-06
1.8877099e-06
1.8778997e-06
1.8685628e-06
1.8596584e-06
1.8511503e-06
1.8430063e-06
1.8352115e-06
1.8277294e-06
1.8205325e-06
1.8135989e-06
1.806909e-06
1.8004446e-06
1.7941879e-06
1.7881242e-06
1.7822407e-06
1.7765252e-06
1.7709667e-06
1.7655552e-06
1.7602809e-06
1.755135e-06
1.7501093e-06
1.7451963e-06
1.7403889e-06
1.7356804e-06
1.7310651e-06
1.7265373e-06
1.7220916e-06
1.7177232e-06
1.7134274e-06
1.7091999e-06
1.7050365e-06
1.7009334e-06
1.6968871e-06
1.6928936e-06
1.6889505e-06
1.6850546e-06
1.6812029e-06
1.6773929e-06
1.673622e-06
1.6698879e-06
1.6661884e-06
1.6625213e-06
1.6588847e-06
1.6552769e-06
1.6516959e-06
1.6481402e-06
1.6446082e-06
1.6410983e-06
1.6376093e-06
1.6341396e-06
1.6306883e-06
1.6272541e-06
1.623836e-06
1.6204331e-06
1.6170451e-06
1.6136715e-06
1.6103119e-06
1.606971e-06
1.6036381e-06
1.6004691e-06
1.5975851e-06
1.5949714e-06
1.5925875e-06
1.5903994e-06
1.5883794e-06
1.5865067e-06
1.5847639e-06
1.5831374e-06
1.581615e-06
1.5801865e-06
1.5788431e-06
1.5775768e-06
1.5763803e-06
1.5752473e-06
1.5741719e-06
1.5731473e-06
1.5721698e-06
1.571222e-06
1.5703255e-06
1.5693765e-06
1.5686128e-06
1.567407e-06
0.00013616465
0.00013033487
0.00012829967
0.0001273106
0.00012670044
0.00012627738
0.00012596651
0.00012573009
0.00012554597
0.00012540003
0.00012528274
0.00012518744
0.00012510936
0.00012504495
0.00012499153
0.00012494712
0.00012491002
0.00012487942
0.00012485308
0.00012483632
0.00012480281
0.00012489327
0.00012431418
0.0001274995
1.5814691e-05
1.3928348e-06
3.6982307e-06
1.6101762e-06
2.7541204e-06
2.5390565e-06
2.4156287e-06
2.3087689e-06
2.2248517e-06
2.1562517e-06
2.0990843e-06
2.0506434e-06
2.0089215e-06
1.9725458e-06
1.940507e-06
1.9120336e-06
1.8865307e-06
1.86353e-06
1.842658e-06
1.8236274e-06
1.8062361e-06
1.7901912e-06
1.7753341e-06
1.7615334e-06
1.7486705e-06
1.7366431e-06
1.7253631e-06
1.7147539e-06
1.704749e-06
1.6952903e-06