/*--------------------------------*- C++ -*----------------------------------*\
| =========                 |                                                 |
| \\      /  F ield         | OpenFOAM: The Open Source CFD Toolbox           |
|  \\    /   O peration     | Version:  2206                                  |
|   \\  /    A nd           | Website:  www.openfoam.com                      |
|    \\/     M anipulation  |                                                 |
\*---------------------------------------------------------------------------*/
FoamFile
{
    version     2.0;
    format      ascii;
    arch        "LSB;label=32;scalar=64";
    class       volScalarField;
    location    "600";
    object      nut;
}
// * * * * * * * * * * * * * * * * * * * * * * * * * * * * * * * * * * * * * //

dimensions      [0 2 -1 0 0 0 0];

internalField   nonuniform List<scalar> 
13056
(
6.6866859e-09
6.4435944e-09
6.3701208e-09
6.3368288e-09
6.3168086e-09
6.3031498e-09
6.2932528e-09
6.2858231e-09
6.2801097e-09
6.2756372e-09
6.2720871e-09
6.2692364e-09
6.266922e-09
6.2650188e-09
6.2634237e-09
6.2620462e-09
6.2607789e-09
6.2595304e-09
6.2579767e-09
6.2562222e-09
6.2514022e-09
6.2492586e-09
6.2101419e-09
4.6905987e-09
3.2207222e-11
1.3003989e-11
1.954269e-11
8.2760199e-12
1.5253478e-11
1.3631519e-11
1.3464614e-11
1.2796964e-11
1.2386565e-11
1.199022e-11
1.1649949e-11
1.1355859e-11
1.1098355e-11
1.0870445e-11
1.066685e-11
1.048351e-11
1.0317265e-11
1.0165599e-11
1.0026475e-11
9.8982348e-12
9.7795165e-12
9.6691577e-12
9.5661971e-12
9.469819e-12
9.3793253e-12
9.2941149e-12
9.2136662e-12
9.1375256e-12
9.0652957e-12
8.9966274e-12
8.9312127e-12
8.8687781e-12
8.8090786e-12
8.7518966e-12
8.697036e-12
8.6443205e-12
8.5935943e-12
8.544711e-12
8.4975392e-12
8.4519592e-12
8.4078618e-12
8.3651473e-12
8.3237235e-12
8.2835065e-12
8.2444187e-12
8.2063888e-12
8.1693518e-12
8.1332463e-12
8.0980147e-12
8.0636042e-12
8.0299654e-12
7.9970523e-12
7.9648216e-12
7.9332327e-12
7.902248e-12
7.8718327e-12
7.8419533e-12
7.8125777e-12
7.7836761e-12
7.7552204e-12
7.727184e-12
7.6995414e-12
7.6722686e-12
7.6453424e-12
7.6187423e-12
7.5924474e-12
7.5664372e-12
7.5406929e-12
7.5151962e-12
7.4899299e-12
7.4648767e-12
7.4400205e-12
7.415346e-12
7.3908384e-12
7.3664828e-12
7.3422647e-12
7.3181703e-12
7.2941863e-12
7.2702992e-12
7.2464961e-12
7.2227649e-12
7.1990932e-12
7.1754688e-12
7.15188e-12
7.1283157e-12
7.1047661e-12
7.0812215e-12
7.0576891e-12
7.0341323e-12
7.0112602e-12
6.9898701e-12
6.9700695e-12
6.9516962e-12
6.9345903e-12
6.9186086e-12
6.9036315e-12
6.8895579e-12
6.8763011e-12
6.8637852e-12
6.8519435e-12
6.8407173e-12
6.8300533e-12
6.8199031e-12
6.8102207e-12
6.8009645e-12
6.7920839e-12
6.7835495e-12
6.7752353e-12
6.7672693e-12
6.7589406e-12
6.7520481e-12
6.74127e-12
6.6864356e-09
6.442599e-09
6.3688687e-09
6.335448e-09
6.3153468e-09
6.3016316e-09
6.291693e-09
6.2842318e-09
6.2784939e-09
6.2740023e-09
6.2704374e-09
6.2675753e-09
6.2652526e-09
6.2633441e-09
6.2617469e-09
6.2603712e-09
6.2591113e-09
6.2578775e-09
6.2563542e-09
6.2546475e-09
6.2499571e-09
6.2479806e-09
6.2097972e-09
4.6900343e-09
3.1401429e-11
1.1450155e-11
1.7917089e-11
4.2167311e-12
1.3223129e-11
1.139621e-11
1.1146529e-11
1.0362919e-11
9.8586003e-12
9.3748427e-12
8.958751e-12
8.597279e-12
8.2795333e-12
7.9974883e-12
7.7450047e-12
7.517315e-12
7.3106725e-12
7.1220683e-12
6.949051e-12
6.7896163e-12
6.642127e-12
6.5051081e-12
6.3773868e-12
6.2579606e-12
6.145964e-12
6.040648e-12
5.9413613e-12
5.8475354e-12
5.7586716e-12
5.6743306e-12
5.5941242e-12
5.5177072e-12
5.4447699e-12
5.375037e-12
5.3082604e-12
5.2442166e-12
5.1827238e-12
5.1235845e-12
5.0666271e-12
5.0116997e-12
4.9586637e-12
4.9073921e-12
4.857766e-12
4.8096788e-12
4.7630333e-12
4.7177399e-12
4.6737165e-12
4.6308858e-12
4.5891754e-12
4.5485186e-12
4.5088534e-12
4.4701219e-12
4.4322698e-12
4.3952462e-12
4.359004e-12
4.3234998e-12
4.2886917e-12
4.2545399e-12
4.2210075e-12
4.1880598e-12
4.1556637e-12
4.1237879e-12
4.0924028e-12
4.0614803e-12
4.030995e-12
4.0009214e-12
3.971235e-12
3.9419127e-12
3.9129329e-12
3.8842746e-12
3.8559176e-12
3.8278425e-12
3.8000315e-12
3.7724672e-12
3.7451323e-12
3.7180101e-12
3.6910847e-12
3.664341e-12
3.6377639e-12
3.611339e-12
3.5850529e-12
3.5588921e-12
3.5328433e-12
3.5068938e-12
3.481032e-12
3.4552473e-12
3.4295301e-12
3.4038887e-12
3.3782848e-12
3.3534679e-12
3.3303005e-12
3.3089024e-12
3.2890915e-12
3.2706878e-12
3.2535297e-12
3.2374823e-12
3.222432e-12
3.2082809e-12
3.1949441e-12
3.1823469e-12
3.1704234e-12
3.1591144e-12
3.1483663e-12
3.1381283e-12
3.1283545e-12
3.11899e-12
3.1100026e-12
3.1012582e-12
3.092893e-12
3.0841555e-12
3.07694e-12
3.065655e-12
6.6856065e-09
6.439496e-09
6.3649845e-09
6.331172e-09
6.3108243e-09
6.2969368e-09
6.286871e-09
6.2793128e-09
6.2734992e-09
6.2689477e-09
6.2653347e-09
6.2624342e-09
6.2600808e-09
6.2581486e-09
6.2565341e-09
6.2551477e-09
6.2538854e-09
6.2526594e-09
6.2511635e-09
6.2495069e-09
6.2449595e-09
6.2431937e-09
6.2060479e-09
4.6882767e-09
3.0612172e-11
1.0158512e-11
1.6545685e-11
3.2062789e-12
1.1824436e-11
1.0069373e-11
9.7593821e-12
9.0037341e-12
8.5024612e-12
8.0352569e-12
7.6377282e-12
7.2951715e-12
6.9963385e-12
6.7329837e-12
6.4988281e-12
6.2890152e-12
6.0997433e-12
5.9279745e-12
5.7712464e-12
5.6275603e-12
5.4953047e-12
5.3729831e-12
5.2594469e-12
5.1537177e-12
5.0549514e-12
4.9624203e-12
4.8754946e-12
4.7936266e-12
4.716338e-12
4.6432088e-12
4.5738698e-12
4.5079932e-12
4.445287e-12
4.3854916e-12
4.3283745e-12
4.2737269e-12
4.2213892e-12
4.171171e-12
4.1229098e-12
4.0764652e-12
4.03171e-12
3.9885269e-12
3.9468054e-12
3.906449e-12
3.8673699e-12
3.8294874e-12
3.7927272e-12
3.7570198e-12
3.7223002e-12
3.6885088e-12
3.6555899e-12
3.6234919e-12
3.5921665e-12
3.5615685e-12
3.5316563e-12
3.5023916e-12
3.4737373e-12
3.4456586e-12
3.4181231e-12
3.3911004e-12
3.3645617e-12
3.3384798e-12
3.312829e-12
3.2875847e-12
3.2627252e-12
3.2382285e-12
3.2140734e-12
3.1902404e-12
3.1667109e-12
3.1434669e-12
3.1204915e-12
3.0977683e-12
3.0752821e-12
3.0530184e-12
3.0309626e-12
3.009101e-12
2.9874203e-12
2.965908e-12
2.9445518e-12
2.9233396e-12
2.9022608e-12
2.8813044e-12
2.8604594e-12
2.839716e-12
2.8190646e-12
2.7984974e-12
2.7780064e-12
2.7575996e-12
2.7372441e-12
2.7175529e-12
2.6992135e-12
2.6823094e-12
2.6666874e-12
2.6521976e-12
2.6387072e-12
2.626106e-12
2.6143015e-12
2.6032143e-12
2.5927757e-12
2.5829256e-12
2.5736108e-12
2.5647839e-12
2.5564018e-12
2.5484239e-12
2.5408139e-12
2.533528e-12
2.5265412e-12
2.5197471e-12
2.5132554e-12
2.5064714e-12
2.5008821e-12
2.4921328e-12
6.6841788e-09
6.4341881e-09
6.3583443e-09
6.3238635e-09
6.3030951e-09
6.2889134e-09
6.2786305e-09
6.2709064e-09
6.2649631e-09
6.2603084e-09
6.2566124e-09
6.2536444e-09
6.2512363e-09
6.2492601e-09
6.247611e-09
6.2461993e-09
6.2449216e-09
6.2436922e-09
6.2422131e-09
6.2405984e-09
6.2361803e-09
6.2346378e-09
6.1984404e-09
4.6850581e-09
2.9848329e-11
9.060908e-12
1.5346572e-11
2.7818255e-12
1.0772039e-11
9.1598283e-12
8.8114363e-12
8.1142508e-12
7.6385164e-12
7.2063576e-12
6.8412834e-12
6.5283819e-12
6.2567211e-12
6.0183462e-12
5.8072343e-12
5.6187477e-12
5.449271e-12
5.2959286e-12
5.1563997e-12
5.0288128e-12
4.911678e-12
4.8035654e-12
4.7034143e-12
4.6103238e-12
4.5235156e-12
4.4423205e-12
4.3661605e-12
4.2945344e-12
4.2270055e-12
4.1631913e-12
4.1027561e-12
4.0454025e-12
3.9908665e-12
3.9389134e-12
3.8893336e-12
3.8419393e-12
3.7965975e-12
3.7531309e-12
3.7113892e-12
3.6712468e-12
3.6325901e-12
3.5953134e-12
3.5593162e-12
3.5245141e-12
3.49083e-12
3.4581926e-12
3.4265364e-12
3.3958002e-12
3.3659265e-12
3.3368627e-12
3.30856e-12
3.2809728e-12
3.2540586e-12
3.227778e-12
3.2020943e-12
3.1769741e-12
3.1523849e-12
3.1282963e-12
3.10468e-12
3.0815094e-12
3.0587594e-12
3.0364062e-12
3.0144275e-12
2.9928018e-12
2.9715103e-12
2.9505339e-12
2.9298541e-12
2.9094541e-12
2.8893177e-12
2.8694296e-12
2.849775e-12
2.8303397e-12
2.8111108e-12
2.7920757e-12
2.773222e-12
2.7545378e-12
2.7360119e-12
2.7176335e-12
2.6993921e-12
2.6812775e-12
2.6632807e-12
2.6453923e-12
2.6276032e-12
2.6099049e-12
2.5922898e-12
2.574751e-12
2.5572823e-12
2.5398914e-12
2.5225483e-12
2.5057919e-12
2.490212e-12
2.4758713e-12
2.4626333e-12
2.4503664e-12
2.4389547e-12
2.4283028e-12
2.4183308e-12
2.4089706e-12
2.4001629e-12
2.391856e-12
2.3840048e-12
2.3765684e-12
2.3695101e-12
2.3627952e-12
2.3563929e-12
2.350266e-12
2.3443933e-12
2.3386842e-12
2.3332342e-12
2.3275338e-12
2.3228471e-12
2.3155021e-12
6.6821227e-09
6.4265238e-09
6.348755e-09
6.3133084e-09
6.2919319e-09
6.277325e-09
6.2667279e-09
6.2587638e-09
6.2526327e-09
6.2478282e-09
6.2440114e-09
6.240945e-09
6.2384562e-09
6.2364141e-09
6.234712e-09
6.2332589e-09
6.231952e-09
6.2307072e-09
6.229234e-09
6.2276528e-09
6.2233502e-09
6.2220457e-09
6.1867079e-09
4.6802659e-09
2.9117012e-11
8.1094887e-12
1.4264134e-11
2.5664365e-12
9.9215834e-12
8.4654508e-12
8.0954964e-12
7.461037e-12
7.0167747e-12
6.6217353e-12
6.2894864e-12
6.0056615e-12
5.7599388e-12
5.544858e-12
5.3547958e-12
5.1854361e-12
5.0334244e-12
4.8961003e-12
4.7713239e-12
4.6573784e-12
4.5529135e-12
4.4565849e-12
4.3674295e-12
4.2846304e-12
4.2074798e-12
4.1353699e-12
4.0677765e-12
4.0042455e-12
3.9443819e-12
3.88784e-12
3.8343169e-12
3.7835444e-12
3.7352851e-12
3.6893276e-12
3.6454837e-12
3.6035848e-12
3.5635225e-12
3.5251331e-12
3.4882749e-12
3.4528355e-12
3.4187134e-12
3.3858123e-12
3.3540397e-12
3.323323e-12
3.2935943e-12
3.2647907e-12
3.236854e-12
3.2097299e-12
3.1833674e-12
3.1577197e-12
3.1327436e-12
3.1083986e-12
3.084647e-12
3.061454e-12
3.0387873e-12
3.0166172e-12
2.9949151e-12
2.9736542e-12
2.9528091e-12
2.9323564e-12
2.912274e-12
2.8925407e-12
2.8731368e-12
2.8540433e-12
2.8352436e-12
2.8167208e-12
2.7984586e-12
2.7804422e-12
2.7626574e-12
2.7450906e-12
2.7277288e-12
2.7105596e-12
2.6935716e-12
2.6767539e-12
2.6600955e-12
2.6435859e-12
2.6272155e-12
2.6109747e-12
2.5948545e-12
2.5788459e-12
2.562941e-12
2.5471319e-12
2.5314105e-12
2.5157696e-12
2.5002026e-12
2.4847039e-12
2.469268e-12
2.4539029e-12
2.4385801e-12
2.4237916e-12
2.4100622e-12
2.39744e-12
2.3857996e-12
2.3750214e-12
2.3650012e-12
2.3556534e-12
2.3469067e-12
2.3387006e-12
2.3309822e-12
2.3237059e-12
2.3168315e-12
2.3103228e-12
2.3041474e-12
2.2982746e-12
2.2926772e-12
2.2873225e-12
2.282192e-12
2.2772055e-12
2.272449e-12
2.2674693e-12
2.2633834e-12
2.2569721e-12
6.6793997e-09
6.4162992e-09
6.3359564e-09
6.2992181e-09
6.277028e-09
6.2618519e-09
6.2508345e-09
6.242549e-09
6.2361662e-09
6.2311611e-09
6.2271819e-09
6.2239829e-09
6.2213851e-09
6.2192532e-09
6.2174777e-09
6.2159659e-09
6.2146147e-09
6.2133413e-09
6.2118621e-09
6.2103053e-09
6.2061039e-09
6.2050539e-09
6.1704828e-09
4.6737462e-09
2.8425335e-11
7.2699996e-12
1.3259205e-11
2.4445508e-12
9.1916375e-12
7.8870388e-12
7.5082846e-12
6.9340772e-12
6.5226936e-12
6.1632305e-12
5.8617118e-12
5.6046662e-12
5.3824969e-12
5.1883086e-12
5.0169216e-12
4.8643677e-12
4.7275692e-12
4.6040906e-12
4.4919759e-12
4.389664e-12
4.2959414e-12
4.2095511e-12
4.1296236e-12
4.055422e-12
3.9863055e-12
3.9217241e-12
3.8612034e-12
3.8043331e-12
3.7507563e-12
3.7001611e-12
3.6522741e-12
3.6068535e-12
3.5636856e-12
3.5225799e-12
3.4833669e-12
3.4458952e-12
3.4100787e-12
3.3757675e-12
3.3428245e-12
3.3111487e-12
3.2806491e-12
3.2512357e-12
3.2228232e-12
3.1953503e-12
3.1687576e-12
3.1429889e-12
3.1179924e-12
3.0937197e-12
3.0701251e-12
3.0471671e-12
3.0248067e-12
3.0030079e-12
2.9817372e-12
2.9609636e-12
2.9406586e-12
2.9207959e-12
2.9013496e-12
2.8822958e-12
2.8636119e-12
2.845277e-12
2.827271e-12
2.8095752e-12
2.792172e-12
2.7750442e-12
2.7581773e-12
2.7415559e-12
2.7251658e-12
2.7089935e-12
2.6930265e-12
2.6772527e-12
2.6616605e-12
2.646239e-12
2.6309779e-12
2.6158676e-12
2.6008983e-12
2.5860609e-12
2.5713466e-12
2.5567471e-12
2.5422544e-12
2.5278606e-12
2.5135587e-12
2.4993419e-12
2.4852029e-12
2.4711356e-12
2.4571344e-12
2.4431943e-12
2.4293106e-12
2.4154914e-12
2.4017095e-12
2.3884224e-12
2.3761052e-12
2.3647943e-12
2.3543727e-12
2.34473e-12
2.3357706e-12
2.327417e-12
2.3196041e-12
2.3122772e-12
2.3053888e-12
2.2988973e-12
2.2927667e-12
2.2869644e-12
2.281461e-12
2.2762292e-12
2.2712445e-12
2.2664774e-12
2.2619116e-12
2.2574747e-12
2.2532458e-12
2.2488141e-12
2.2451849e-12
2.2394833e-12
6.6759657e-09
6.4032601e-09
6.3196232e-09
6.281231e-09
6.257999e-09
6.2420942e-09
6.2305383e-09
6.221841e-09
6.2151356e-09
6.2098731e-09
6.2056855e-09
6.202316e-09
6.1995776e-09
6.1973294e-09
6.1954579e-09
6.193868e-09
6.1924558e-09
6.1911393e-09
6.189641e-09
6.1880987e-09
6.1839827e-09
6.1832058e-09
6.1493e-09
4.6653032e-09
2.7781002e-11
6.5175801e-12
1.2303622e-11
2.3670896e-12
8.5323357e-12
7.3697379e-12
6.9920477e-12
6.4741678e-12
6.0957218e-12
5.7696979e-12
5.4966716e-12
5.2642148e-12
5.0634929e-12
4.8881921e-12
4.7335816e-12
4.5960413e-12
4.4727669e-12
4.3615423e-12
4.2605901e-12
4.1684977e-12
4.0841808e-12
4.0064674e-12
3.9345753e-12
3.8678421e-12
3.8056891e-12
3.7476193e-12
3.6932047e-12
3.6420745e-12
3.5939069e-12
3.5484203e-12
3.5053684e-12
3.4645331e-12
3.4257217e-12
3.3887628e-12
3.3535036e-12
3.3198079e-12
3.2876093e-12
3.2567744e-12
3.2271659e-12
3.1986929e-12
3.1712736e-12
3.1448206e-12
3.1192563e-12
3.0945311e-12
3.0705929e-12
3.0473916e-12
3.024881e-12
3.0030175e-12
2.9817606e-12
2.9610726e-12
2.940919e-12
2.9212672e-12
2.9020875e-12
2.8833529e-12
2.8650381e-12
2.8471192e-12
2.829573e-12
2.8123779e-12
2.7955134e-12
2.7789607e-12
2.7627018e-12
2.7467199e-12
2.7309991e-12
2.7155238e-12
2.7002812e-12
2.6852576e-12
2.6704399e-12
2.6558163e-12
2.6413755e-12
2.6271068e-12
2.6129997e-12
2.5990445e-12
2.5852319e-12
2.5715535e-12
2.5580006e-12
2.544565e-12
2.5312388e-12
2.5180148e-12
2.5048857e-12
2.4918446e-12
2.4788855e-12
2.4660021e-12
2.4531883e-12
2.4404387e-12
2.4277483e-12
2.4151129e-12
2.4025284e-12
2.3900031e-12
2.3775107e-12
2.36548e-12
2.3543447e-12
2.3441307e-12
2.334728e-12
2.3260342e-12
2.3179611e-12
2.3104376e-12
2.3034044e-12
2.2968115e-12
2.2906155e-12
2.2847788e-12
2.2792687e-12
2.2740555e-12
2.2691125e-12
2.2644151e-12
2.259941e-12
2.2556636e-12
2.2515684e-12
2.2475893e-12
2.2437998e-12
2.2398244e-12
2.2365756e-12
2.2314645e-12
6.6717734e-09
6.3871045e-09
6.2993673e-09
6.2589157e-09
6.2343862e-09
6.2175736e-09
6.2053468e-09
6.1961365e-09
6.1890291e-09
6.1834456e-09
6.178998e-09
6.1754154e-09
6.172501e-09
6.1701066e-09
6.1681138e-09
6.166424e-09
6.164932e-09
6.1635562e-09
6.162024e-09
6.1604851e-09
6.1564371e-09
6.1559539e-09
6.122601e-09
4.6546991e-09
2.7192848e-11
5.8340715e-12
1.1377068e-11
2.308184e-12
7.9117803e-12
6.8806612e-12
6.5118277e-12
6.0464246e-12
5.7005678e-12
5.4060047e-12
5.1595654e-12
4.9499161e-12
4.7689882e-12
4.6110441e-12
4.4717934e-12
4.3479545e-12
4.2369876e-12
4.1368871e-12
4.046046e-12
3.9631924e-12
3.8873627e-12
3.8174675e-12
3.7528062e-12
3.6927851e-12
3.6368835e-12
3.5846537e-12
3.5357102e-12
3.4897192e-12
3.4463908e-12
3.4054715e-12
3.3667398e-12
3.3299991e-12
3.2950762e-12
3.2618168e-12
3.2300835e-12
3.1997539e-12
3.1707782e-12
3.1430446e-12
3.1164104e-12
3.0907934e-12
3.0661202e-12
3.0423011e-12
3.0192691e-12
2.9969866e-12
2.9754079e-12
2.9544885e-12
2.9341869e-12
2.9144643e-12
2.8952842e-12
2.8766131e-12
2.8584197e-12
2.8406751e-12
2.8233531e-12
2.8064315e-12
2.7898868e-12
2.7736973e-12
2.7578417e-12
2.7423006e-12
2.7270553e-12
2.7120888e-12
2.697385e-12
2.6829285e-12
2.6687052e-12
2.6547011e-12
2.6409046e-12
2.6273033e-12
2.6138857e-12
2.6006412e-12
2.5875596e-12
2.5746312e-12
2.5618467e-12
2.5491976e-12
2.5366755e-12
2.5242728e-12
2.5119818e-12
2.4997951e-12
2.4877059e-12
2.4757077e-12
2.463794e-12
2.4519586e-12
2.4401965e-12
2.4285021e-12
2.4168702e-12
2.4052957e-12
2.3937745e-12
2.382303e-12
2.3708776e-12
2.3595066e-12
2.3481646e-12
2.3372547e-12
2.3271729e-12
2.3179358e-12
2.3094398e-12
2.3015897e-12
2.2943043e-12
2.2875181e-12
2.281177e-12
2.2752355e-12
2.2696538e-12
2.2643978e-12
2.2594378e-12
2.2547466e-12
2.2503002e-12
2.2460761e-12
2.2420542e-12
2.2382104e-12
2.2345315e-12
2.2309576e-12
2.2275566e-12
2.223985e-12
2.2210723e-12
2.2164829e-12
6.6667765e-09
6.3674854e-09
6.2747409e-09
6.2317734e-09
6.2056585e-09
6.1877365e-09
6.1746898e-09
6.1648524e-09
6.1572535e-09
6.1512775e-09
6.1465117e-09
6.1426681e-09
6.1395378e-09
6.1369637e-09
6.1348209e-09
6.1330069e-09
6.1314138e-09
6.1299603e-09
6.1283777e-09
6.1268295e-09
6.1228298e-09
6.1226629e-09
6.0897368e-09
4.6416539e-09
2.6671396e-11
5.2062613e-12
1.0465257e-11
2.2518523e-12
7.3089817e-12
6.3992115e-12
6.045482e-12
5.6291624e-12
5.3154131e-12
5.0506273e-12
4.8292281e-12
4.6409802e-12
4.4785707e-12
4.3368242e-12
4.211877e-12
4.1007745e-12
4.0012306e-12
3.9114414e-12
3.8299619e-12
3.7556536e-12
3.6876651e-12
3.6249892e-12
3.5670008e-12
3.5131709e-12
3.4630329e-12
3.4161853e-12
3.3722824e-12
3.3310248e-12
3.2921525e-12
3.2554381e-12
3.2206831e-12
3.187711e-12
3.1563668e-12
3.126512e-12
3.0980234e-12
3.0707913e-12
3.0447791e-12
3.019903e-12
2.9960107e-12
2.9730268e-12
2.9508853e-12
2.9294873e-12
2.9087834e-12
2.8887475e-12
2.8693393e-12
2.8505192e-12
2.8322501e-12
2.8144977e-12
2.7972292e-12
2.7804146e-12
2.764026e-12
2.7480376e-12
2.7324285e-12
2.7171809e-12
2.7022716e-12
2.6876802e-12
2.6733873e-12
2.6593753e-12
2.6456272e-12
2.6321278e-12
2.6188624e-12
2.6058173e-12
2.59298e-12
2.5803376e-12
2.56788e-12
2.555596e-12
2.5434753e-12
2.5315084e-12
2.5196863e-12
2.5080003e-12
2.4964422e-12
2.4850043e-12
2.4736791e-12
2.4624599e-12
2.4513399e-12
2.4403126e-12
2.4293717e-12
2.4185117e-12
2.4077268e-12
2.3970115e-12
2.3863616e-12
2.3757728e-12
2.3652397e-12
2.3547582e-12
2.3443247e-12
2.333936e-12
2.3235889e-12
2.3132917e-12
2.3030201e-12
2.2931526e-12
2.2840496e-12
2.2757188e-12
2.2680628e-12
2.2609936e-12
2.2544365e-12
2.2483319e-12
2.24263e-12
2.2372897e-12
2.2322749e-12
2.2275544e-12
2.2231014e-12
2.2188913e-12
2.2149022e-12
2.2111138e-12
2.207508e-12
2.204063e-12
2.2007671e-12
2.1975657e-12
2.1945215e-12
2.1913211e-12
2.1887169e-12
2.1846059e-12
6.6609344e-09
6.3440134e-09
6.2452387e-09
6.1992406e-09
6.1712155e-09
6.1519568e-09
6.1379222e-09
6.1273292e-09
6.1191378e-09
6.1126885e-09
6.107539e-09
6.1033804e-09
6.099989e-09
6.0971972e-09
6.0948723e-09
6.0929063e-09
6.0911882e-09
6.0896362e-09
6.0879843e-09
6.0864126e-09
6.0824391e-09
6.0826134e-09
6.0499725e-09
4.6258437e-09
2.6229461e-11
4.6247181e-12
9.5589192e-12
2.1871249e-12
6.7102649e-12
5.9125629e-12
5.5789596e-12
5.2087984e-12
4.9265977e-12
4.69016e-12
4.4925294e-12
4.3245509e-12
4.1796506e-12
4.0531981e-12
3.9417414e-12
3.84264e-12
3.7538516e-12
3.6737651e-12
3.6010903e-12
3.5348151e-12
3.474193e-12
3.4182986e-12
3.366578e-12
3.3185627e-12
3.2738372e-12
3.2320438e-12
3.1928743e-12
3.1560615e-12
3.121374e-12
3.0886087e-12
3.0575888e-12
3.028157e-12
3.0001749e-12
2.9735191e-12
2.9480798e-12
2.9237593e-12
2.9005299e-12
2.8782998e-12
2.8569444e-12
2.8363981e-12
2.8166021e-12
2.7974802e-12
2.7789778e-12
2.7610685e-12
2.7437167e-12
2.7268873e-12
2.7105474e-12
2.6946664e-12
2.6792151e-12
2.6641669e-12
2.6494969e-12
2.635182e-12
2.6212017e-12
2.6075401e-12
2.5941797e-12
2.5811022e-12
2.5682898e-12
2.5557267e-12
2.5433975e-12
2.5312887e-12
2.5193872e-12
2.5076808e-12
2.4961582e-12
2.484808e-12
2.4736212e-12
2.462588e-12
2.4516989e-12
2.4409458e-12
2.4303206e-12
2.4198155e-12
2.4094234e-12
2.3991374e-12
2.3889508e-12
2.3788579e-12
2.3688525e-12
2.3589289e-12
2.3490816e-12
2.3393057e-12
2.3295963e-12
2.3199483e-12
2.3103595e-12
2.3008253e-12
2.2913409e-12
2.2819025e-12
2.272507e-12
2.2631519e-12
2.253834e-12
2.2445616e-12
2.2353115e-12
2.2264382e-12
2.2182677e-12
2.2107987e-12
2.2039403e-12
2.1976117e-12
2.1917445e-12
2.1862848e-12
2.1811875e-12
2.1764154e-12
2.1719359e-12
2.1677209e-12
2.1637462e-12
2.1599896e-12
2.1564315e-12
2.1530535e-12
2.1498395e-12
2.1467699e-12
2.1438341e-12
2.1409829e-12
2.1382739e-12
2.1354225e-12
2.1331081e-12
2.1294453e-12
6.6542178e-09
6.3162608e-09
6.2103018e-09
6.1606924e-09
6.1303909e-09
6.1095393e-09
6.0943275e-09
6.0828337e-09
6.0739363e-09
6.0669227e-09
6.0613154e-09
6.0567808e-09
6.0530776e-09
6.0500253e-09
6.0474818e-09
6.0453326e-09
6.0434623e-09
6.0417885e-09
6.0400461e-09
6.0384347e-09
6.0344622e-09
6.0350051e-09
6.0024908e-09
4.6069005e-09
2.5882942e-11
4.0829997e-12
8.6532731e-12
2.1061557e-12
6.1075727e-12
5.4134639e-12
5.1039687e-12
4.7774013e-12
4.5260927e-12
4.31674e-12
4.1417817e-12
3.9931126e-12
3.8648777e-12
3.7529723e-12
3.6543405e-12
3.5666436e-12
3.4880731e-12
3.4172024e-12
3.3528892e-12
3.2942418e-12
3.240611e-12
3.1911544e-12
3.1453849e-12
3.1028908e-12
3.0633054e-12
3.0263124e-12
2.9916392e-12
2.9590495e-12
2.9283385e-12
2.8993267e-12
2.8718577e-12
2.8457921e-12
2.8210077e-12
2.7973953e-12
2.7748576e-12
2.7533085e-12
2.7327256e-12
2.7130161e-12
2.6940795e-12
2.6758578e-12
2.658299e-12
2.6413432e-12
2.6249375e-12
2.6090549e-12
2.5936639e-12
2.5787334e-12
2.5642343e-12
2.5501397e-12
2.5364237e-12
2.5230628e-12
2.5100351e-12
2.49732e-12
2.4848989e-12
2.4727602e-12
2.4608882e-12
2.4492653e-12
2.4378753e-12
2.4267043e-12
2.4157387e-12
2.4049666e-12
2.3943763e-12
2.3839572e-12
2.3736992e-12
2.3635922e-12
2.3536285e-12
2.3437993e-12
2.3340963e-12
2.3245124e-12
2.3150403e-12
2.3056735e-12
2.2964054e-12
2.2872302e-12
2.278142e-12
2.2691356e-12
2.2602059e-12
2.2513477e-12
2.2425564e-12
2.2338275e-12
2.2251569e-12
2.2165401e-12
2.2079743e-12
2.1994562e-12
2.1909818e-12
2.182548e-12
2.1741522e-12
2.1657924e-12
2.157465e-12
2.149178e-12
2.1409103e-12
2.1329881e-12
2.1257043e-12
2.1190535e-12
2.1129518e-12
2.1073253e-12
2.1021123e-12
2.0972637e-12
2.0927391e-12
2.0885051e-12
2.0845322e-12
2.0807955e-12
2.0772732e-12
2.0739454e-12
2.0707946e-12
2.0678044e-12
2.0649603e-12
2.0622449e-12
2.0596489e-12
2.0571282e-12
2.054735e-12
2.0522136e-12
2.0501707e-12
2.0469347e-12
6.6466167e-09
6.2837655e-09
6.1693218e-09
6.1154472e-09
6.082457e-09
6.0597241e-09
6.0431219e-09
6.0305645e-09
6.020833e-09
6.0131528e-09
6.0070045e-09
6.0020254e-09
5.9979532e-09
5.9945923e-09
5.9917893e-09
5.9894216e-09
5.9873687e-09
5.9855464e-09
5.9836897e-09
5.9820202e-09
5.9780205e-09
5.9789617e-09
5.9463972e-09
4.5844104e-09
2.5651747e-11
3.5770883e-12
7.7477309e-12
2.0035654e-12
5.4975119e-12
4.8991472e-12
4.616799e-12
4.3314822e-12
4.1102662e-12
3.9268086e-12
3.773508e-12
3.6432709e-12
3.5309381e-12
3.4329103e-12
3.346511e-12
3.2696911e-12
3.2008653e-12
3.1387837e-12
3.0824457e-12
3.0310732e-12
2.9841081e-12
2.9407916e-12
2.9006995e-12
2.8634741e-12
2.8287945e-12
2.796384e-12
2.766004e-12
2.7374475e-12
2.7105353e-12
2.68511e-12
2.6610346e-12
2.6381872e-12
2.6164607e-12
2.5957593e-12
2.5759981e-12
2.5571013e-12
2.5390499e-12
2.5217558e-12
2.5051378e-12
2.4891453e-12
2.4737325e-12
2.4588511e-12
2.444454e-12
2.430514e-12
2.4170032e-12
2.4038943e-12
2.3911619e-12
2.3787823e-12
2.3667328e-12
2.3549931e-12
2.3435437e-12
2.3323668e-12
2.3214459e-12
2.3107675e-12
2.3003191e-12
2.2900869e-12
2.2800575e-12
2.2702187e-12
2.2605586e-12
2.251067e-12
2.2417337e-12
2.2325493e-12
2.2235051e-12
2.2145923e-12
2.205804e-12
2.1971326e-12
2.188571e-12
2.1801128e-12
2.1717519e-12
2.1634824e-12
2.1552988e-12
2.1471958e-12
2.1391684e-12
2.1312122e-12
2.1233226e-12
2.1154953e-12
2.1077262e-12
2.1000114e-12
2.0923474e-12
2.0847304e-12
2.0771577e-12
2.0696264e-12
2.0621333e-12
2.0546759e-12
2.047252e-12
2.0398601e-12
2.032498e-12
2.0251729e-12
2.0178654e-12
2.0108685e-12
2.0044433e-12
1.9985831e-12
1.993212e-12
1.9882632e-12
1.983681e-12
1.9794217e-12
1.9754488e-12
1.971733e-12
1.9682479e-12
1.9649713e-12
1.9618841e-12
1.9589686e-12
1.9562091e-12
1.9535913e-12
1.9511025e-12
1.9487271e-12
1.946457e-12
1.9442534e-12
1.9421627e-12
1.9399586e-12
1.9381745e-12
1.935351e-12
6.6381495e-09
6.2460373e-09
6.1216461e-09
6.0627717e-09
6.02663e-09
6.0016924e-09
5.9834609e-09
5.9696571e-09
5.9589482e-09
5.9504868e-09
5.9437043e-09
5.9382039e-09
5.9336987e-09
5.9299751e-09
5.9268665e-09
5.924241e-09
5.9219712e-09
5.9199708e-09
5.9179727e-09
5.9162245e-09
5.9121661e-09
5.913538e-09
5.8807277e-09
4.557912e-09
2.5561063e-11
3.1049532e-12
6.8457027e-12
1.8763318e-12
4.880812e-12
4.3707552e-12
4.1176953e-12
3.8713682e-12
3.6792528e-12
3.5204878e-12
3.3878317e-12
3.2751574e-12
3.1779758e-12
3.0931703e-12
3.0184264e-12
2.9519707e-12
2.8924314e-12
2.8387266e-12
2.7899906e-12
2.7455532e-12
2.7049402e-12
2.6674775e-12
2.6327999e-12
2.6006001e-12
2.5706012e-12
2.542564e-12
2.516282e-12
2.4915763e-12
2.4682919e-12
2.4462926e-12
2.4254599e-12
2.4056882e-12
2.3868849e-12
2.3689674e-12
2.3518617e-12
2.3355027e-12
2.3198728e-12
2.3048925e-12
2.2904965e-12
2.2766407e-12
2.2632854e-12
2.2503912e-12
2.237918e-12
2.2258394e-12
2.214131e-12
2.202769e-12
2.1917313e-12
2.1809975e-12
2.170548e-12
2.1603651e-12
2.150432e-12
2.1407333e-12
2.1312548e-12
2.1219835e-12
2.1129084e-12
2.1040182e-12
2.0953016e-12
2.0867484e-12
2.0783486e-12
2.0700934e-12
2.061974e-12
2.0539823e-12
2.0461109e-12
2.038352e-12
2.0307e-12
2.0231483e-12
2.0156906e-12
2.0083216e-12
2.001036e-12
1.9938286e-12
1.9866949e-12
1.9796303e-12
1.9726305e-12
1.9656917e-12
1.95881e-12
1.9519818e-12
1.9452035e-12
1.938472e-12
1.9317841e-12
1.9251367e-12
1.9185274e-12
1.9119537e-12
1.905413e-12
1.8989032e-12
1.8924227e-12
1.8859702e-12
1.8795443e-12
1.8731516e-12
1.8667748e-12
1.8606743e-12
1.8550792e-12
1.8499819e-12
1.8453144e-12
1.8410172e-12
1.8370408e-12
1.8333467e-12
1.8299027e-12
1.826683e-12
1.8236646e-12
1.820828e-12
1.8181565e-12
1.8156346e-12
1.8132486e-12
1.8109859e-12
1.8088356e-12
1.8067841e-12
1.8048243e-12
1.8029224e-12
1.8011191e-12
1.799217e-12
1.7976789e-12
1.7952463e-12
6.628875e-09
6.2025647e-09
6.066585e-09
6.0018886e-09
5.9620782e-09
5.9345745e-09
5.914447e-09
5.899193e-09
5.8873469e-09
5.8779764e-09
5.8704558e-09
5.8643484e-09
5.8593387e-09
5.8551921e-09
5.8517268e-09
5.8487993e-09
5.8462743e-09
5.8440626e-09
5.841893e-09
5.840043e-09
5.8358908e-09
5.8377281e-09
5.8044572e-09
4.5268959e-09
2.5643036e-11
2.6661695e-12
5.95435e-12
1.7238975e-12
4.2619329e-12
3.8329602e-12
3.6104476e-12
3.4008093e-12
3.2365634e-12
3.1012036e-12
2.9881139e-12
2.892082e-12
2.8092587e-12
2.7369852e-12
2.6732895e-12
2.6166595e-12
2.5659254e-12
2.5201647e-12
2.4786391e-12
2.4407799e-12
2.4061902e-12
2.3742804e-12
2.3447407e-12
2.317311e-12
2.2917558e-12
2.2678712e-12
2.2454814e-12
2.2244338e-12
2.2045964e-12
2.185853e-12
2.1681027e-12
2.1512555e-12
2.1352324e-12
2.1199629e-12
2.1053841e-12
2.0914404e-12
2.0781153e-12
2.0653399e-12
2.0530618e-12
2.041243e-12
2.0298498e-12
2.0188497e-12
2.0082096e-12
1.9979053e-12
1.9879154e-12
1.9782196e-12
1.9687988e-12
1.9596359e-12
1.9507139e-12
1.9420177e-12
1.9335333e-12
1.9252473e-12
1.9171476e-12
1.909223e-12
1.9014635e-12
1.8938596e-12
1.8864019e-12
1.8790821e-12
1.8718915e-12
1.8648229e-12
1.8578688e-12
1.8510223e-12
1.8442774e-12
1.8376273e-12
1.8310673e-12
1.8245917e-12
1.8181955e-12
1.8118739e-12
1.8056226e-12
1.7994372e-12
1.7933139e-12
1.7872488e-12
1.7812382e-12
1.7752791e-12
1.7693682e-12
1.7635023e-12
1.7576786e-12
1.7518944e-12
1.7461471e-12
1.7404341e-12
1.7347534e-12
1.7291029e-12
1.7234804e-12
1.7178843e-12
1.7123134e-12
1.7067667e-12
1.7012431e-12
1.6957489e-12
1.6902687e-12
1.6850306e-12
1.6802326e-12
1.6758661e-12
1.6718715e-12
1.6681965e-12
1.6647978e-12
1.6616421e-12
1.6587015e-12
1.6559537e-12
1.6533787e-12
1.65096e-12
1.6486829e-12
1.6465342e-12
1.6445022e-12
1.6425759e-12
1.640746e-12
1.6390008e-12
1.6373343e-12
1.6357175e-12
1.6341856e-12
1.6325688e-12
1.6312627e-12
1.6291985e-12
6.6189078e-09
6.1528251e-09
6.0034222e-09
5.931987e-09
5.8879319e-09
5.8574605e-09
5.8351409e-09
5.8182106e-09
5.8050499e-09
5.7946286e-09
5.7862547e-09
5.7794453e-09
5.773852e-09
5.7692157e-09
5.7653366e-09
5.7620583e-09
5.7592357e-09
5.7567758e-09
5.7544014e-09
5.7524237e-09
5.748139e-09
5.7504788e-09
5.7165129e-09
4.4908026e-09
2.5939043e-11
2.2615439e-12
5.0841845e-12
1.5482962e-12
3.648642e-12
3.2935745e-12
3.101993e-12
2.9266013e-12
2.7887194e-12
2.675335e-12
2.5806176e-12
2.5002107e-12
2.4308701e-12
2.3703664e-12
2.3170486e-12
2.2696495e-12
2.2271888e-12
2.1888935e-12
2.1541449e-12
2.1224687e-12
2.0935383e-12
2.0668479e-12
2.042139e-12
2.0191951e-12
1.9978194e-12
1.9778412e-12
1.9591136e-12
1.9415085e-12
1.9249156e-12
1.9092374e-12
1.8943896e-12
1.8802966e-12
1.8668924e-12
1.8541179e-12
1.8419204e-12
1.8302533e-12
1.8191011e-12
1.8084064e-12
1.798127e-12
1.7882312e-12
1.7786906e-12
1.7694787e-12
1.7605685e-12
1.751939e-12
1.7435717e-12
1.7354495e-12
1.7275563e-12
1.7198777e-12
1.7123996e-12
1.7051094e-12
1.6979951e-12
1.6910457e-12
1.684251e-12
1.6776016e-12
1.6710888e-12
1.6647046e-12
1.6584413e-12
1.6522919e-12
1.6462494e-12
1.6403076e-12
1.6344605e-12
1.6287024e-12
1.6230282e-12
1.6174322e-12
1.6119106e-12
1.6064588e-12
1.6010724e-12
1.5957477e-12
1.590481e-12
1.5852686e-12
1.5801074e-12
1.5749943e-12
1.5699261e-12
1.5649005e-12
1.5599146e-12
1.5549659e-12
1.5500521e-12
1.545171e-12
1.5403204e-12
1.5354983e-12
1.530703e-12
1.5259329e-12
1.5211861e-12
1.5164614e-12
1.511758e-12
1.5070751e-12
1.502412e-12
1.4977741e-12
1.4931484e-12
1.4887311e-12
1.4846899e-12
1.4810159e-12
1.4776576e-12
1.4745702e-12
1.4717166e-12
1.4690683e-12
1.4666016e-12
1.4642978e-12
1.4621397e-12
1.4601135e-12
1.4582067e-12
1.4564082e-12
1.4547079e-12
1.4530967e-12
1.4515668e-12
1.4501082e-12
1.448716e-12
1.4473657e-12
1.4460872e-12
1.4447372e-12
1.4436475e-12
1.4419266e-12
6.608437e-09
6.0962976e-09
5.931427e-09
5.8522356e-09
5.8032983e-09
5.7694154e-09
5.7445771e-09
5.7257209e-09
5.7110504e-09
5.6994221e-09
5.6900681e-09
5.6824523e-09
5.6761881e-09
5.6709886e-09
5.6666332e-09
5.6629502e-09
5.6597831e-09
5.6570343e-09
5.6544183e-09
5.6522845e-09
5.647825e-09
5.6507062e-09
5.6157919e-09
4.4490224e-09
2.6502795e-11
1.8927179e-12
4.2484142e-12
1.3541488e-12
3.0514334e-12
2.7630181e-12
2.6018882e-12
2.4580873e-12
2.3447678e-12
2.2517476e-12
2.1740579e-12
2.1081311e-12
2.0512873e-12
2.0016947e-12
1.9579988e-12
1.9191593e-12
1.8843713e-12
1.8530001e-12
1.8245378e-12
1.798597e-12
1.7749141e-12
1.7530648e-12
1.7328376e-12
1.7140561e-12
1.6965591e-12
1.6802068e-12
1.6648786e-12
1.6504697e-12
1.6368894e-12
1.6240578e-12
1.6119058e-12
1.6003714e-12
1.5894005e-12