/*--------------------------------*- C++ -*----------------------------------*\
| =========                 |                                                 |
| \\      /  F ield         | OpenFOAM: The Open Source CFD Toolbox           |
|  \\    /   O peration     | Version:  2206                                  |
|   \\  /    A nd           | Website:  www.openfoam.com                      |
|    \\/     M anipulation  |                                                 |
\*---------------------------------------------------------------------------*/
FoamFile
{
    version     2.0;
    format      ascii;
    arch        "LSB;label=32;scalar=64";
    class       volScalarField;
    location    "600";
    object      p;
}
// * * * * * * * * * * * * * * * * * * * * * * * * * * * * * * * * * * * * * //

dimensions      [0 2 -2 0 0 0 0];

internalField   nonuniform List<scalar> 
13056
(
0.010645066
0.01074577
0.010955251
0.011220632
0.011544407
0.011925949
0.012362589
0.012853736
0.013401021
0.014007758
0.014678931
0.015421653
0.016245688
0.017164921
0.018197823
0.019373701
0.020727305
0.022335885
0.024251512
0.026771716
0.029792855
0.035048789
0.040056353
0.081248166
0.050188094
-0.00091933836
-0.0013827851
1.9690674e-05
0.00063825588
0.0011811871
0.0015352004
0.0017987643
0.0019966973
0.002145581
0.0022591413
0.0023481704
0.0024194819
0.0024773477
0.0025247292
0.002564057
0.0025970013
0.0026246948
0.0026480949
0.0026679496
0.0026848005
0.0026990567
0.002711085
0.0027211821
0.0027295835
0.0027364631
0.0027419717
0.0027462417
0.0027493801
0.00275149
0.0027526603
0.0027529433
0.0027523866
0.0027510411
0.0027489479
0.0027461415
0.0027426528
0.0027385171
0.0027337481
0.0027283475
0.0027223326
0.0027157156
0.0027085037
0.0027007038
0.0026923184
0.0026833597
0.0026738218
0.0026636836
0.002652947
0.0026416073
0.0026296555
0.0026170839
0.0026038805
0.002590037
0.0025755446
0.0025603733
0.0025444981
0.0025279048
0.0025105714
0.0024924734
0.0024735875
0.0024538824
0.002433337
0.0024119192
0.002389574
0.0023662645
0.002341953
0.002316592
0.0022901331
0.002262524
0.0022337057
0.0022036246
0.0021722028
0.0021393524
0.0021050006
0.0020690572
0.0020314252
0.0019919979
0.001950661
0.0019072901
0.0018617303
0.0018138174
0.0017633809
0.0017102213
0.0016541161
0.0015948229
0.0015320367
0.0014654256
0.0013945993
0.001320489
0.0012460141
0.0011732982
0.0011025128
0.0010333323
0.00096560025
0.00089925375
0.00083427008
0.00077066177
0.00070848205
0.00064784278
0.00058888062
0.00053177272
0.00047678931
0.0004242753
0.00037475753
0.00032881272
0.00028778556
0.00025230415
0.00022762665
0.00020827594
0.00034433433
-0.0003124683
0.010645066
0.01074577
0.010955251
0.011220632
0.011544407
0.01192595
0.012362589
0.012853736
0.013401021
0.014007758
0.014678932
0.015421653
0.016245688
0.017164921
0.018197825
0.019373703
0.020727307
0.022335888
0.024251516
0.026771723
0.029792864
0.035048808
0.040056407
0.081242844
0.050199661
-0.00091150805
-0.0013809424
2.0465009e-05
0.00063870899
0.0011815037
0.0015354371
0.0017989504
0.0019968483
0.0021457065
0.0022592476
0.0023482617
0.0024195614
0.0024774176
0.002524791
0.0025641122
0.0025970509
0.0026247396
0.0026481355
0.0026679866
0.0026848344
0.0026990878
0.0027111136
0.0027212086
0.002729608
0.0027364859
0.0027419929
0.0027462614
0.0027493985
0.0027515073
0.0027526765
0.0027529585
0.0027524008
0.0027510546
0.0027489606
0.0027461534
0.0027426642
0.0027385278
0.0027337582
0.0027283571
0.0027223417
0.0027157243
0.0027085119
0.0027007116
0.0026923258
0.0026833668
0.0026738285
0.00266369
0.0026529531
0.0026416131
0.002629661
0.0026170892
0.0026038855
0.0025900418
0.0025755492
0.0025603777
0.0025445023
0.0025279088
0.0025105752
0.002492477
0.002473591
0.0024538857
0.0024333402
0.0024119222
0.0023895769
0.0023662673
0.0023419557
0.0023165946
0.0022901355
0.0022625263
0.0022337079
0.0022036267
0.0021722047
0.0021393542
0.0021050024
0.0020690589
0.0020314268
0.0019919994
0.0019506625
0.0019072915
0.0018617316
0.0018138186
0.0017633821
0.0017102224
0.0016541171
0.0015948239
0.0015320376
0.0014654264
0.0013946001
0.0013204898
0.0012460148
0.0011732988
0.0011025134
0.0010333328
0.00096560076
0.00089925423
0.00083427053
0.0007706622
0.00070848245
0.00064784317
0.00058888098
0.00053177306
0.00047678964
0.00042427561
0.00037475783
0.00032881301
0.00028778584
0.00025230442
0.00022762692
0.00020827622
0.00034433463
-0.0003124681
0.010645066
0.01074577
0.010955251
0.011220632
0.011544407
0.01192595
0.012362589
0.012853736
0.013401021
0.014007758
0.014678932
0.015421654
0.016245689
0.017164922
0.018197826
0.019373704
0.020727309
0.022335891
0.02425152
0.026771731
0.029792875
0.035048829
0.040056458
0.08123789
0.050215214
-0.00090402967
-0.001378914
2.1369442e-05
0.00063923816
0.0011818734
0.0015357134
0.0017991676
0.0019970246
0.002145853
0.0022593717
0.0023483684
0.0024196542
0.0024774991
0.0025248633
0.0025641766
0.0025971087
0.0026247918
0.0026481829
0.0026680298
0.0026848739
0.0026991241
0.002711147
0.0027212395
0.0027296366
0.0027365124
0.0027420176
0.0027462845
0.0027494201
0.0027515275
0.0027526954
0.0027529762
0.0027524175
0.0027510703
0.0027489754
0.0027461674
0.0027426774
0.0027385403
0.0027337701
0.0027283683
0.0027223523
0.0027157343
0.0027085215
0.0027007207
0.0026923344
0.002683375
0.0026738363
0.0026636974
0.0026529602
0.0026416198
0.0026296675
0.0026170953
0.0026038914
0.0025900474
0.0025755545
0.0025603828
0.0025445072
0.0025279135
0.0025105796
0.0024924813
0.002473595
0.0024538895
0.0024333439
0.0024119258
0.0023895802
0.0023662705
0.0023419587
0.0023165975
0.0022901383
0.002262529
0.0022337104
0.0022036291
0.002172207
0.0021393564
0.0021050045
0.0020690609
0.0020314287
0.0019920012
0.0019506642
0.0019072931
0.0018617331
0.00181382
0.0017633834
0.0017102237
0.0016541183
0.001594825
0.0015320387
0.0014654274
0.001394601
0.0013204906
0.0012460156
0.0011732995
0.001102514
0.0010333335
0.00096560136
0.00089925479
0.00083427106
0.0007706627
0.00070848292
0.00064784361
0.00058888141
0.00053177346
0.00047679002
0.00042427598
0.00037475818
0.00032881334
0.00028778616
0.00025230473
0.00022762724
0.00020827653
0.00034433497
-0.00031246789
0.010645066
0.01074577
0.010955251
0.011220632
0.011544407
0.01192595
0.012362589
0.012853736
0.013401022
0.014007759
0.014678932
0.015421655
0.01624569
0.017164923
0.018197827
0.019373706
0.020727311
0.022335895
0.024251525
0.026771739
0.029792886
0.035048849
0.040056511
0.081233083
0.050232573
-0.00089932232
-0.0013770276
2.224672e-05
0.00063975171
0.0011822322
0.0015359816
0.0017993785
0.0019971957
0.0021459952
0.0022594922
0.002348472
0.0024197443
0.0024775782
0.0025249333
0.0025642392
0.0025971649
0.0026248425
0.0026482289
0.0026680717
0.0026849123
0.0026991593
0.0027111795
0.0027212695
0.0027296644
0.0027365382
0.0027420416
0.0027463069
0.002749441
0.002751547
0.0027527137
0.0027529935
0.0027524337
0.0027510856
0.0027489898
0.002746181
0.0027426902
0.0027385524
0.0027337815
0.0027283792
0.0027223626
0.0027157441
0.0027085308
0.0027007296
0.0026923428
0.002683383
0.0026738439
0.0026637047
0.0026529671
0.0026416264
0.0026296738
0.0026171013
0.0026038971
0.0025900528
0.0025755597
0.0025603878
0.0025445119
0.002527918
0.002510584
0.0024924854
0.002473599
0.0024538933
0.0024333475
0.0024119292
0.0023895835
0.0023662736
0.0023419617
0.0023166003
0.0022901411
0.0022625316
0.0022337129
0.0022036315
0.0021722093
0.0021393586
0.0021050065
0.0020690629
0.0020314305
0.0019920029
0.0019506658
0.0019072946
0.0018617346
0.0018138214
0.0017633847
0.001710225
0.0016541195
0.0015948261
0.0015320397
0.0014654284
0.0013946019
0.0013204915
0.0012460163
0.0011733002
0.0011025147
0.0010333341
0.00096560194
0.00089925534
0.00083427158
0.00077066318
0.00070848338
0.00064784405
0.00058888182
0.00053177386
0.00047679039
0.00042427633
0.00037475852
0.00032881367
0.00028778648
0.00025230504
0.00022762754
0.00020827681
0.0003443353
-0.00031246768
0.010645066
0.01074577
0.010955251
0.011220632
0.011544407
0.01192595
0.01236259
0.012853737
0.013401022
0.014007759
0.014678933
0.015421655
0.016245691
0.017164924
0.018197828
0.019373708
0.020727314
0.022335898
0.02425153
0.026771747
0.029792897
0.035048869
0.040056572
0.081227871
0.050251237
-0.00089467189
-0.0013750947
2.3150873e-05
0.00064028121
0.0011826021
0.0015362581
0.0017995959
0.0019973721
0.0021461418
0.0022596164
0.0023485787
0.0024198371
0.0024776598
0.0025250056
0.0025643037
0.0025972228
0.0026248948
0.0026482764
0.002668115
0.0026849519
0.0026991956
0.002711213
0.0027213004
0.002729693
0.0027365648
0.0027420664
0.0027463299
0.0027494625
0.0027515672
0.0027527326
0.0027530112
0.0027524504
0.0027511013
0.0027490046
0.002746195
0.0027427034
0.0027385649
0.0027337934
0.0027283904
0.0027223733
0.0027157542
0.0027085404
0.0027007387
0.0026923515
0.0026833912
0.0026738517
0.0026637121
0.0026529742
0.0026416332
0.0026296802
0.0026171075
0.0026039029
0.0025900585
0.0025755651
0.0025603929
0.0025445168
0.0025279227
0.0025105884
0.0024924897
0.002473603
0.0024538972
0.0024333512
0.0024119327
0.0023895869
0.0023662769
0.0023419648
0.0023166033
0.0022901439
0.0022625343
0.0022337155
0.0022036339
0.0021722116
0.0021393608
0.0021050086
0.0020690648
0.0020314324
0.0019920047
0.0019506675
0.0019072962
0.0018617361
0.0018138229
0.0017633861
0.0017102262
0.0016541207
0.0015948273
0.0015320408
0.0014654294
0.0013946028
0.0013204923
0.0012460171
0.001173301
0.0011025154
0.0010333347
0.00096560254
0.0008992559
0.00083427211
0.00077066368
0.00070848385
0.00064784449
0.00058888224
0.00053177426
0.00047679078
0.0004242767
0.00037475887
0.00032881401
0.00028778681
0.00025230536
0.00022762786
0.00020827711
0.00034433564
-0.00031246747
0.010645066
0.01074577
0.010955251
0.011220632
0.011544407
0.01192595
0.01236259
0.012853737
0.013401022
0.014007759
0.014678933
0.015421656
0.016245691
0.017164925
0.01819783
0.01937371
0.020727317
0.022335903
0.024251536
0.026771758
0.029792911
0.035048894
0.040056643
0.08122207
0.050270697
-0.00088818018
-0.0013730298
2.4114293e-05
0.00064084567
0.0011829964
0.0015365529
0.0017998276
0.0019975602
0.0021462982
0.0022597488
0.0023486926
0.0024199361
0.0024777467
0.0025250827
0.0025643724
0.0025972846
0.0026249506
0.002648327
0.0026681611
0.0026849941
0.0026992344
0.0027112486
0.0027213334
0.0027297236
0.0027365932
0.0027420928
0.0027463546
0.0027494855
0.0027515887
0.0027527528
0.0027530302
0.0027524683
0.0027511181
0.0027490204
0.0027462099
0.0027427175
0.0027385782
0.002733806
0.0027284023
0.0027223846
0.002715765
0.0027085506
0.0027007484
0.0026923607
0.0026834
0.0026738601
0.0026637201
0.0026529818
0.0026416404
0.0026296871
0.002617114
0.0026039092
0.0025900644
0.0025755708
0.0025603983
0.002544522
0.0025279276
0.0025105932
0.0024924942
0.0024736074
0.0024539013
0.0024333552
0.0024119365
0.0023895905
0.0023662803
0.0023419681
0.0023166064
0.0022901468
0.0022625371
0.0022337182
0.0022036365
0.0021722141
0.0021393631
0.0021050108
0.002069067
0.0020314344
0.0019920067
0.0019506693
0.001907298
0.0018617377
0.0018138244
0.0017633876
0.0017102276
0.001654122
0.0015948285
0.001532042
0.0014654304
0.0013946038
0.0013204933
0.001246018
0.0011733018
0.0011025161
0.0010333354
0.00096560319
0.00089925651
0.00083427267
0.00077066422
0.00070848436
0.00064784497
0.0005888827
0.00053177469
0.00047679119
0.0004242771
0.00037475925
0.00032881437
0.00028778716
0.00025230569
0.0002276282
0.00020827742
0.00034433601
-0.00031246725
0.010645066
0.01074577
0.010955251
0.011220632
0.011544407
0.01192595
0.01236259
0.012853737
0.013401023
0.01400776
0.014678934
0.015421657
0.016245693
0.017164927
0.018197832
0.019373713
0.02072732
0.022335908
0.024251543
0.02677177
0.029792928
0.035048924
0.040056717
0.081215581
0.050291179
-0.00088051222
-0.0013708046
2.5151966e-05
0.000641454
0.0011834214
0.0015368706
0.0018000774
0.0019977629
0.0021464666
0.0022598915
0.0023488153
0.0024200429
0.0024778405
0.0025251658
0.0025644466
0.0025973512
0.0026250107
0.0026483815
0.0026682108
0.0026850396
0.0026992762
0.0027112871
0.0027213689
0.0027297565
0.0027366238
0.0027421212
0.0027463811
0.0027495104
0.002751612
0.0027527746
0.0027530506
0.0027524875
0.0027511362
0.0027490375
0.002746226
0.0027427327
0.0027385926
0.0027338196
0.0027284153
0.0027223968
0.0027157766
0.0027085616
0.0027007589
0.0026923707
0.0026834095
0.0026738691
0.0026637287
0.00265299
0.0026416482
0.0026296946
0.0026171211
0.002603916
0.0025900709
0.002575577
0.0025604042
0.0025445276
0.002527933
0.0025105983
0.0024924991
0.002473612
0.0024539058
0.0024333594
0.0024119406
0.0023895944
0.002366284
0.0023419716
0.0023166098
0.0022901501
0.0022625402
0.0022337211
0.0022036393
0.0021722167
0.0021393656
0.0021050132
0.0020690693
0.0020314366
0.0019920087
0.0019506713
0.0019072998
0.0018617395
0.0018138261
0.0017633891
0.0017102291
0.0016541234
0.0015948298
0.0015320432
0.0014654316
0.0013946049
0.0013204943
0.0012460189
0.0011733026
0.0011025169
0.0010333362
0.00096560388
0.00089925716
0.00083427329
0.0007706648
0.0007084849
0.00064784549
0.00058888319
0.00053177516
0.00047679164
0.00042427752
0.00037475966
0.00032881476
0.00028778753
0.00025230606
0.00022762856
0.00020827776
0.00034433641
-0.00031246701
0.010645066
0.01074577
0.010955251
0.011220632
0.011544408
0.01192595
0.01236259
0.012853737
0.013401023
0.01400776
0.014678935
0.015421658
0.016245694
0.017164929
0.018197834
0.019373716
0.020727325
0.022335915
0.024251552
0.026771786
0.02979295
0.035048963
0.040056775
0.081208258
0.050312966
-0.00087227226
-0.0013683904
2.6278513e-05
0.00064211494
0.0011838831
0.0015372158
0.0018003488
0.0019979831
0.0021466497
0.0022600466
0.0023489486
0.0024201589
0.0024779424
0.0025252561
0.0025645272
0.0025974235
0.0026250761
0.0026484408
0.0026682649
0.002685089
0.0026993216
0.002711329
0.0027214076
0.0027297923
0.002736657
0.0027421522
0.00274641
0.0027495373
0.0027516372
0.0027527983
0.0027530729
0.0027525084
0.0027511559
0.002749056
0.0027462435
0.0027427493
0.0027386083
0.0027338345
0.0027284293
0.0027224102
0.0027157892
0.0027085736
0.0027007703
0.0026923815
0.0026834198
0.0026738789
0.0026637381
0.0026529989
0.0026416567
0.0026297026
0.0026171289
0.0026039234
0.0025900779
0.0025755837
0.0025604106
0.0025445338
0.0025279388
0.0025106039
0.0024925044
0.0024736171
0.0024539107
0.0024333641
0.002411945
0.0023895986
0.002366288
0.0023419755
0.0023166135
0.0022901536
0.0022625435
0.0022337243
0.0022036423
0.0021722196
0.0021393684
0.0021050158
0.0020690717
0.002031439
0.001992011
0.0019506734
0.0019073018
0.0018617414
0.0018138279
0.0017633908
0.0017102307
0.0016541249
0.0015948312
0.0015320445
0.0014654329
0.0013946061
0.0013204954
0.0012460199
0.0011733036
0.0011025178
0.001033337
0.00096560464
0.00089925787
0.00083427395
0.00077066543
0.0007084855
0.00064784605
0.00058888372
0.00053177567
0.00047679212
0.00042427798
0.0003747601
0.00032881519
0.00028778795
0.00025230646
0.00022762896
0.00020827814
0.00034433684
-0.00031246674
0.010645066
0.01074577
0.010955251
0.011220632
0.011544408
0.011925951
0.012362591
0.012853738
0.013401024
0.014007761
0.014678936
0.015421659
0.016245696
0.017164931
0.018197837
0.01937372
0.020727331
0.022335923
0.024251564
0.026771806
0.029792976
0.035049011
0.040056813
0.081199918
0.050336288
-0.00086335787
-0.0013657505
2.7511371e-05
0.00064283894
0.0011843888
0.001537594
0.0018006462
0.0019982245
0.0021468504
0.0022602166
0.0023490948
0.002420286
0.0024780542
0.002525355
0.0025646155
0.0025975029
0.0026251477
0.0026485059
0.0026683242
0.0026851433
0.0026993714
0.0027113749
0.00272145
0.0027298316
0.0027366935
0.0027421862
0.0027464417
0.002749567
0.002751665
0.0027528243
0.0027530973
0.0027525314
0.0027511775
0.0027490764
0.0027462628
0.0027427675
0.0027386255
0.0027338507
0.0027284447
0.0027224248
0.0027158031
0.0027085868
0.0027007828
0.0026923934
0.0026834311
0.0026738897
0.0026637483
0.0026530087
0.002641666
0.0026297115
0.0026171373
0.0026039314
0.0025900857
0.002575591
0.0025604177
0.0025445405
0.0025279453
0.00251061
0.0024925103
0.0024736227
0.002453916
0.0024333692
0.0024119499
0.0023896033
0.0023662925
0.0023419797
0.0023166175
0.0022901574
0.0022625472
0.0022337278
0.0022036457
0.0021722228
0.0021393714
0.0021050187
0.0020690745
0.0020314416
0.0019920134
0.0019506758
0.0019073041
0.0018617435
0.0018138299
0.0017633927
0.0017102325
0.0016541266
0.0015948328
0.001532046
0.0014654342
0.0013946074
0.0013204965
0.001246021
0.0011733046
0.0011025188
0.0010333379
0.00096560547
0.00089925865
0.00083427469
0.00077066612
0.00070848615
0.00064784667
0.00058888431
0.00053177623
0.00047679265
0.00042427849
0.00037476059
0.00032881566
0.0002877884
0.0002523069
0.0002276294
0.00020827855
0.00034433732
-0.00031246645
0.010645066
0.01074577
0.010955251
0.011220633
0.011544408
0.011925951
0.012362591
0.012853738
0.013401024
0.014007762
0.014678937
0.01542166
0.016245698
0.017164934
0.018197841
0.019373725
0.020727338
0.022335933
0.024251578
0.02677183
0.029793008
0.035049073
0.040056849
0.081190339
0.05036136
-0.00085358116
-0.0013628434
2.8870126e-05
0.00064363776
0.0011849468
0.0015380113
0.0018009743
0.0019984909
0.0021470718
0.0022604042
0.0023492561
0.0024204264
0.0024781775
0.0025254644
0.0025647131
0.0025975906
0.0026252269
0.0026485778
0.0026683897
0.0026852033
0.0026994265
0.0027114256
0.0027214969
0.0027298751
0.0027367339
0.0027422237
0.0027464767
0.0027495997
0.0027516956
0.002752853
0.0027531243
0.0027525567
0.0027512014
0.002749099
0.002746284
0.0027427876
0.0027386445
0.0027338687
0.0027284618
0.0027224409
0.0027158185
0.0027086014
0.0027007966
0.0026924066
0.0026834437
0.0026739017
0.0026637597
0.0026530195
0.0026416764
0.0026297214
0.0026171467
0.0026039404
0.0025900942
0.0025755992
0.0025604254
0.0025445479
0.0025279524
0.0025106168
0.0024925167
0.0024736289
0.0024539219
0.0024333748
0.0024119553
0.0023896084
0.0023662974
0.0023419844
0.002316622
0.0022901617
0.0022625513
0.0022337317
0.0022036494
0.0021722263
0.0021393748
0.0021050219
0.0020690775
0.0020314444
0.0019920162
0.0019506783
0.0019073065
0.0018617458
0.0018138321
0.0017633948
0.0017102344
0.0016541284
0.0015948345
0.0015320476
0.0014654358
0.0013946088
0.0013204979
0.0012460222
0.0011733057
0.0011025198
0.0010333389
0.00096560639
0.00089925951
0.0008342755
0.00077066689
0.00070848688
0.00064784736
0.00058888497
0.00053177685
0.00047679325
0.00042427906
0.00037476113
0.00032881618
0.00028778891
0.00025230738
0.00022762989
0.000208279
0.00034433785
-0.00031246613
0.010645066
0.01074577
0.010955252
0.011220633
0.011544408
0.011925951
0.012362592
0.012853739
0.013401025
0.014007763
0.014678938
0.015421662
0.0162457
0.017164937
0.018197846
0.019373732
0.020727346
0.022335946
0.024251595
0.02677186
0.029793048
0.035049151
0.040056895
0.081179262
0.050388383
-0.00084278493
-0.0013596238
3.0376407e-05
0.00064452444
0.0011855662
0.0015384746
0.0018013387
0.0019987867
0.0021473178
0.0022606126
0.0023494354
0.0024205824
0.0024783146
0.0025255858
0.0025648215
0.002597688
0.0026253149
0.0026486576
0.0026684625
0.0026852699
0.0026994877
0.0027114821
0.002721549
0.0027299234
0.0027367788
0.0027422655
0.0027465157
0.0027496361
0.0027517297
0.002752885
0.0027531543
0.002752585
0.002751228
0.002749124
0.0027463077
0.0027428099
0.0027386656
0.0027338888
0.0027284807
0.002722459
0.0027158355
0.0027086176
0.0027008121
0.0026924213
0.0026834576
0.0026739149
0.0026637723
0.0026530315
0.0026416878
0.0026297323
0.0026171572
0.0026039504
0.0025901037
0.0025756083
0.0025604341
0.0025445562
0.0025279603
0.0025106243
0.002492524
0.0024736358
0.0024539285
0.0024333811
0.0024119613
0.0023896141
0.0023663029
0.0023419896
0.002316627
0.0022901665
0.0022625558
0.002233736
0.0022036535
0.0021722302
0.0021393785
0.0021050255
0.0020690809
0.0020314476
0.0019920192
0.0019506812
0.0019073093
0.0018617484
0.0018138345
0.0017633971
0.0017102366
0.0016541305
0.0015948364
0.0015320494
0.0014654375
0.0013946104
0.0013204993
0.0012460236
0.001173307
0.001102521
0.00103334
0.00096560742
0.00089926048
0.00083427641
0.00077066775
0.0007084877
0.00064784813
0.0005888857
0.00053177755
0.00047679391
0.0004242797
0.00037476174
0.00032881676
0.00028778947
0.00025230793
0.00022763044
0.00020827952
0.00034433844
-0.00031246576
0.010645066
0.010745771
0.010955252
0.011220633
0.011544409
0.011925952
0.012362592
0.01285374
0.013401026
0.014007765
0.01467894
0.015421665
0.016245704
0.017164941
0.018197851
0.01937374
0.020727357
0.022335962
0.024251617
0.026771896
0.029793097
0.035049246
0.040056953
0.081166372
0.050417548
-0.00083080982
-0.0013560415
3.2054216e-05
0.00064551349
0.0011862571
0.0015389915
0.0018017453
0.0019991168
0.0021475923
0.0022608453
0.0023496355
0.0024207565
0.0024784676
0.0025257215
0.0025649427
0.0025977968
0.0026254132
0.0026487469
0.0026685439
0.0026853444
0.0026995562
0.0027115451
0.0027216073
0.0027299774
0.002736829
0.0027423122
0.0027465593
0.0027496768
0.0027517678
0.0027529208
0.0027531879
0.0027526166
0.0027512577
0.0027491521
0.0027463342
0.002742835
0.0027386893
0.0027339112
0.002728502
0.0027224791
0.0027158547
0.0027086358
0.0027008293
0.0026924377
0.0026834732
0.0026739298
0.0026637865
0.002653045
0.0026417007
0.0026297446
0.0026171689
0.0026039615
0.0025901144
0.0025756184
0.0025604438
0.0025445655
0.0025279691
0.0025106328
0.002492532
0.0024736435
0.0024539358
0.0024333881
0.002411968
0.0023896206
0.002366309
0.0023419955
0.0023166325
0.0022901718
0.0022625609
0.0022337408
0.0022036581
0.0021722346
0.0021393827
0.0021050294
0.0020690847
0.0020314512
0.0019920226
0.0019506845
0.0019073123
0.0018617513
0.0018138373
0.0017633997
0.0017102391
0.0016541328
0.0015948386
0.0015320515
0.0014654394
0.0013946121
0.001320501
0.0012460251
0.0011733084
0.0011025223
0.0010333412
0.00096560858
0.00089926157
0.00083427744
0.00077066872
0.00070848861
0.000647849
0.00058888652
0.00053177833
0.00047679466
0.00042428041
0.00037476243
0.00032881742
0.00028779011
0.00025230855
0.00022763105
0.00020828009
0.00034433911
-0.00031246535
0.010645066
0.010745771
0.010955252
0.011220633
0.011544409
0.011925952
0.012362593
0.012853741
0.013401028
0.014007766
0.014678942
0.015421668
0.016245707
0.017164947
0.018197858
0.019373749
0.02072737
0.02233598
0.024251642
0.02677194
0.029793156
0.035049362
0.040057025
0.081151295
0.050449017
-0.00081747545
-0.0013520403
3.3930325e-05
0.00064662114
0.0011870309
0.0015395705
0.0018022008
0.0019994867
0.0021478999
0.002261106
0.0023498597
0.0024209518
0.0024786393
0.0025258737
0.0025650785
0.0025979189
0.0026255235
0.0026488471
0.0026686352
0.0026854281
0.002699633
0.0027116159
0.0027216728
0.0027300381
0.0027368853
0.0027423647
0.0027466082
0.0027497226
0.0027518107
0.0027529609
0.0027532257
0.0027526521
0.0027512912
0.0027491836
0.002746364
0.0027428631
0.0027387159
0.0027339364
0.0027285259
0.0027225018
0.0027158762
0.0027086562
0.0027008487
0.0026924562
0.0026834908
0.0026739465
0.0026638024
0.0026530602
0.0026417152
0.0026297584
0.002617182
0.0026039741
0.0025901263
0.0025756299
0.0025604547
0.0025445759
0.0025279791
0.0025106423
0.0024925411
0.0024736522
0.0024539441
0.002433396
0.0024119755
0.0023896278
0.0023663159
0.002342002
0.0023166388
0.0022901778
0.0022625666
0.0022337463
0.0022036633
0.0021722396
0.0021393874
0.0021050339
0.0020690889
0.0020314553
0.0019920265
0.0019506881
0.0019073158
0.0018617546
0.0018138404
0.0017634026
0.0017102418
0.0016541354
0.0015948411
0.0015320538
0.0014654415
0.0013946141
0.0013205028
0.0012460268
0.00117331
0.0011025238
0.0010333426
0.00096560988
0.0008992628
0.0008342786
0.00077066981
0.00070848964
0.00064784998
0.00058888745
0.00053177922
0.0004767955
0.00042428122
0.0003747632
0.00032881817
0.00028779083
0.00025230924
0.00022763175
0.00020828075
0.00034433987
-0.00031246489
0.010645066
0.010745771
0.010955252
0.011220634
0.01154441
0.011925953
0.012362594
0.012853742
0.013401029
0.014007768
0.014678945
0.015421671
0.016245712
0.017164953
0.018197867
0.01937376
0.020727385
0.022336003
0.024251673
0.026771992
0.029793226
0.035049502
0.040057114
0.081133581
0.050482917
-0.00080257634
-0.0013475578
3.603469e-05
0.00064786563
0.0011879003
0.0015402212
0.0018027127
0.0019999025
0.0021482457
0.0022613992
0.002350112
0.0024211714
0.0024788323
0.0025260448
0.0025652314
0.0025980563
0.0026256477
0.0026489598
0.0026687381
0.0026855222
0.0026997195
0.0027116957
0.0027217465
0.0027301064
0.0027369488
0.0027424238
0.0027466634
0.0027497742
0.002751859
0.0027530062
0.0027532682
0.0027526921
0.0027513289
0.0027492192
0.0027463976
0.0027428948
0.002738746
0.0027339648
0.0027285528
0.0027225273
0.0027159004
0.0027086792
0.0027008706
0.002692477
0.0026835106
0.0026739654
0.0026638204
0.0026530773
0.0026417315
0.0026297739
0.0026171969
0.0026039882
0.0025901399
0.0025756428
0.0025604671
0.0025445876
0.0025279903
0.002510653
0.0024925514
0.002473662
0.0024539535
0.002433405
0.0024119841
0.0023896359
0.0023663236
0.0023420095
0.0023166459
0.0022901845
0.002262573
0.0022337524
0.0022036691
0.0021722451
0.0021393927
0.002105039
0.0020690937
0.0020314598
0.0019920308
0.0019506922
0.0019073197
0.0018617583
0.0018138439
0.0017634059
0.0017102449
0.0016541383
0.0015948438
0.0015320564
0.0014654439
0.0013946164
0.0013205049
0.0012460288
0.0011733118
0.0011025255
0.0010333442
0.00096561136
0.00089926419
0.00083427991
0.00077067105
0.00070849082
0.00064785109
0.00058888851
0.00053178022
0.00047679646
0.00042428213
0.00037476408
0.00032881901
0.00028779165
0.00025231004
0.00022763254
0.00020828149
0.00034434073
-0.00031246436
0.010645066
0.010745771
0.010955253
0.011220634
0.01154441
0.011925954
0.012362595
0.012853744
0.013401031
0.014007771
0.014678948
0.015421676
0.016245718
0.01716496
0.018197877
0.019373774
0.020727404
0.022336029
0.024251709
0.026772053
0.029793309
0.035049669
0.040057224
0.081112686
0.050519321
-0.00078587811
-0.0013425238
3.8400906e-05
0.00064926743
0.0011888795
0.0015409543
0.0018032896
0.0020003711
0.0021486356
0.0022617297
0.0023503964
0.002421419
0.0024790501
0.0025262379
0.0025654039
0.0025982113
0.0026257878
0.002649087
0.0026688541
0.0026856285
0.0026998172
0.0027117857
0.0027218298
0.0027301836
0.0027370205
0.0027424906
0.0027467257
0.0027498324
0.0027519135
0.0027530574
0.0027533163
0.0027527374
0.0027513715
0.0027492594
0.0027464355
0.0027429307
0.0027387799
0.0027339969
0.0027285833
0.0027225562
0.0027159278
0.0027087053
0.0027008954
0.0026925005
0.002683533
0.0026739867
0.0026638407
0.0026530967
0.0026417499
0.0026297915
0.0026172136
0.0026040043
0.0025901551
0.0025756574
0.002560481
0.002544601
0.002528003
0.0025106652
0.002492563
0.002473673
0.0024539641
0.0024334151
0.0024119937
0.0023896451
0.0023663324
0.0023420178
0.0023166539
0.0022901922
0.0022625803
0.0022337594
0.0022036757
0.0021722514
0.0021393987
0.0021050447
0.0020690991
0.002031465
0.0019920357
0.0019506969
0.0019073241
0.0018617624
0.0018138478
0.0017634096
0.0017102484
0.0016541416
0.0015948469
0.0015320593
0.0014654467
0.001394619
0.0013205073
0.001246031
0.0011733139
0.0011025274
0.001033346
0.00096561305
0.00089926577
0.0008342814
0.00077067245
0.00070849215
0.00064785236
0.00058888971
0.00053178137
0.00047679756
0.00042428318
0.00037476508
0.00032881997
0.00028779258
0.00025231094
0.00022763345
0.00020828233
0.00034434172
-0.00031246376
0.010645066
0.010745772
0.010955253
0.011220635
0.011544411
0.011925955
0.012362596
0.012853745
0.013401033
0.014007774
0.014678952
0.015421681
0.016245724
0.017164969
0.018197888
0.01937379
0.020727425
0.02233606
0.024251751
0.026772125
0.029793406
0.035049864
0.040057358
0.08108796
0.05055823
-0.00076711116
-0.0013368595
4.1066722e-05
0.00065084965
0.0011899849
0.001541782
0.001803941
0.0020009003
0.0021490759
0.0022621031
0.0023507177
0.0024216988
0.0024792962
0.0025264562
0.0025655989
0.0025983866
0.0026259462
0.002649231
0.0026689854
0.0026857488
0.0026999277
0.0027118876
0.002721924
0.0027302709
0.0027371017
0.0027425662
0.0027467962
0.0027498984
0.0027519753
0.0027531154
0.0027533708
0.0027527886
0.0027514198
0.0027493049
0.0027464785
0.0027429713
0.0027388184
0.0027340334
0.0027286178
0.0027225889
0.0027159589
0.0027087348
0.0027009234
0.0026925272
0.0026835584
0.0026740109
0.0026638637
0.0026531186
0.0026417709
0.0026298115
0.0026172327
0.0026040224
0.0025901725
0.0025756739
0.0025604968
0.002544616
0.0025280174
0.0025106789
0.0024925761
0.0024736856
0.0024539761
0.0024334265
0.0024120047
0.0023896556
0.0023663424
0.0023420274
0.002316663
0.0022902008
0.0022625886
0.0022337673
0.0022036832
0.0021722586
0.0021394055
0.0021050511
0.0020691053
0.0020314709
0.0019920412
0.0019507021
0.0019073291
0.0018617672
0.0018138523
0.0017634139
0.0017102524
0.0016541454
0.0015948505
0.0015320626
0.0014654498
0.0013946219
0.00132051
0.0012460335
0.0011733162
0.0011025296
0.001033348
0.00096561496
0.00089926757
0.00083428309
0.00077067406
0.00070849367
0.0006478538
0.00058889108
0.00053178267
0.0004767988
0.00042428437
0.00037476622
0.00032882107
0.00028779364
0.00025231197
0.00022763448
0.0002082833
0.00034434284
-0.00031246307
0.010645066
0.010745772
0.010955254
0.011220636
0.011544412
0.011925956
0.012362598
0.012853747
0.013401036
0.014007777
0.014678957
0.015421686
0.016245732
0.017164979
0.018197902
0.019373808
0.02072745
0.022336096
0.0242518
0.026772208
0.029793518
0.03505009
0.040057523
0.081058618
0.050599545
-0.00074596204
-0.0013304761
4.4074623e-05
0.00065263834
0.0011912344
0.001542718
0.0018046777
0.0020014989
0.0021495741
0.0022625256
0.0023510814
0.0024220155
0.0024795747
0.0025267033
0.0025658197
0.0025985851
0.0026261257
0.002649394
0.0026691342
0.002685885
0.002700053
0.0027120031
0.0027220308
0.00273037
0.0027371937
0.0027426519
0.0027468763
0.0027499732
0.0027520454
0.0027531812
0.0027534326
0.0027528468
0.0027514746
0.0027493566
0.0027465273
0.0027430175
0.002738862
0.0027340747
0.002728657
0.0027226261
0.0027159942
0.0027087683
0.0027009553
0.0026925575
0.0026835873
0.0026740384
0.0026638899
0.0026531436
0.0026417946
0.0026298342
0.0026172543
0.0026040431
0.0025901922
0.0025756927
0.0025605147
0.0025446332
0.0025280338
0.0025106946
0.002492591
0.0024736999