/*--------------------------------*- C++ -*----------------------------------*\
| =========                 |                                                 |
| \\      /  F ield         | OpenFOAM: The Open Source CFD Toolbox           |
|  \\    /   O peration     | Version:  2206                                  |
|   \\  /    A nd           | Website:  www.openfoam.com                      |
|    \\/     M anipulation  |                                                 |
\*---------------------------------------------------------------------------*/
FoamFile
{
    version     2.0;
    format      ascii;
    arch        "LSB;label=32;scalar=64";
    class       surfaceScalarField;
    location    "600";
    object      phi;
}
// * * * * * * * * * * * * * * * * * * * * * * * * * * * * * * * * * * * * * //

dimensions      [0 3 -1 0 0 0 0];

oriented        oriented;

internalField   nonuniform List<scalar> 
25880
(
2.004647e-06
7.1527681e-12
2.0046314e-06
1.5565539e-11
2.0046133e-06
1.8178284e-11
2.0045928e-06
2.045335e-11
2.004569e-06
2.3816246e-11
2.0045413e-06
2.7725265e-11
2.004509e-06
3.2268416e-11
2.0044713e-06
3.7711855e-11
2.004427e-06
4.4301831e-11
2.0043747e-06
5.2322619e-11
2.0043125e-06
6.2157948e-11
2.0042381e-06
7.4391812e-11
2.0041483e-06
8.9779232e-11
2.0040386e-06
1.0976726e-10
2.0039029e-06
1.3569144e-10
2.0037303e-06
1.726043e-10
2.0035097e-06
2.2052559e-10
2.0032038e-06
3.0594552e-10
2.0028039e-06
3.9991643e-10
2.0021239e-06
6.7995725e-10
2.0012666e-06
8.573364e-10
1.9991817e-06
2.0848571e-09
1.9987819e-06
3.9984987e-10
1.0034298e-06
9.9535205e-07
4.5212894e-09
9.9890853e-07
2.2702184e-09
2.2510711e-09
1.7969456e-09
4.7327278e-10
1.5746422e-09
2.2230335e-10
1.4434366e-09
1.3120567e-10
1.3509299e-09
9.2506612e-11
1.2811357e-09
6.9794198e-11
1.2257335e-09
5.5402232e-11
1.1803301e-09
4.5403372e-11
1.1422111e-09
3.8119058e-11
1.1095852e-09
3.2625846e-11
1.081238e-09
2.8347238e-11
1.0563105e-09
2.4927531e-11
1.0341669e-09
2.2143579e-11
1.0143236e-09
1.9843237e-11
9.9640724e-10
1.7916402e-11
9.8012406e-10
1.6283182e-11
9.6523874e-10
1.4885324e-11
9.5156026e-10
1.3678474e-11
9.3893203e-10
1.2628233e-11
9.2722414e-10
1.1707892e-11
9.1632774e-10
1.0896397e-11
9.0615089e-10
1.017685e-11
8.9661538e-10
9.5355142e-12
8.8765418e-10
8.9612009e-12
8.7920941e-10
8.4447635e-12
8.7123083e-10
7.978579e-12
8.6367459e-10
7.5562386e-12
8.5650226e-10
7.1723386e-12
8.4967999e-10
6.8222635e-12
8.4317788e-10
6.5021112e-12
8.3696923e-10
6.2086478e-12
8.3103026e-10
5.9389765e-12
8.2533969e-10
5.6905667e-12
8.1987838e-10
5.4613124e-12
8.1462906e-10
5.2493198e-12
8.0957617e-10
5.0528922e-12
8.0470563e-10
4.8705343e-12
8.0000462e-10
4.7010136e-12
7.9546138e-10
4.543237e-12
7.910652e-10
4.3961756e-12
7.8680629e-10
4.2589192e-12
7.8267561e-10
4.1306705e-12
7.7866489e-10
4.0107227e-12
7.7476647e-10
3.8984187e-12
7.7097336e-10
3.7931148e-12
7.6727906e-10
3.694299e-12
7.6367748e-10
3.6015748e-12
7.6016298e-10
3.5145078e-12
7.567303e-10
3.4326765e-12
7.5337457e-10
3.3557302e-12
7.5009122e-10
3.2833518e-12
7.4687596e-10
3.2152618e-12
7.4372478e-10
3.1511771e-12
7.4063399e-10
3.0907879e-12
7.376001e-10
3.0338878e-12
7.3461976e-10
2.9803456e-12
7.316898e-10
2.9299602e-12
7.2880727e-10
2.8825253e-12
7.2596939e-10
2.8378859e-12
7.2317349e-10
2.7958988e-12
7.2041705e-10
2.7564356e-12
7.1769767e-10
2.7193799e-12
7.1501313e-10
2.6845394e-12
7.1236132e-10
2.6518112e-12
7.0974013e-10
2.6211896e-12
7.0714757e-10
2.5925621e-12
7.0458175e-10
2.5658172e-12
7.0204087e-10
2.5408774e-12
6.9952319e-10
2.5176837e-12
6.9702701e-10
2.4961833e-12
6.9455073e-10
2.476276e-12
6.9209285e-10
2.4578823e-12
6.8965185e-10
2.4409988e-12
6.8722625e-10
2.4255985e-12
6.8481463e-10
2.4116195e-12
6.8241562e-10
2.3990148e-12
6.8002786e-10
2.3877585e-12
6.7765004e-10
2.3778235e-12
6.7528089e-10
2.3691462e-12
6.7291919e-10
2.3616948e-12
6.7056371e-10
2.3554806e-12
6.6821325e-10
2.3504654e-12
6.6586666e-10
2.3465884e-12
6.6352289e-10
2.3437677e-12
6.6118098e-10
2.3419136e-12
6.5884073e-10
2.3402444e-12
6.5650081e-10
2.3399269e-12
6.5416764e-10
2.3331641e-12
6.519519e-10
2.2157402e-12
6.4990283e-10
2.0490684e-12
6.4800344e-10
1.8993897e-12
6.4623792e-10
1.7655208e-12
6.4459133e-10
1.6465916e-12
6.4305065e-10
1.5406807e-12
6.4160494e-10
1.4457138e-12
6.4024486e-10
1.3600791e-12
6.3896232e-10
1.2825351e-12
6.3775025e-10
1.2120759e-12
6.3660238e-10
1.1478673e-12
6.3551314e-10
1.0892399e-12
6.3447747e-10
1.035671e-12
6.3349067e-10
9.8680419e-13
6.3254836e-10
9.4230491e-13
6.3164596e-10
9.0240028e-13
6.3077947e-10
8.66492e-13
6.2994119e-10
8.3827952e-13
6.2913112e-10
8.1006485e-13
6.2832052e-10
8.1060451e-13
6.2756281e-10
7.5770824e-13
6.2668603e-10
8.7678156e-13
5.3979005e-13
2.0345207e-06
1.4494994e-11
2.0345047e-06
3.1552185e-11
2.0344861e-06
3.6857668e-11
2.034465e-06
4.1472011e-11
2.0344406e-06
4.8288692e-11
2.0344121e-06
5.6210813e-11
2.0343789e-06
6.5416537e-11
2.0343402e-06
7.6444967e-11
2.0342947e-06
8.9794688e-11
2.034241e-06
1.0604114e-10
2.0341772e-06
1.2596103e-10
2.0341008e-06
1.5073639e-10
2.0340087e-06
1.8189527e-10
2.0338961e-06
2.2236645e-10
2.033757e-06
2.748522e-10
2.03358e-06
3.495782e-10
2.0333539e-06
4.4658042e-10
2.0330404e-06
6.1946825e-10
2.0326307e-06
8.0964151e-10
2.0319343e-06
1.376315e-09
2.0310563e-06
1.735349e-09
2.0289216e-06
4.219576e-09
2.0285102e-06
8.1127104e-10
1.0248934e-06
1.9989688e-06
1.3794456e-08
2.0100075e-06
6.9445057e-09
9.1010216e-09
5.4962005e-09
1.921578e-09
4.8157301e-09
9.0277374e-10
4.4140447e-09
5.3289102e-10
4.1308342e-09
3.7571717e-10
3.9171559e-09
2.8347243e-10
3.7475385e-09
2.2501968e-10
3.6085319e-09
1.8440995e-10
3.4918259e-09
1.5482503e-10
3.3919373e-09
1.3251447e-10
3.3051475e-09
1.1513709e-10
3.2288268e-09
1.0124819e-10
3.161029e-09
8.9941383e-11
3.1002736e-09
8.0598686e-11
3.045417e-09
7.2772955e-11
2.9955605e-09
6.6139708e-11
2.9499834e-09
6.0462348e-11
2.9081012e-09
5.5560741e-11
2.8694342e-09
5.1295179e-11
2.8335849e-09
4.755719e-11
2.8002201e-09
4.4261264e-11
2.7690581e-09
4.1338773e-11
2.7398597e-09
3.8733928e-11
2.7124196e-09
3.6401288e-11
2.6865607e-09
3.4303705e-11
2.6621291e-09
3.241022e-11
2.6389905e-09
3.0694806e-11
2.6170273e-09
2.9135514e-11
2.596136e-09
2.7713603e-11
2.5762249e-09
2.6413221e-11
2.5572123e-09
2.5221234e-11
2.5390254e-09
2.4125881e-11
2.5215991e-09
2.3116884e-11
2.5048747e-09
2.2185684e-11
2.4887994e-09
2.1324595e-11
2.4733256e-09
2.0526724e-11
2.4584101e-09
1.9786e-11
2.4440137e-09
1.9097414e-11
2.4301004e-09
1.8456528e-11
2.4166374e-09
1.7859164e-11
2.4035947e-09
1.7301624e-11
2.3909447e-09
1.6780671e-11
2.378662e-09
1.6293434e-11
2.3667232e-09
1.5837244e-11
2.3551068e-09
1.5409486e-11
2.343793e-09
1.5008082e-11
2.3327632e-09
1.4631421e-11
2.322e-09
1.4277737e-11
2.3114873e-09
1.3945321e-11
2.3012103e-09
1.3632747e-11
2.2911549e-09
1.3338727e-11
2.2813081e-09
1.3062127e-11
2.2716574e-09
1.2801796e-11
2.2621918e-09
1.2556476e-11
2.2529003e-09
1.232533e-11
2.2437728e-09
1.2107822e-11
2.2347997e-09
1.1903139e-11
2.2259717e-09
1.1710441e-11
2.2172805e-09
1.1529099e-11
2.2087179e-09
1.1358531e-11
2.2002761e-09
1.1198216e-11
2.1919478e-09
1.1047682e-11
2.1837262e-09
1.0906147e-11
2.1756048e-09
1.0773193e-11
2.1675772e-09
1.0648798e-11
2.1596373e-09
1.0532503e-11
2.1517792e-09
1.0423858e-11
2.1439976e-09
1.0322547e-11
2.1362869e-09
1.0228329e-11
2.1286421e-09
1.0140993e-11
2.1210583e-09
1.0060129e-11
2.1135307e-09
9.9854152e-12
2.1060549e-09
9.9168386e-12
2.0986262e-09
9.8542891e-12
2.0912403e-09
9.7975152e-12
2.083893e-09
9.7463269e-12
2.0765801e-09
9.7006187e-12
2.0692977e-09
9.6602807e-12
2.0620418e-09
9.6250549e-12
2.0548086e-09
9.5948126e-12
2.0475945e-09
9.5695996e-12
2.0403957e-09
9.5492614e-12
2.0332088e-09
9.5335513e-12
2.0260304e-09
9.5221372e-12
2.0188577e-09
9.5146559e-12
2.01169e-09
9.507938e-12
2.0045232e-09
9.5067093e-12
1.997377e-09
9.4793861e-12
1.9905901e-09
9.0026041e-12
1.9843134e-09
8.3257213e-12
1.978495e-09
7.7178126e-12
1.9730865e-09
7.1740776e-12
1.9680421e-09
6.69099e-12
1.963322e-09
6.2607599e-12
1.9588927e-09
5.8749713e-12
1.9547257e-09
5.5270827e-12
1.9507962e-09
5.2120538e-12
1.9470825e-09
4.9258004e-12
1.9435654e-09
4.6649363e-12
1.9402279e-09
4.4267425e-12
1.9370545e-09
4.2090966e-12
1.9340307e-09
4.0105522e-12
1.9311433e-09
3.8297501e-12
1.9283781e-09
3.6676137e-12
1.9257229e-09
3.5217128e-12
1.9231541e-09
3.4070745e-12
1.9206717e-09
3.2924309e-12
1.9181877e-09
3.2946103e-12
1.9158663e-09
3.0790587e-12
1.9131758e-09
3.5673096e-12
2.1884525e-12
2.0947134e-06
2.2163063e-11
2.0946967e-06
4.8260465e-11
2.0946772e-06
5.639296e-11
2.0946552e-06
6.3455732e-11
2.0946296e-06
7.388202e-11
2.0945998e-06
8.5996274e-11
2.0945652e-06
1.0007052e-10
2.0945247e-06
1.1692859e-10
2.0944771e-06
1.3733204e-10
2.094421e-06
1.6215957e-10
2.0943544e-06
1.9259708e-10
2.0942747e-06
2.3044934e-10
2.0941785e-06
2.7804915e-10
2.094061e-06
3.3986793e-10
2.0939158e-06
4.200299e-10
2.0937313e-06
5.3414619e-10
2.0934956e-06
6.8226381e-10
2.0931688e-06
9.4622165e-10
2.0927419e-06
1.2365255e-09
2.0920168e-06
2.1014795e-09
2.0911025e-06
2.649641e-09
2.08888e-06
6.4420578e-09
2.08845e-06
1.2413029e-09
1.0620213e-06
3.0253975e-06
2.3849505e-08
3.0481793e-06
1.2030257e-08
2.0920271e-08
9.5196592e-09
4.4321754e-09
8.3398093e-09
2.0826236e-09
7.6431761e-09
1.2295242e-09
7.1520114e-09
8.6688185e-10
6.7814259e-09
6.5405788e-10
6.4872519e-09
5.1919366e-10
6.2461637e-09
4.2549822e-10
6.0437496e-09
3.5723908e-10
5.8705009e-09
3.0576321e-10
5.7199685e-09
2.6566949e-10
5.587592e-09
2.3362464e-10
5.4699962e-09
2.075372e-10
5.3646136e-09
1.8598133e-10
5.2694611e-09
1.6792539e-10
5.1829801e-09
1.5262074e-10
5.103921e-09
1.3952149e-10
5.0312697e-09
1.2821204e-10
4.9641948e-09
1.1837007e-10
4.9020066e-09
1.0974532e-10
4.8441274e-09
1.021405e-10
4.7900689e-09
9.5397266e-11
4.7394159e-09
8.9386915e-11
4.6918126e-09
8.40046e-11
4.6469517e-09
7.9164618e-11
4.6045664e-09
7.4795541e-11
4.5644239e-09
7.0837318e-11
4.5263201e-09
6.7239315e-11
4.4900754e-09
6.3958286e-11
4.4555309e-09
6.0957661e-11
4.4225451e-09
5.8207127e-11
4.3909914e-09
5.567957e-11
4.360757e-09
5.3351263e-11
4.3317402e-09
5.1202455e-11
4.3038494e-09
4.921542e-11
4.2770019e-09
4.7374253e-11
4.2511229e-09
4.5664943e-11
4.2261444e-09
4.4075938e-11
4.2020039e-09
4.2596994e-11
4.1786446e-09
4.1218474e-11
4.1560144e-09
3.9931847e-11
4.1340654e-09
3.872964e-11
4.1127536e-09
3.7605232e-11
4.0920384e-09
3.6552465e-11
4.0718826e-09
3.5565307e-11
4.0522517e-09
3.4638958e-11
4.0331134e-09
3.3769701e-11
4.0144377e-09
3.295347e-11
3.9961967e-09
3.2186313e-11
3.9783645e-09
3.1464944e-11
3.9609168e-09
3.0786391e-11
3.9438309e-09
3.0148035e-11
3.9270855e-09
2.9547224e-11
3.9106609e-09
2.8981055e-11
3.8945387e-09
2.8447591e-11
3.8787009e-09
2.7945604e-11
3.8631308e-09
2.7473211e-11
3.8478128e-09
2.7028478e-11
3.8327319e-09
2.6609953e-11
3.8178742e-09
2.6216294e-11
3.8032261e-09
2.5846298e-11
3.7887749e-09
2.5498874e-11
3.7745088e-09
2.5172221e-11
3.7604166e-09
2.4865375e-11
3.7464871e-09
2.4578281e-11
3.7327098e-09
2.4309886e-11
3.7190745e-09
2.4059147e-11
3.7055717e-09
2.3825337e-11
3.6921921e-09
2.3607904e-11
3.6789267e-09
2.3406353e-11
3.6657671e-09
2.3219745e-11
3.6527052e-09
2.3047336e-11
3.639733e-09
2.2889096e-11
3.6268425e-09
2.2744772e-11
3.6140262e-09
2.2613782e-11
3.6012768e-09
2.2495691e-11
3.5885872e-09
2.2390255e-11
3.5759503e-09
2.229722e-11
3.5633593e-09
2.2215992e-11
3.5508079e-09
2.2146275e-11
3.5382893e-09
2.2088175e-11
3.5257972e-09
2.2041337e-11
3.5133256e-09
2.2005193e-11
3.5008687e-09
2.1978978e-11
3.4884215e-09
2.1961857e-11
3.4759829e-09
2.1946533e-11
3.4635458e-09
2.1943871e-11
3.4511439e-09
2.1881236e-11
3.439365e-09
2.0781539e-11
3.4284708e-09
1.9219923e-11
3.4183713e-09
1.7817317e-11
3.4089827e-09
1.6562668e-11
3.4002258e-09
1.5447866e-11
3.3920316e-09
1.4454979e-11
3.384342e-09
1.3564611e-11
3.3771074e-09
1.2761683e-11
3.3702848e-09
1.2034571e-11
3.3638368e-09
1.1373857e-11
3.35773e-09
1.077173e-11
3.3519348e-09
1.0221919e-11
3.3464244e-09
9.7195279e-12
3.3411737e-09
9.2612214e-12
3.3361596e-09
8.8438646e-12
3.3313576e-09
8.4695906e-12
3.3267465e-09
8.1327964e-12
3.3222855e-09
7.868152e-12
3.3179744e-09
7.6035381e-12
3.3136604e-09
7.6085266e-12
3.3096292e-09
7.1102665e-12
3.3049538e-09
8.2427813e-12
5.0480513e-12
2.1861221e-06
3.0305766e-11
2.1861043e-06
6.6019024e-11
2.1860835e-06
7.7173022e-11
2.1860602e-06
8.6842794e-11
2.1860329e-06
1.0110553e-10
2.1860013e-06
1.1767277e-10
2.1859644e-06
1.3691583e-10
2.1859214e-06
1.5996044e-10
2.1858709e-06
1.8784672e-10
2.1858112e-06
2.2177432e-10
2.1857405e-06
2.6336212e-10
2.1856559e-06
3.150738e-10
2.1855538e-06
3.8009333e-10
2.1854292e-06
4.6452418e-10
2.1852752e-06
5.7399338e-10
2.1850795e-06
7.2980882e-10
2.1848298e-06
9.3202146e-10
2.1844837e-06
1.2923272e-09
2.1840317e-06
1.6885215e-09
2.1832643e-06
2.8688376e-09
2.1822969e-06
3.6170787e-09
2.1799458e-06
8.7931187e-09
2.1794886e-06
1.6984993e-09
1.1156776e-06
4.0892086e-06
3.5279544e-08
4.1285773e-06
1.7828537e-08
3.8371278e-08
1.4104187e-08
8.1565257e-09
1.235346e-08
3.83335e-09
1.1319428e-08
2.263556e-09
1.0590381e-08
1.5959293e-09
1.0040291e-08
1.2041478e-09
9.6036148e-09
9.5587001e-10
9.2457306e-09
7.8338239e-10
8.9452488e-09
6.5772087e-10
8.6880564e-09
5.6295564e-10
8.4645813e-09
4.8914458e-10
8.2680547e-09
4.3015126e-10
8.0934667e-09
3.8212513e-10
7.9370069e-09
3.4244118e-10
7.795732e-09
3.0920029e-10
7.6673285e-09
2.8102427e-10
7.5499417e-09
2.5690821e-10
7.4420667e-09
2.3608704e-10
7.3424694e-09
2.1796739e-10
7.2501262e-09
2.0208854e-10
7.1641794e-09
1.8808732e-10
7.0839044e-09
1.7567226e-10
7.0086849e-09
1.646064e-10
6.9379928e-09
1.5469673e-10
6.8713719e-09
1.4578549e-10
6.8084263e-09
1.3774118e-10
6.7488103e-09
1.3045326e-10
6.6922211e-09
1.2382851e-10
6.6383921e-09
1.1778733e-10
6.5870874e-09
1.1226238e-10
6.5380967e-09
1.0719785e-10
6.4912324e-09
1.0254385e-10
6.446327e-09
9.8256685e-11
6.4032294e-09
9.4299989e-11
6.3618037e-09
9.0641139e-11
6.3219271e-09
8.7250851e-11
6.2834887e-09
8.410333e-11
6.2463874e-09
8.1177305e-11
6.2105304e-09
7.8453922e-11
6.1758335e-09
7.5915437e-11
6.1422192e-09
7.3546146e-11
6.1096165e-09
7.1332291e-11
6.0779601e-09
6.9261682e-11
6.0471896e-09
6.7322982e-11
6.0172498e-09
6.5505086e-11
5.9880896e-09
6.3799155e-11
5.9596609e-09
6.2198346e-11
5.9319192e-09
6.0695175e-11
5.9048232e-09
5.9282367e-11
5.8783342e-09
5.7953871e-11
5.8524164e-09
5.6704216e-11
5.8270359e-09
5.5528581e-11
5.802161e-09
5.4422083e-11
5.7777627e-09
5.3379377e-11
5.7538134e-09
5.2396897e-11
5.7302866e-09
5.147238e-11
5.7071575e-09
5.0602363e-11
5.6844026e-09
4.9783287e-11
5.6620001e-09
4.9012473e-11
5.639929e-09
4.8287457e-11
5.6181692e-09
4.760602e-11
5.596702e-09
4.6966154e-11
5.5755096e-09
4.6364547e-11
5.5545756e-09
4.5799422e-11
5.5338832e-09
4.5270678e-11
5.5134167e-09
4.4776377e-11
5.4931612e-09
4.43146e-11
5.4731026e-09
4.3884009e-11
5.4532269e-09
4.3483586e-11
5.4335208e-09
4.3112424e-11
5.4139718e-09
4.2768793e-11
5.3945678e-09
4.2451323e-11
5.3752969e-09
4.2159961e-11
5.3561475e-09
4.1894242e-11
5.3371081e-09
4.1653097e-11
5.3181681e-09
4.1435723e-11
5.2993167e-09
4.1241673e-11
5.2805434e-09
4.1070483e-11
5.2618384e-09
4.0921059e-11
5.2431918e-09
4.0792857e-11
5.2245939e-09
4.0686076e-11
5.2060351e-09
4.0600063e-11
5.1875066e-09
4.0533777e-11
5.1689997e-09
4.0485815e-11
5.1505069e-09
4.0454641e-11
5.1320266e-09
4.0426865e-11
5.1135481e-09
4.0422393e-11
5.0951212e-09
4.0308083e-11
5.0776184e-09
3.8284429e-11
5.0614285e-09
3.5409798e-11
5.0464182e-09
3.2827575e-11
5.0324634e-09
3.0517466e-11
5.0194467e-09
2.8464615e-11
5.0072655e-09
2.6636108e-11
4.9958339e-09
2.49963e-11
4.9850781e-09
2.3517455e-11
4.9749345e-09
2.2178191e-11
4.9653471e-09
2.0961179e-11
4.9562668e-09
1.9852048e-11
4.9476495e-09
1.8839255e-11
4.9394552e-09
1.791379e-11
4.9316469e-09
1.7069518e-11
4.9241901e-09
1.6300672e-11
4.9170485e-09
1.5611185e-11
4.9101906e-09
1.4990757e-11
4.9035555e-09
1.4503208e-11
4.8971432e-09
1.401585e-11
4.8907268e-09
1.4024961e-11
4.8847306e-09
1.3106388e-11
4.877774e-09
1.5199384e-11
9.2994793e-12
2.3101089e-06
3.9089561e-11
2.3100897e-06
8.5196677e-11
2.3100673e-06
9.9635423e-11
2.310042e-06
1.1212655e-10
2.3100125e-06
1.3053227e-10
2.3099783e-06
1.5190502e-10
2.3099385e-06
1.7672269e-10
2.309892e-06
2.0643611e-10
2.3098375e-06
2.4238503e-10
2.3097732e-06
2.8611396e-10
2.3096968e-06
3.3970687e-10
2.3096055e-06
4.063352e-10
2.3094955e-06
4.9009687e-10
2.3093612e-06
5.9884804e-10
2.3091954e-06
7.3982789e-10
2.3089847e-06
9.4046152e-10
2.308716e-06
1.2007942e-09
2.3083437e-06
1.6645772e-09
2.3078578e-06
2.1744422e-09
2.3070334e-06
3.6931906e-09
2.3059942e-06
4.6563069e-09
2.3034695e-06
1.1317829e-08
2.3029755e-06
2.1924868e-09
1.18701e-06
5.2051741e-06
4.8754287e-08
5.266833e-06
2.4682088e-08
6.2443477e-08
1.9519095e-08
1.3319519e-08
1.7091293e-08
6.2611517e-09
1.565679e-08
3.6980594e-09
1.4645388e-08
2.607331e-09
1.3882213e-08
1.9673227e-09
1.3276363e-08
1.5617195e-09
1.2779814e-08
1.2799321e-09
1.2362893e-08
1.0746419e-09
1.2006024e-08
9.1982443e-10
1.1695929e-08
7.9923956e-10
1.1423218e-08
7.0286232e-10
1.1180941e-08
6.2440162e-10
1.0963814e-08
5.5956897e-10
1.0767752e-08
5.0526196e-10
1.0589547e-08
4.5922911e-10
1.0426627e-08
4.1982877e-10
1.0276902e-08
3.8581116e-10
1.0138663e-08
3.5620689e-10
1.0010488e-08
3.3026335e-10
9.8911882e-09
3.0738727e-10
9.7797579e-09
2.871025e-10
9.6753424e-09
2.6902192e-10
9.5772089e-09
2.5283021e-10
9.4847247e-09
2.3826967e-10
9.3973404e-09
2.2512548e-10
9.3145766e-09
2.1321706e-10
9.236013e-09
2.0239211e-10
9.1612798e-09
1.9252059e-10
9.0900497e-09
1.8349247e-10
9.0220309e-09
1.7521659e-10
8.9569633e-09
1.6761147e-10
8.8946143e-09
1.6060572e-10
8.8347744e-09
1.5413988e-10
8.7772548e-09
1.481607e-10
8.7218854e-09
1.4262032e-10
8.6685121e-09
1.374766e-10
8.6169946e-09
1.3269478e-10
8.5672045e-09
1.2824407e-10
8.5190244e-09
1.2409548e-10
8.4723472e-09
1.2022334e-10
8.4270743e-09
1.1660519e-10
8.3831149e-09
1.1322111e-10
8.3403853e-09
1.1005258e-10
8.2988089e-09
1.0708144e-10
8.2583148e-09
1.0429326e-10
8.2188363e-09
1.0167686e-10
8.1803115e-09
9.9220012e-11
8.142683e-09
9.6910832e-11
8.1058975e-09
9.4739432e-11
8.0699048e-09
9.2696875e-11
8.0346581e-09
9.0775283e-11
8.0001135e-09
8.8966678e-11
7.9662306e-09
8.7262328e-11
7.932971e-09
8.5656406e-11
7.9002982e-09
8.4145215e-11
7.8681775e-09
8.27231e-11
7.8365765e-09
8.1384244e-11
7.8054647e-09
8.0124273e-11
7.774813e-09
7.8939159e-11
7.7445938e-09
7.7825281e-11
7.7147806e-09
7.6779351e-11
7.6853491e-09
7.5795963e-11
7.6562763e-09
7.4872221e-11
7.6275391e-09
7.4007951e-11
7.5991155e-09
7.3199992e-11
7.5709848e-09
7.2445208e-11
7.5431274e-09
7.1741416e-11
7.5155241e-09
7.1086954e-11
7.4881562e-09
7.0480341e-11
7.4610062e-09
6.991875e-11
7.4340576e-09
6.9399943e-11
7.4072937e-09
6.8923842e-11
7.3806982e-09
6.8489684e-11
7.3542556e-09
6.8095726e-11
7.3279507e-09
6.7740658e-11
7.3017686e-09
6.7423753e-11
7.2756948e-09
6.7144255e-11
7.2497155e-09
6.6900379e-11
7.2238171e-09
6.6691239e-11
7.197986e-09
6.6517167e-11
7.172209e-09
6.6377102e-11
7.1464734e-09
6.6269348e-11
7.1207676e-09
6.6191623e-11
7.0950808e-09
6.6141424e-11
7.0694107e-09
6.6096968e-11
7.0437426e-09
6.6090566e-11
7.0181447e-09
6.5905925e-11
6.9938275e-09
6.2601649e-11
6.9713314e-09
5.7905856e-11
6.9504719e-09
5.3687082e-11
6.9310771e-09
4.9912278e-11
6.9129844e-09
4.6557365e-11
6.8960517e-09
4.356876e-11
6.8801597e-09
4.0888354e-11
6.8652062e-09
3.8470898e-11
6.8511029e-09
3.6281492e-11
6.8377723e-09
3.4291847e-11
6.8251458e-09
3.2478497e-11
6.8131625e-09
3.0822593e-11
6.8017668e-09
2.9309424e-11
6.7909074e-09
2.7928978e-11
6.7805362e-09
2.667184e-11
6.7706029e-09
2.554445e-11
6.7610637e-09
2.4530016e-11
6.7518341e-09
2.3732797e-11
6.7429138e-09
2.2936188e-11
6.7339877e-09
2.2950985e-11
6.7256458e-09
2.1448324e-11
6.7159657e-09
2.4879483e-11
1.5212773e-11
2.4685216e-06
4.870485e-11
2.4685005e-06
1.0621677e-10
2.4684759e-06
1.2428394e-10
2.4684481e-06
1.3987523e-10
2.4684158e-06
1.6282197e-10
2.4683783e-06
1.8945778e-10
2.4683346e-06
2.2037652e-10
2.4682837e-06
2.5738418e-10
2.4682239e-06
3.0214739e-10
2.4681535e-06
3.5658647e-10
2.4680699e-06
4.2329201e-10
2.46797e-06
5.0620641e-10
2.4678497e-06
6.1042262e-10
2.4677028e-06
7.4570555e-10
2.4675216e-06
9.210477e-10
2.4672915e-06
1.1705349e-09
2.4669981e-06
1.4941937e-09
2.466592e-06
2.0706722e-09
2.4660622e-06
2.7042639e-09
2.4651641e-06
4.5912524e-09
2.4640321e-06
5.7883755e-09
2.4612829e-06
1.4067005e-08
2.4607411e-06
2.7343233e-09
1.2774868e-06
6.3884283e-06
6.5058834e-08
6.479261e-06
3.2995354e-08
9.4506958e-08
2.608167e-08
2.0233203e-08
2.2829349e-08
9.5134723e-09
2.090675e-08
5.6206587e-09
1.9551209e-08
3.9628723e-09
1.8528289e-08
2.990242e-09
1.7716205e-08
2.3738043e-09
1.7050596e-08
1.9455403e-09
1.6491702e-08
1.6335358e-09
1.6013289e-08
1.3982376e-09
1.5597562e-08
1.214967e-09
1.5231936e-08
1.0684879e-09
1.49071e-08
9.492382e-10
1.4615969e-08
8.5070006e-10
1.4353072e-08
7.6815854e-10
1.4114109e-08
6.981919e-10
1.3895633e-08
6.383053e-10
1.3694844e-08
5.8659938e-10
1.350945e-08
5.4160094e-10
1.3337548e-08
5.0216604e-10
1.3177542e-08
4.6739324e-10
1.3028085e-08
4.3655887e-10
1.2888033e-08
4.0907455e-10
1.2756402e-08
3.8446107e-10
1.2632345e-08
3.623268e-10
1.2515125e-08
3.4234529e-10
1.24041e-08
3.2424204e-10
1.2298706e-08
3.0778565e-10
1.2198449e-08
2.9277843e-10
1.2102888e-08
2.7905314e-10
1.2011633e-08
2.6647123e-10
1.1924336e-08
2.5490893e-10
1.1840684e-08
2.4425769e-10
1.1760397e-08
2.3442712e-10
1.1683221e-08
2.2533632e-10
1.1608929e-08
2.1691256e-10
1.1537314e-08
2.0909175e-10
1.1468187e-08
2.0182105e-10
1.1401378e-08
1.950537e-10
1.1336728e-08
1.8874562e-10
1.1274093e-08
1.8285782e-10
1.1213342e-08
1.7735612e-10
1.1154353e-08
1.7221027e-10
1.1097013e-08
1.673921e-10
1.1041221e-08
1.6287404e-10
1.098688e-08
1.586341e-10
1.0933902e-08
1.5465533e-10
1.0882202e-08
1.5091914e-10
1.0831706e-08
1.4740746e-10
1.078234e-08
1.4410527e-10
1.0734038e-08
1.4099897e-10
1.0686737e-08
1.380766e-10
1.0640377e-08
1.3532603e-10
1.0594906e-08
1.3273398e-10
1.055027e-08
1.3029159e-10
1.0506422e-08
1.2799326e-10
1.0463315e-08
1.2583038e-10
1.0420905e-08
1.2379412e-10
1.0379152e-08
1.2187782e-10
1.0338015e-08
1.2007537e-10
1.0297459e-08
1.1838126e-10
1.0257448e-08
1.1679049e-10
1.0217949e-08
1.1529484e-10
1.0178932e-08
1.1388994e-10
1.0140364e-08
1.1257549e-10
1.0102217e-08
1.1134671e-10
1.0064464e-08
1.1019883e-10
1.0027077e-08
1.0912852e-10
9.9900304e-09
1.0813328e-10
9.9532999e-09
1.0721085e-10
9.9168617e-09
1.0635692e-10
9.8806936e-09
1.0556811e-10
9.8447731e-09
1.0484431e-10
9.8090784e-09
1.0418435e-10
9.7735886e-09
1.0358559e-10
9.7382832e-09
1.0304604e-10
9.7031423e-09
1.0256461e-10
9.6681465e-09
1.0214014e-10
9.6332769e-09
1.0176993e-10
9.5985155e-09
1.0145265e-10
9.5638439e-09
1.011888e-10
9.5292442e-09
1.0097678e-10
9.4946995e-09
1.0081403e-10
9.460194e-09
1.0069709e-10
9.4257133e-09
1.0062219e-10
9.3912539e-09
1.0055637e-10
9.3567961e-09
1.0054835e-10
9.3224303e-09
1.0027172e-10
9.2897789e-09
9.5253021e-11
9.2595678e-09
8.8117002e-11
9.2315502e-09
8.1704669e-11
9.2054964e-09
7.5966012e-11
9.181189e-09
7.0864768e-11
9.1584379e-09
6.6319889e-11
9.137083e-09
6.2243287e-11
9.1169876e-09
5.85663e-11
9.0980331e-09
5.523595e-11
9.0801157e-09
5.2209283e-11
9.0631435e-09
4.9450658e-11
9.0470347e-09
4.693144e-11
9.0317148e-09
4.462929e-11
9.0171148e-09
4.2529007e-11
9.0031703e-09
4.0616302e-11
8.9898138e-09
3.8900991e-11
8.9769862e-09
3.7357622e-11
8.9645743e-09
3.6144644e-11
8.9525773e-09
3.4933179e-11
8.9405727e-09
3.49556e-11
8.9293525e-09
3.2668584e-11
8.9163304e-09
3.7901571e-11
2.3165389e-11
2.6637207e-06
5.9373599e-11
2.6636974e-06
1.2957468e-10
2.6636699e-06
1.5170994e-10
2.663639e-06
1.7075613e-10
2.6636031e-06
1.98749e-10
2.6635613e-06
2.312281e-10
2.6635128e-06
2.6891504e-10
2.6634562e-06
3.1400899e-10
2.6633898e-06
3.6853788e-10
2.6633115e-06
4.3483684e-10
2.6632188e-06
5.1605549e-10
2.663108e-06
6.1698679e-10
2.6629746e-06
7.4382096e-10
2.6628119e-06
9.0842831e-10
2.6626112e-06
1.1217323e-09
2.6623566e-06
1.4251645e-09
2.662032e-06
1.8187144e-09
2.6615832e-06
2.5195067e-09
2.660998e-06
3.2894918e-09
2.660007e-06
5.5822467e-09
2.6587579e-06
7.0374898e-09
2.6557259e-06
1.7098996e-08
2.6551232e-06
3.3369634e-09
1.3889411e-06
7.6546105e-06
8.5138101e-08
7.783064e-06
4.32581e-08
1.3638696e-07
3.4175462e-08
2.9315841e-08
2.9900847e-08
1.3788088e-08
2.7372514e-08
8.1489912e-09
2.5589882e-08
5.7455051e-09
2.4244566e-08
4.3355579e-09
2.3176475e-08
3.4418952e-09
2.2300989e-08
2.8210259e-09
2.1565826e-08
2.3686989e-09
2.0936493e-08
2.0275706e-09
2.0389591e-08
1.761869e-09
1.9908573e-08
1.5495061e-09
1.9481193e-08
1.3766177e-09
1.9098139e-08
1.2337548e-09
1.8752215e-08
1.1140821e-09
1.8437768e-08
1.0126392e-09
1.8150264e-08
9.258094e-10
1.7886024e-08
8.5083941e-10
1.7642031e-08
7.8559338e-10
1.7415784e-08
7.2841325e-10
1.7205185e-08
6.7799203e-10
1.7008463e-08
6.3328075e-10
1.6824111e-08
5.9342634e-10
1.6650838e-08
5.577341e-10
1.6487529e-08
5.2563632e-10
1.6333214e-08
4.9665976e-10
1.618705e-08
4.7040646e-10
1.6048295e-08
4.4654097e-10
1.5916296e-08
4.2477666e-10
1.5790479e-08
4.0487103e-10
1.5670327e-08
3.8662324e-10
1.5555382e-08
3.6985391e-10
1.5445234e-08
3.5440563e-10
1.5339513e-08
3.4014731e-10
1.5237888e-08
3.2696171e-10
1.5140057e-08
3.1474337e-10
1.504575e-08
3.0339934e-10
1.4954718e-08
2.9285302e-10
1.4866735e-08
2.8303662e-10
1.4781594e-08
2.7388625e-10
1.4699107e-08
2.6534535e-10
1.4619098e-08
2.5736439e-10
1.4541409e-08
2.4989948e-10
1.4465891e-08
2.4290983e-10
1.439241e-08
2.3635539e-10
1.432084e-08
2.302043e-10
1.4251063e-08
2.2443199e-10
1.4182971e-08
2.1901152e-10
1.4116462e-08
2.1391669e-10
1.4051441e-08
2.091257e-10
1.3987821e-08
2.0461886e-10
1.3925519e-08
2.0037881e-10
1.3864457e-08
1.9638796e-10
1.3804564e-08
1.9262706e-10
1.3745772e-08
1.8908326e-10
1.3688017e-08
1.8574843e-10
1.3631237e-08
1.8261012e-10
1.3575376e-08
1.796555e-10
1.3520379e-08
1.7687493e-10
1.3466195e-08
1.7425955e-10
1.3412775e-08
1.7180138e-10
1.3360072e-08
1.6949313e-10
1.3308044e-08
1.6732293e-10
1.3256649e-08
1.6528444e-10
1.3205848e-08
1.6337721e-10
1.31556e-08
1.6159432e-10
1.310587e-08
1.5992885e-10
1.3056623e-08
1.5837601e-10
1.3007824e-08
1.5693213e-10
1.2959441e-08
1.5559396e-10
1.2911442e-08
1.5435527e-10
1.2863799e-08
1.5321113e-10
1.2816482e-08
1.5216141e-10
1.2769462e-08
1.5120443e-10
1.2722711e-08
1.5033635e-10
1.2676203e-08
1.495543e-10
1.2629911e-08
1.488567e-10
1.2583809e-08
1.4824189e-10
1.2537873e-08
1.4770596e-10
1.2492079e-08
1.4724698e-10
1.2446402e-08
1.4686571e-10
1.2400819e-08
1.4655985e-10
1.2355307e-08
1.4632569e-10
1.2309846e-08
1.4615827e-10
1.2264416e-08
1.4605211e-10
1.2219013e-08
1.4595977e-10
1.217361e-08
1.4595117e-10
1.2128324e-08
1.4555713e-10
1.2085291e-08
1.3828689e-10
1.2045465e-08
1.2794272e-10
1.2008524e-08
1.1864544e-10
1.1974167e-08
1.1032292e-10
1.1942109e-08
1.0292318e-10
1.1912099e-08
9.6329408e-11
1.1883928e-08
9.0414289e-11
1.1857416e-08
8.5078481e-11
1.1832407e-08
8.0245283e-11
1.1808764e-08
7.5852496e-11
1.1786366e-08
7.184849e-11
1.1765105e-08
6.8191777e-11
1.1744885e-08
6.4849997e-11
1.1725613e-08
6.1801148e-11
1.1707204e-08
5.9024546e-11
1.1689571e-08
5.6534475e-11
1.1672634e-08
5.4294159e-11
1.1656246e-08
5.2533313e-11
1.1640403e-08
5.07757e-11
1.162455e-08
5.0808217e-11
1.1609732e-08
4.7487404e-11
1.1592531e-08
5.5102253e-11
3.3667811e-11
2.8986153e-06
7.1358703e-11
2.898589e-06
1.5585943e-10
2.8985581e-06
1.8261895e-10
2.8985233e-06
2.0556568e-10
2.8984828e-06
2.3923715e-10
2.8984357e-06
2.7828539e-10
2.8983811e-06
3.235743e-10
2.8983173e-06
3.7774364e-10
2.8982427e-06
4.4322543e-10
2.8981547e-06
5.2281815e-10
2.8980504e-06
6.2029542e-10
2.897926e-06
7.4139964e-10
2.8977763e-06
8.9354511e-10
2.8975938e-06
1.0909516e-09
2.8973688e-06
1.3466934e-09
2.8970836e-06
1.7103978e-09
2.8967203e-06
2.1819924e-09
2.8962183e-06
3.0215184e-09
2.8955642e-06
3.9436047e-09
2.8944578e-06
6.6886312e-09
2.8930634e-06
8.4319214e-09
2.8896805e-06
2.0481839e-08
2.8890016e-06
4.0158835e-09
1.5236237e-06
9.0199884e-06
1.1014973e-07
9.1965379e-06
5.6074007e-08
1.9046268e-07
4.4272382e-08
4.1117466e-08
3.8715168e-08
1.9345301e-08
3.5426114e-08
1.1438045e-08
3.3107095e-08
8.0645239e-09
3.1356821e-08
6.0858324e-09
2.996713e-08
4.8315867e-09
2.8827964e-08
3.9601914e-09
2.7871321e-08
3.3253415e-09
2.7052341e-08
2.846551e-09
2.6340587e-08
2.4736233e-09
2.5714535e-08
2.1755577e-09
2.5158259e-08
1.9328937e-09
2.4659645e-08
1.7323692e-09
2.4209336e-08
1.5643914e-09
2.3799976e-08
1.4219983e-09
2.3425671e-08
1.3001148e-09
2.3081634e-08
1.1948765e-09
2.2763942e-08
1.1032858e-09
2.2469339e-08
1.0230159e-09
2.2195099e-08
9.5223251e-10
2.1938916e-08
8.8946351e-10
2.1698831e-08
8.3351154e-10
2.1473163e-08
7.8340155e-10
2.1260463e-08
7.3833689e-10
2.1059469e-08
6.976534e-10
2.0869083e-08
6.6079253e-10
2.068834e-08
6.2728346e-10
2.0516393e-08
5.9672389e-10
2.0352491e-08
5.6877337e-10
2.0195964e-08
5.4315005e-10
2.0046216e-08
5.1960227e-10
1.9902712e-08
4.9790901e-10
1.9764973e-08
4.7788623e-10
1.9632566e-08
4.5936945e-10
1.9505098e-08
4.4221062e-10
1.9382218e-08
4.2627923e-10
1.9263604e-08
4.1146773e-10
1.9148959e-08
3.9768103e-10
1.9038016e-08
3.8482947e-10
1.8930528e-08
3.7283361e-10
1.8826268e-08
3.6162394e-10
1.8725029e-08
3.5113886e-10
1.8626618e-08
3.4132111e-10
1.8530859e-08
3.3211444e-10
1.8437589e-08
3.2347412e-10
1.8346655e-08
3.1536568e-10
1.8257915e-08
3.0775134e-10
1.8171238e-08
3.0059428e-10
1.8086499e-08
2.9386392e-10
1.8003586e-08
2.875326e-10
1.7922389e-08
2.8157596e-10
1.7842807e-08
2.7596932e-10
1.7764749e-08
2.7068564e-10
1.7688125e-08
2.6570688e-10
1.7612852e-08
2.6102164e-10
1.7538849e-08
2.5661245e-10
1.7466044e-08
2.5246131e-10
1.7394364e-08
2.4855467e-10
1.7323743e-08
2.4488009e-10
1.7254118e-08
2.4142639e-10
1.7185428e-08
2.3818332e-10
1.7117617e-08
2.3513423e-10
1.7050631e-08
2.3227023e-10
1.6984418e-08
2.2959071e-10
1.6918926e-08
2.2708591e-10
1.6854109e-08
2.2474617e-10
1.678992e-08
2.2256475e-10
1.6726315e-08
2.2053651e-10
1.6663253e-08
2.1865691e-10
1.6600691e-08
2.1691716e-10
1.6538591e-08
2.1531039e-10