/*--------------------------------*- C++ -*----------------------------------*\
| =========                 |                                                 |
| \\      /  F ield         | OpenFOAM: The Open Source CFD Toolbox           |
|  \\    /   O peration     | Version:  2206                                  |
|   \\  /    A nd           | Website:  www.openfoam.com                      |
|    \\/     M anipulation  |                                                 |
\*---------------------------------------------------------------------------*/
FoamFile
{
    version     2.0;
    format      ascii;
    arch        "LSB;label=32;scalar=64";
    class       volVectorField;
    location    "600";
    object      U;
}
// * * * * * * * * * * * * * * * * * * * * * * * * * * * * * * * * * * * * * //

dimensions      [0 1 -1 0 0 0 0];

internalField   nonuniform List<vector> 
13056
(
(1 8.8890264e-11 4.0130311e-25)
(0.99999329 2.1949957e-10 0)
(0.99998459 2.9085378e-10 0)
(0.9999752 3.7126993e-10 0)
(0.99996428 4.9031583e-10 0)
(0.99995155 6.470954e-10 0)
(0.99993675 8.5332658e-10 0)
(0.9999195 1.129129e-09 0)
(0.9998993 1.5003999e-09 0)
(0.99987551 2.0020308e-09 0)
(0.99984734 2.682901e-09 0)
(0.99981378 3.6149985e-09 0)
(0.99977347 4.8995297e-09 0)
(0.99972463 6.7063533e-09 0)
(0.99966448 9.2447654e-09 0)
(0.99958986 1.3049938e-08 0)
(0.99949313 1.8391602e-08 0)
(0.99937066 2.7941306e-08 0)
(0.99918975 3.9646563e-08 0)
(0.99897206 7.2427331e-08 0)
(0.99851716 9.6948685e-08 0)
(0.99811254 2.4696234e-07 0)
(0.996454 4.9517966e-08 -4.7854796e-21)
(0.99767846 0.00012435638 7.9133292e-18)
(0.0032066292 0.00012469449 0)
(0.0012955371 5.9500254e-08 -1.0616563e-20)
(0.00096805164 4.297311e-08 3.1676886e-18)
(0.00082413429 4.814856e-09 0)
(0.000746505 2.8248147e-09 0)
(0.00069334041 1.9738317e-09 0)
(0.00065427038 1.4762426e-09 0)
(0.00062374465 1.1612277e-09 0)
(0.00059902138 9.4271852e-10 0)
(0.00057846449 7.8385164e-10 0)
(0.00056100416 6.6425146e-10 0)
(0.00054592472 5.7126696e-10 0)
(0.00053273098 4.9709802e-10 0)
(0.00052106178 4.3683746e-10 0)
(0.00051064436 3.8714047e-10 0)
(0.00050126927 3.4559069e-10 0)
(0.00049277351 3.1043798e-10 0)
(0.00048502729 2.8040644e-10 0)
(0.00047792568 2.5452449e-10 0)
(0.00047138313 2.3203968e-10 0)
(0.00046532901 2.1236867e-10 0)
(0.0004597044 1.95052e-10 0)
(0.00045445967 1.7972082e-10 0)
(0.00044955275 1.6607564e-10 0)
(0.0004449477 1.5387286e-10 0)
(0.00044061361 1.429135e-10 0)
(0.00043652368 1.330318e-10 0)
(0.00043265458 1.2408854e-10 0)
(0.00042898591 1.1596661e-10 0)
(0.00042549974 1.0856613e-10 0)
(0.00042218026 1.018027e-10 -7.8695194e-26)
(0.00041901342 9.5604847e-11 0)
(0.00041598665 8.9911605e-11 0)
(0.00041308881 8.4668371e-11 0)
(0.00041030983 7.982787e-11 0)
(0.00040764065 7.5350474e-11 0)
(0.00040507313 7.1199622e-11 0)
(0.00040259989 6.7343287e-11 0)
(0.00040021426 6.375458e-11 0)
(0.00039791011 6.0409764e-11 0)
(0.00039568186 5.7286816e-11 0)
(0.0003935244 5.4366217e-11 0)
(0.00039143306 5.1630789e-11 0)
(0.00038940353 4.9065242e-11 0)
(0.00038743183 4.6655584e-11 0)
(0.00038551431 4.4388514e-11 0)
(0.00038364765 4.2252959e-11 0)
(0.0003818287 4.0239754e-11 0)
(0.00038005452 3.833959e-11 0)
(0.00037832241 3.6543723e-11 0)
(0.00037662986 3.4844606e-11 0)
(0.0003749745 3.3235373e-11 0)
(0.00037335413 3.1709864e-11 0)
(0.00037176668 3.0262147e-11 0)
(0.00037021023 2.8886317e-11 0)
(0.00036868301 2.7577779e-11 0)
(0.00036718331 2.6332802e-11 0)
(0.00036570949 2.5147166e-11 0)
(0.00036426004 2.4016831e-11 0)
(0.00036283353 2.2938382e-11 0)
(0.00036142859 2.1908663e-11 0)
(0.00036004394 2.0924795e-11 0)
(0.00035867836 1.9984068e-11 0)
(0.00035733066 1.9083424e-11 0)
(0.00035599981 1.8220637e-11 0)
(0.00035468474 1.7394153e-11 0)
(0.00035338442 1.66018e-11 0)
(0.00035209789 1.5841542e-11 0)
(0.00035082422 1.511165e-11 0)
(0.00034956254 1.4410591e-11 0)
(0.00034831199 1.3736943e-11 0)
(0.00034707173 1.3089074e-11 0)
(0.00034584101 1.2465596e-11 0)
(0.00034461907 1.1865584e-11 0)
(0.00034340516 1.1287989e-11 0)
(0.00034219854 1.0731665e-11 0)
(0.00034099854 1.0195612e-11 0)
(0.00033980446 9.678965e-12 0)
(0.00033861563 9.1808954e-12 0)
(0.00033743141 8.7004828e-12 0)
(0.00033625119 8.2369991e-12 0)
(0.00033507435 7.7899009e-12 0)
(0.00033390027 7.3584988e-12 0)
(0.00033272836 6.9420949e-12 0)
(0.00033155808 6.5400021e-12 0)
(0.00033038891 6.1515787e-12 0)
(0.00032922038 5.7746945e-12 0)
(0.00032805281 5.4117483e-12 0)
(0.00032688446 5.047113e-12 0)
(0.00032574988 4.6771522e-12 0)
(0.00032468841 4.3309969e-12 0)
(0.00032370557 4.0193134e-12 0)
(0.00032279343 3.7397965e-12 0)
(0.00032194415 3.4908983e-12 0)
(0.00032115066 3.2688721e-12 0)
(0.00032040704 3.0695368e-12 0)
(0.0003197083 2.8896076e-12 0)
(0.00031905012 2.7265396e-12 0)
(0.00031842874 2.5782655e-12 0)
(0.00031784086 2.4430635e-12 0)
(0.00031728354 2.3195504e-12 0)
(0.00031675415 2.2066521e-12 0)
(0.00031625027 2.1036409e-12 0)
(0.00031576963 2.0098357e-12 0)
(0.00031531016 1.9257339e-12 0)
(0.00031486933 1.8501497e-12 0)
(0.00031444568 1.7907961e-12 0)
(0.00031403299 1.7318875e-12 0)
(0.0003136375 1.733344e-12 0)
(0.00031322424 6.5936088e-12 0)
(0.00031288197 1.8558678e-12 1.9641183e-24)
(0.00031234718 4.7136272e-12 0)
(1 2.6959196e-10 0)
(0.99999321 6.6603622e-10 0)
(0.99998441 8.8278093e-10 0)
(0.99997489 1.1268973e-09 0)
(0.99996384 1.4881646e-09 0)
(0.99995095 1.9638747e-09 0)
(0.99993597 2.589551e-09 0)
(0.99991851 3.4261912e-09 0)
(0.99989807 4.5522973e-09 0)
(0.999874 6.0736224e-09 0)
(0.99984551 8.1383001e-09 0)
(0.99981157 1.0964479e-08 0)
(0.99977081 1.4858814e-08 0)
(0.99972144 2.0335943e-08 0)
(0.99966065 2.8029889e-08 0)
(0.99958525 3.9561878e-08 0)
(0.99948754 5.5748477e-08 0)
(0.99936386 8.4681998e-08 0)
(0.99918121 1.2014206e-07 0)
(0.99896148 2.1943276e-07 0)
(0.9985025 2.9372241e-07 0)
(0.99809417 7.4816463e-07 0)
(0.99642094 1.4823934e-07 1.7109035e-20)
(0.99765509 0.00037374876 -6.5563615e-21)
(0.0096308432 0.00037522681 0)
(0.0039050148 1.1967117e-06 0)
(0.0029175377 2.4496815e-07 5.8538264e-22)
(0.0024835735 1.1361437e-07 0)
(0.0022493895 6.647222e-08 0)
(0.0020890193 4.6444253e-08 0)
(0.0019711602 3.4716563e-08 0)
(0.0018790763 2.7295502e-08 0)
(0.0018044955 2.2150525e-08 0)
(0.0017424825 1.8410062e-08 0)
(0.0016898103 1.5594658e-08 0)
(0.0016443202 1.340629e-08 0)
(0.0016045183 1.1661179e-08 0)
(0.001569315 1.0243691e-08 0)
(0.0015378878 9.0749729e-09 0)
(0.0015096047 8.0981368e-09 0)
(0.0014839741 7.2719507e-09 0)
(0.0014606045 6.5663139e-09 0)
(0.0014391795 5.9583429e-09 0)
(0.0014194408 5.4303282e-09 0)
(0.0014011755 4.9685237e-09 0)
(0.0013842059 4.562097e-09 0)
(0.0013683822 4.202366e-09 0)
(0.0013535775 3.882287e-09 0)
(0.0013396835 3.5961261e-09 0)
(0.0013266069 3.3391931e-09 0)
(0.0013142669 3.107585e-09 0)
(0.001302593 2.8980276e-09 0)
(0.0012915238 2.7077633e-09 0)
(0.0012810051 2.534445e-09 0)
(0.0012709893 2.3760861e-09 0)
(0.001261434 2.2310257e-09 0)
(0.0012523013 2.0977942e-09 0)
(0.0012435575 1.9751119e-09 0)
(0.0012351723 1.8619001e-09 0)
(0.0012271184 1.7571992e-09 0)
(0.0012193712 1.6601564e-09 0)
(0.0012119084 1.5700224e-09 0)
(0.0012047099 1.4861646e-09 0)
(0.0011977573 1.4080223e-09 0)
(0.0011910336 1.3350786e-09 0)
(0.0011845235 1.2668762e-09 0)
(0.0011782129 1.2030111e-09 0)
(0.0011720888 1.1431243e-09 0)
(0.0011661392 1.0868864e-09 0)
(0.0011603531 1.0339876e-09 0)
(0.0011547204 9.8416796e-10 0)
(0.0011492316 9.3720991e-10 0)
(0.001143878 8.9289548e-10 0)
(0.0011386513 8.5102017e-10 0)
(0.0011335439 8.1140675e-10 0)
(0.0011285487 7.738942e-10 0)
(0.0011236592 7.3833782e-10 0)
(0.0011188689 7.0459881e-10 0)
(0.0011141722 6.7253943e-10 0)
(0.0011095637 6.4205126e-10 0)
(0.0011050382 6.1304646e-10 0)
(0.0011005908 5.854265e-10 0)
(0.001096217 5.590967e-10 0)
(0.0010919123 5.3397716e-10 0)
(0.0010876728 5.0999398e-10 0)
(0.0010834945 4.8707942e-10 0)
(0.0010793737 4.6517109e-10 0)
(0.0010753069 4.4419698e-10 0)
(0.0010712909 4.2410405e-10 0)
(0.0010673225 4.0485689e-10 0)
(0.0010633987 3.8640467e-10 0)
(0.0010595164 3.6869961e-10 0)
(0.001055673 3.5170141e-10 0)
(0.0010518657 3.3537427e-10 0)
(0.001048092 3.1968491e-10 0)
(0.0010443494 3.0459572e-10 0)
(0.0010406355 2.9007406e-10 0)
(0.0010369481 2.7609792e-10 0)
(0.0010332849 2.6264328e-10 0)
(0.0010296438 2.4968353e-10 0)
(0.0010260226 2.3719523e-10 0)
(0.0010224192 2.2515829e-10 0)
(0.0010188317 2.1355351e-10 0)
(0.0010152581 2.0235962e-10 0)
(0.0010116966 1.9155956e-10 0)
(0.0010081452 1.8114066e-10 0)
(0.0010046021 1.7108699e-10 0)
(0.0010010656 1.613823e-10 0)
(0.00099753397 1.5201047e-10 0)
(0.00099400567 1.4295672e-10 0)
(0.00099047929 1.341685e-10 0)
(0.00098695574 1.2570948e-10 0)
(0.00098342982 1.1717797e-10 0)
(0.00098000568 1.0846713e-10 0)
(0.00097680202 1.0031125e-10 0)
(0.00097383555 9.2986488e-11 0)
(0.00097108234 8.6434972e-11 0)
(0.00096851878 8.0614286e-11 0)
(0.00096612355 7.543052e-11 0)
(0.00096387881 7.0782252e-11 0)
(0.00096176947 6.6590658e-11 0)
(0.00095978252 6.2795e-11 0)
(0.00095790664 5.9346064e-11 0)
(0.00095613182 5.6203046e-11 0)
(0.00095444925 5.3333188e-11 0)
(0.00095285096 5.0710913e-11 0)
(0.00095132969 4.83188e-11 0)
(0.00094987853 4.6140472e-11 0)
(0.00094849124 4.4187061e-11 0)
(0.00094716024 4.2429297e-11 0)
(0.00094588108 4.1048274e-11 0)
(0.00094463504 3.9667221e-11 0)
(0.00094344086 3.9693957e-11 0)
(0.00094219315 3.7259152e-11 0)
(0.00094115956 4.2956666e-11 -3.0472315e-24)
(0.00093954469 2.6512052e-11 1.8688486e-25)
(1 4.5668582e-10 0)
(0.99999311 1.1285165e-09 0)
(0.99998418 1.4961867e-09 0)
(0.99997451 1.9100046e-09 0)
(0.99996328 2.5222057e-09 0)
(0.99995019 3.3282231e-09 0)
(0.99993497 4.3881887e-09 0)
(0.99991725 5.8053636e-09 0)
(0.9998965 7.7126211e-09 0)
(0.99987207 1.0288936e-08 0)
(0.99984317 1.3784981e-08 0)
(0.99980875 1.8569874e-08 0)
(0.99976742 2.5162432e-08 0)
(0.99971737 3.4433286e-08 0)
(0.99965576 4.7454846e-08 0)
(0.99957937 6.6969383e-08 0)
(0.99948041 9.4357108e-08 0)
(0.99935518 1.4330464e-07 0)
(0.99917033 2.0328554e-07 0)
(0.99894799 3.7120825e-07 0)
(0.99848384 4.9687698e-07 0)
(0.99807081 1.2655291e-06 0)
(0.99637897 2.5131653e-07 -9.064566e-21)
(0.99762529 0.00062689888 5.24596e-55)
(0.016159962 0.00063058214 -5.2454153e-55)
(0.0065709645 3.3945087e-06 0)
(0.0049083973 7.130089e-07 -3.0769157e-22)
(0.0041777139 3.327933e-07 0)
(0.0037832329 1.9473656e-07 0)
(0.0035131048 1.360627e-07 0)
(0.0033145743 1.0170649e-07 0)
(0.0031594599 7.9965882e-08 0)
(0.0030338273 6.489347e-08 0)
(0.0029293637 5.3935577e-08 0)
(0.0028406338 4.5687641e-08 0)
(0.0027640015 3.9276682e-08 0)
(0.0026969502 3.4164297e-08 0)
(0.002637645 3.0011698e-08 0)
(0.0025847001 2.6587866e-08 0)
(0.0025370513 2.3726155e-08 0)
(0.0024938705 2.1305773e-08 0)
(0.0024544981 1.9238538e-08 0)
(0.0024184012 1.7457413e-08 0)
(0.002385145 1.5910521e-08 0)
(0.0023543708 1.455759e-08 0)
(0.002325779 1.3366889e-08 0)
(0.0022991177 1.2312984e-08 0)
(0.002274173 1.137524e-08 0)
(0.0022507623 1.053686e-08 0)
(0.0022287287 9.7841049e-09 0)
(0.0022079358 9.1055406e-09 0)
(0.0021882652 8.4915751e-09 0)
(0.0021696132 7.9341308e-09 0)
(0.0021518887 7.4263318e-09 0)
(0.0021350113 6.9623575e-09 0)
(0.0021189098 6.5373425e-09 0)
(0.0021035202 6.1469833e-09 0)
(0.0020887859 5.7875298e-09 0)
(0.0020746557 5.455821e-09 0)
(0.0020610837 5.1490472e-09 0)
(0.0020480283 4.8647094e-09 0)
(0.0020354522 4.6006124e-09 0)
(0.0020233214 4.3549035e-09 0)
(0.0020116048 4.1259393e-09 0)
(0.002000274 3.9122064e-09 0)
(0.0019893031 3.7123642e-09 0)
(0.0019786682 3.5252301e-09 0)
(0.0019683476 3.3497514e-09 0)
(0.001958321 3.184964e-09 0)
(0.0019485699 3.0299596e-09 0)
(0.0019390773 2.8839771e-09 0)
(0.0019298273 2.7463787e-09 0)
(0.0019208049 2.6165261e-09 0)
(0.0019119964 2.4938202e-09 0)
(0.0019033889 2.3777416e-09 0)
(0.0018949706 2.2678186e-09 0)
(0.0018867303 2.1636274e-09 0)
(0.0018786573 2.0647612e-09 0)
(0.0018707419 1.9708166e-09 0)
(0.0018629751 1.8814759e-09 0)
(0.0018553482 1.7964816e-09 0)
(0.001847853 1.7155452e-09 0)
(0.0018404817 1.6383892e-09 0)
(0.0018332269 1.5647796e-09 0)
(0.001826082 1.4944998e-09 0)
(0.0018190401 1.4273514e-09 0)
(0.0018120952 1.3631515e-09 0)
(0.0018052413 1.3016893e-09 0)
(0.0017984731 1.2428092e-09 0)
(0.001791785 1.1864075e-09 0)
(0.001785172 1.1323353e-09 0)
(0.0017786291 1.0804526e-09 0)
(0.0017721516 1.0306413e-09 0)
(0.001765735 9.8279656e-10 0)
(0.001759375 9.3682076e-10 0)
(0.0017530673 8.9260377e-10 0)
(0.0017468081 8.5004988e-10 0)
(0.0017405936 8.0909466e-10 0)
(0.0017344198 7.6966771e-10 0)
(0.0017282831 7.31691e-10 0)
(0.00172218 6.950959e-10 0)
(0.001716107 6.5982351e-10 0)
(0.0017100607 6.2581759e-10 0)
(0.0017040378 5.9301577e-10 0)
(0.0016980351 5.6136805e-10 0)
(0.0016920495 5.308373e-10 0)
(0.0016860779 5.0137688e-10 0)
(0.0016801173 4.7293913e-10 0)
(0.0016741649 4.4547682e-10 0)
(0.001668218 4.1894664e-10 0)
(0.0016622744 3.9319491e-10 0)
(0.0016563354 3.6840743e-10 0)
(0.0016503923 3.4341073e-10 0)
(0.0016446205 3.1789349e-10 0)
(0.00163922 2.9400226e-10 0)
(0.001634219 2.7254412e-10 0)
(0.0016295772 2.5334981e-10 0)
(0.0016252549 2.3629545e-10 0)
(0.0016212163 2.2110634e-10 0)
(0.0016174312 2.0748575e-10 0)
(0.0016138744 1.952029e-10 0)
(0.0016105238 1.8407997e-10 0)
(0.0016073603 1.7397282e-10 0)
(0.0016043673 1.6476196e-10 0)
(0.0016015297 1.5635145e-10 0)
(0.0015988342 1.4866637e-10 0)
(0.0015962684 1.4165571e-10 0)
(0.0015938209 1.3527149e-10 0)
(0.0015914811 1.2954637e-10 0)
(0.0015892361 1.243946e-10 0)
(0.0015870785 1.203467e-10 0)
(0.0015849767 1.1629911e-10 0)
(0.0015829623 1.1637642e-10 0)
(0.0015808578 1.0855575e-10 0)
(0.0015791141 1.2604299e-10 0)
(0.00157639 7.7113693e-11 0)
(1 6.5378912e-10 8.2869942e-25)
(0.99999299 1.6161904e-09 0)
(0.99998389 2.1434881e-09 0)
(0.99997403 2.7364686e-09 0)
(0.99996259 3.6133634e-09 0)
(0.99994924 4.7676724e-09 0)
(0.99993374 6.285411e-09 0)
(0.99991568 8.3143042e-09 0)
(0.99989455 1.1044407e-08 0)
(0.99986969 1.4731673e-08 0)
(0.99984027 1.9734545e-08 0)
(0.99980525 2.6580775e-08 0)
(0.99976321 3.6012047e-08 0)
(0.99971232 4.9272879e-08 0)
(0.99964971 6.7895891e-08 0)
(0.9995721 9.5800298e-08 0)
(0.99947159 1.3495688e-07 0)
(0.99934444 2.0492416e-07 0)
(0.99915687 2.9064894e-07 0)
(0.99893133 5.3059796e-07 0)
(0.9984608 7.1021316e-07 0)
(0.99804197 1.8086842e-06 0)
(0.99632724 3.6006759e-07 0)
(0.99758847 0.00088754708 -2.7368796e-55)
(0.022887591 0.00089465089 2.7365984e-55)
(0.0093319689 6.959947e-06 0)
(0.0069688148 1.4729416e-06 0)
(0.0059301296 6.8649901e-07 0)
(0.0053690604 4.0177168e-07 0)
(0.0049848775 2.8071745e-07 0)
(0.0047025071 2.0983844e-07 0)
(0.0044818829 1.6498466e-07 0)
(0.0043031874 1.3388859e-07 0)
(0.004154598 1.1128113e-07 0)
(0.0040283853 9.4264528e-08 0)
(0.0039193778 8.1037883e-08 0)
(0.0038239967 7.0490396e-08 0)
(0.0037396322 6.192305e-08 0)
(0.0036643135 5.4859209e-08 0)
(0.0035965272 4.8955074e-08 0)
(0.0035350955 4.396144e-08 0)
(0.0034790806 3.9696375e-08 0)
(0.0034277244 3.6021582e-08 0)
(0.0033804087 3.283003e-08 0)
(0.0033366232 3.0038641e-08 0)
(0.0032959421 2.7581947e-08 0)
(0.0032580067 2.5407478e-08 0)
(0.0032225131 2.3472663e-08 0)
(0.0031892017 2.1742849e-08 0)
(0.0031578489 2.0189689e-08 0)
(0.0031282612 1.8789597e-08 0)
(0.00310027 1.7522782e-08 0)
(0.0030737278 1.6372579e-08 0)
(0.003048505 1.5324805e-08 0)
(0.0030244874 1.4367448e-08 0)
(0.0030015734 1.3490471e-08 0)
(0.0029796723 1.2684999e-08 0)
(0.0029587034 1.1943291e-08 0)
(0.002938594 1.1258827e-08 0)
(0.0029192787 1.062581e-08 0)
(0.0029006985 1.0039085e-08 0)
(0.0028828001 9.4941217e-09 0)
(0.0028655354 8.9870988e-09 0)
(0.00284886 8.514625e-09 0)
(0.0028327335 8.0735784e-09 0)
(0.002817119 7.6611931e-09 0)
(0.0028019828 7.275029e-09 0)
(0.0027872937 6.9129143e-09 0)
(0.0027730229 6.5728599e-09 0)
(0.0027591441 6.2529916e-09 0)
(0.0027456332 5.9517392e-09 0)
(0.0027324674 5.6677866e-09 0)
(0.0027196256 5.3998171e-09 0)
(0.0027070882 5.1465944e-09 0)
(0.0026948369 4.9070471e-09 0)
(0.0026828547 4.6802021e-09 0)
(0.0026711258 4.4651844e-09 0)
(0.002659635 4.2611552e-09 0)
(0.0026483685 4.067282e-09 0)
(0.0026373136 3.882909e-09 0)
(0.0026264577 3.7075052e-09 0)
(0.0026157892 3.5404752e-09 0)
(0.002605297 3.3812467e-09 0)
(0.0025949708 3.2293365e-09 0)
(0.0025848007 3.0842979e-09 0)
(0.0025747775 2.9457215e-09 0)
(0.0025648923 2.8132298e-09 0)
(0.0025551364 2.6863879e-09 0)
(0.0025455025 2.5648749e-09 0)
(0.0025359828 2.4484764e-09 0)
(0.0025265698 2.3368855e-09 0)
(0.0025172566 2.2298132e-09 0)
(0.0025080365 2.1270158e-09 0)
(0.0024989032 2.0282768e-09 0)
(0.0024898503 1.933395e-09 0)
(0.0024808718 1.8421431e-09 0)
(0.0024719624 1.7543235e-09 0)
(0.0024631164 1.6698032e-09 0)
(0.0024543285 1.588437e-09 0)
(0.0024455933 1.5100639e-09 0)
(0.0024369058 1.4345421e-09 0)
(0.0024282612 1.3617502e-09 0)
(0.0024196544 1.291572e-09 0)
(0.0024110809 1.2238789e-09 0)
(0.0024025362 1.1585676e-09 0)
(0.0023940158 1.0955615e-09 0)
(0.0023855152 1.0347644e-09 0)
(0.0023770301 9.7607788e-10 0)
(0.0023685565 9.1940449e-10 0)
(0.0023600908 8.6465484e-10 0)
(0.0023516294 8.1151235e-10 0)
(0.0023431745 7.6035897e-10 0)
(0.0023347138 7.0878046e-10 0)
(0.0023264963 6.5613812e-10 0)
(0.0023188065 6.0685096e-10 0)
(0.0023116848 5.6258002e-10 0)
(0.0023050742 5.2297683e-10 0)
(0.0022989182 4.87786e-10 0)
(0.0022931657 4.5644244e-10 0)
(0.0022877741 4.283344e-10 0)
(0.0022827073 4.0298614e-10 0)
(0.0022779341 3.8003092e-10 0)
(0.0022734274 3.5917153e-10 0)
(0.0022691631 3.4016153e-10 0)
(0.0022651202 3.2280299e-10 0)
(0.0022612795 3.069414e-10 0)
(0.0022576236 2.9247155e-10 0)
(0.002254136 2.7929451e-10 0)
(0.0022508016 2.6747767e-10 0)
(0.0022476024 2.568443e-10 0)
(0.0022445276 2.4848871e-10 0)
(0.0022415323 2.4013511e-10 0)
(0.0022386612 2.4029255e-10 0)
(0.0022356621 2.2448369e-10 0)
(0.0022331764 2.6036625e-10 0)
(0.0022292936 1.593279e-10 0)
(1 8.64759e-10 0)
(0.99999285 2.1387065e-09 0)
(0.99998353 2.8376514e-09 0)
(0.99997345 3.6228711e-09 0)
(0.99996174 4.7834882e-09 0)
(0.99994809 6.3109681e-09 0)
(0.99993224 8.3189759e-09 0)
(0.99991378 1.1002751e-08 0)
(0.99989219 1.4613424e-08 0)
(0.99986679 1.9489139e-08 0)
(0.99983674 2.6103367e-08 0)
(0.999801 3.5153126e-08 0)
(0.9997581 4.7617824e-08 0)
(0.9997062 6.5140703e-08 0)
(0.99964236 8.9744892e-08 0)
(0.99956327 1.2660417e-07 0)
(0.99946089 1.7831734e-07 0)
(0.99933143 2.7070032e-07 0)
(0.99914056 3.8386712e-07 0)
(0.99891114 7.0055666e-07 0)
(0.99843292 9.3768162e-07 0)
(0.99800708 2.3876529e-06 0)
(0.99626471 4.7663695e-07 0)
(0.99754383 0.0011593783 0)
(0.029908389 0.0011711672 0)
(0.012227932 1.2112679e-05 0)
(0.0091278886 2.5558247e-06 0)
(0.0077651281 1.1910233e-06 0)
(0.0070285216 6.9719206e-07 0)
(0.0065241674 4.8712646e-07 0)
(0.0061534481 3.6413978e-07 0)
(0.0058637846 2.8630762e-07 0)
(0.0056291627 2.3234855e-07 0)
(0.0054340619 1.93119e-07 0)
(0.0052683367 1.6359067e-07 0)
(0.0051251982 1.4063888e-07 0)
(0.004999948 1.2233613e-07 0)
(0.0048891604 1.0746936e-07 0)
(0.0047902481 9.5211484e-08 0)
(0.0047012247 8.4965937e-08 0)
(0.0046205439 7.6300304e-08 0)
(0.0045469748 6.8898893e-08 0)
(0.0044795221 6.2521737e-08 0)
(0.0044173744 5.6983118e-08 0)
(0.0043598617 5.2138877e-08 0)
(0.004306425 4.7875417e-08 0)
(0.0042565936 4.4101696e-08 0)
(0.0042099684 4.074384e-08 0)
(0.0041662085 3.7741719e-08 0)
(0.0041250206 3.5046149e-08 0)
(0.0040861504 3.2616201e-08 0)
(0.0040493768 3.0417534e-08 0)
(0.0040145059 2.8421233e-08 0)
(0.0039813678 2.6602682e-08 0)
(0.0039498124 2.4941039e-08 -2.8996506e-25)
(0.0039197065 2.3418887e-08 0)
(0.0038909307 2.2020828e-08 0)
(0.0038633792 2.0733428e-08 0)
(0.0038369566 1.9545371e-08 0)
(0.003811577 1.8446601e-08 0)
(0.0037871628 1.7428169e-08 0)
(0.0037636442 1.6482216e-08 0)
(0.0037409579 1.5602109e-08 0)
(0.0037190457 1.4781963e-08 0)
(0.0036978545 1.4016362e-08 0)
(0.0036773359 1.3300505e-08 0)
(0.0036574456 1.2630158e-08 0)
(0.0036381426 1.2001552e-08 0)
(0.0036193891 1.1411235e-08 0)
(0.0036011506 1.0855955e-08 0)
(0.0035833953 1.0332986e-08 0)
(0.0035660935 9.8400438e-09 0)
(0.0035492173 9.3748447e-09 0)
(0.003532741 8.9352427e-09 0)
(0.0035166406 8.5193782e-09 0)
(0.0035008939 8.1255624e-09 0)
(0.0034854798 7.752277e-09 0)
(0.0034703786 7.3980661e-09 0)
(0.0034555722 7.0614847e-09 0)
(0.0034410437 6.7413947e-09 0)
(0.0034267769 6.4368745e-09 0)
(0.0034127561 6.1468909e-09 0)
(0.003398967 5.8704505e-09 0)
(0.0033853961 5.6067146e-09 0)
(0.0033720303 5.3549082e-09 0)
(0.0033588575 5.1143203e-09 0)
(0.0033458659 4.8842958e-09 0)
(0.0033330444 4.6640798e-09 0)
(0.0033203832 4.4531157e-09 0)
(0.003307872 4.2510309e-09 0)
(0.003295501 4.0572927e-09 0)
(0.0032832611 3.8713997e-09 0)
(0.0032711435 3.6929285e-09 0)
(0.0032591398 3.5215038e-09 0)
(0.0032472419 3.3567759e-09 0)
(0.0032354419 3.1983502e-09 0)
(0.0032237324 3.0458838e-09 0)
(0.0032121063 2.899146e-09 0)
(0.0032005564 2.7578845e-09 0)
(0.0031890758 2.6218196e-09 0)
(0.0031776578 2.4907054e-09 0)
(0.003166296 2.364331e-09 0)
(0.0031549839 2.2424948e-09 0)
(0.0031437154 2.1249732e-09 0)
(0.0031324846 2.011587e-09 0)
(0.0031212856 1.9022032e-09 0)
(0.0031101125 1.7966546e-09 0)
(0.0030989596 1.6947705e-09 0)
(0.0030878217 1.5963818e-09 0)
(0.0030766938 1.5013332e-09 0)
(0.0030655716 1.4090766e-09 0)
(0.0030544575 1.320271e-09 0)
(0.0030433356 1.2307458e-09 0)
(0.0030325322 1.1394037e-09 0)
(0.0030224212 1.0538856e-09 0)
(0.0030130561 9.7706171e-10 0)
(0.003004362 9.0832893e-10 0)
(0.0029962649 8.4724674e-10 0)
(0.002988698 7.9283744e-10 0)
(0.0029816053 7.4404141e-10 0)
(0.0029749394 7.0003401e-10 0)
(0.0029686593 6.6017937e-10 0)
(0.0029627294 6.2396204e-10 0)
(0.0029571182 5.9095462e-10 0)
(0.0029517979 5.6081375e-10 0)
(0.0029467435 5.3327143e-10 0)
(0.0029419321 5.0814523e-10 0)
(0.0029373419 4.8526365e-10 0)
(0.0029329532 4.6474377e-10 0)
(0.0029287421 4.4627944e-10 0)
(0.0029246945 4.3176938e-10 0)
(0.0029207515 4.1726717e-10 0)
(0.0029169717 4.1753793e-10 0)
(0.0029130237 3.9020091e-10 0)
(0.0029097504 4.5255712e-10 -3.9255133e-24)
(0.0029046384 2.7681027e-10 2.4076146e-25)
(1 1.0940296e-09 0)
(0.99999267 2.7072206e-09 0)
(0.99998311 3.5937173e-09 0)
(0.99997275 4.5884551e-09 0)
(0.99996073 6.0579247e-09 0)
(0.99994671 7.991427e-09 0)
(0.99993044 1.0532606e-08 0)
(0.9999115 1.3928235e-08 0)
(0.99988935 1.8495659e-08 0)
(0.99986331 2.4662079e-08 0)
(0.99983252 3.302556e-08 0)
(0.9997959 4.4466397e-08 0)
(0.99975198 6.0221297e-08 0)
(0.99969886 8.2364943e-08 0)
(0.99963356 1.1345088e-07 0)
(0.99955269 1.6000967e-07 0)
(0.99944807 2.253174e-07 0)
(0.99931585 3.41955e-07 0)
(0.99912104 4.8480041e-07 0)
(0.998887 8.8443702e-07 0)
(0.99839958 1.1837655e-06 0)
(0.99796538 3.0137824e-06 0)
(0.99619009 6.0376652e-07 0)
(0.99749045 0.0014461241 0)
(0.037319164 0.0014641607 0)
(0.01530064 1.9020207e-05 0)
(0.011416023 4.0255307e-06 0)
(0.0097080645 1.876352e-06 0)
(0.0087841591 1.098658e-06 0)
(0.0081515934 7.6762967e-07 0)
(0.0076865971 5.7384266e-07 0)
(0.0073232534 4.5119783e-07 0)
(0.0070289394 3.6617097e-07 0)
(0.0067841902 3.0435393e-07 0)
(0.0065762828 2.5782321e-07 0)
(0.0063967032 2.2165563e-07 0)
(0.006239559 1.9281392e-07 0)
(0.0061005538 1.6938643e-07 0)
(0.0059764429 1.5006984e-07 0)
(0.0058647352 1.3392415e-07 0)
(0.0057634916 1.2026799e-07 0)
(0.0056711682 1.0860392e-07 0)
(0.0055865171 9.8553836e-08 0)
(0.0055085204 8.9825088e-08 -4.8786221e-35)
(0.0054363379 8.2190532e-08 0)
(0.0053692686 7.5471171e-08 0)
(0.0053067222 6.9523551e-08 0)
(0.005248198 6.4231262e-08 0)
(0.0051932685 5.9499556e-08 0)
(0.0051415659 5.5250934e-08 0)
(0.0050927711 5.1420902e-08 0)
(0.0050466068 4.7955349e-08 0)
(0.0050028299 4.4808711e-08 0)
(0.0049612272 4.1942198e-08 0)
(0.0049216103 3.9322963e-08 -3.3210947e-25)
(0.0048838123 3.6923563e-08 0)
(0.0048476835 3.4719737e-08 0)
(0.004813091 3.2690316e-08 0)
(0.0047799151 3.0817459e-08 0)
(0.0047480481 2.9085326e-08 0)
(0.0047173927 2.7479816e-08 0)
(0.0046878613 2.598854e-08 0)
(0.0046593744 2.4601045e-08 0)
(0.0046318591 2.3308059e-08 0)
(0.0046052488 2.2101046e-08 0)
(0.0045794828 2.0972441e-08 0)
(0.0045545052 1.991557e-08 0)
(0.0045302649 1.8924495e-08 0)
(0.0045067144 1.7993775e-08 0)
(0.0044838103 1.7118282e-08 0)
(0.0044615129 1.6293722e-08 0)
(0.0044397847 1.5516497e-08 0)
(0.0044185908 1.4783005e-08 0)
(0.004397899 1.4089865e-08 0)
(0.0043776791 1.3434146e-08 0)
(0.0043579031 1.2813186e-08 0)
(0.0043385448 1.2224593e-08 0)
(0.0043195794 1.1666072e-08 0)
(0.0043009841 1.1135344e-08 0)
(0.0042827377 1.0630617e-08 0)
(0.0042648199 1.0150437e-08 0)
(0.004247211 9.6931758e-09 0)
(0.004229893 9.2572685e-09 0)
(0.004212849 8.8413925e-09 0)
(0.0041960625 8.444326e-09 0)
(0.0041795184 8.0649487e-09 0)
(0.0041632018 7.7022271e-09 0)
(0.0041470988 7.3549719e-09 0)
(0.004131197 7.0223059e-09 0)
(0.0041154836 6.7036412e-09 0)
(0.0040999462 6.398138e-09 0)
(0.0040845734 6.105006e-09 0)
(0.0040693543 5.8235779e-09 0)
(0.0040542781 5.5532617e-09 0)
(0.0040393347 5.2935063e-09 0)
(0.0040245141 5.0436891e-09 0)
(0.0040098071 4.8032697e-09 0)
(0.0039952048 4.5718845e-09 0)
(0.0039806982 4.3491354e-09 0)
(0.0039662784 4.1345815e-09 0)
(0.0039519371 3.927835e-09 0)
(0.0039376663 3.7285633e-09 0)
(0.0039234578 3.5364482e-09 0)
(0.0039093039 3.3511373e-09 0)
(0.0038951971 3.172348e-09 0)
(0.0038811301 2.9998705e-09 0)
(0.0038670953 2.8334411e-09 0)
(0.0038530857 2.6727905e-09 0)
(0.0038390946 2.5176522e-09 0)
(0.0038251159 2.3677812e-09 0)
(0.0038111438 2.2223168e-09 0)
(0.0037971815 2.0822889e-09 0)
(0.003783209 1.9411655e-09 0)
(0.0037696351 1.7972397e-09 0)
(0.0037569289 1.6624963e-09 0)
(0.0037451581 1.5414313e-09 0)
(0.0037342291 1.433098e-09 0)
(0.0037240494 1.3368082e-09 0)
(0.0037145353 1.2510271e-09 0)
(0.0037056165 1.1740889e-09 0)
(0.0036972336 1.1046961e-09 0)
(0.0036893352 1.0418478e-09 0)
(0.0036818767 9.8473228e-10 0)
(0.0036748185 9.3267654e-10 0)
(0.0036681259 8.8513974e-10 0)
(0.0036617672 8.4169983e-10 0)
(0.0036557137 8.0206968e-10 0)
(0.0036499383 7.6597928e-10 0)
(0.0036444159 7.3361361e-10 0)
(0.0036391168 7.0449136e-10 0)
(0.003634023 6.8160429e-10 0)
(0.0036290607 6.5873918e-10 0)
(0.0036243031 6.5916349e-10 0)
(0.0036193346 6.1602513e-10 0)
(0.0036152134 7.146255e-10 0)
(0.0036087788 4.3687649e-10 -1.3741142e-25)
(1 1.3467286e-09 0)
(0.99999247 3.3346948e-09 0)
(0.99998261 4.4292173e-09 0)
(0.99997193 5.6556595e-09 0)
(0.99995953 7.4662123e-09 0)
(0.99994508 9.8478545e-09 0)
(0.99992831 1.2977182e-08 0)
(0.9999088 1.7157643e-08 0)
(0.99988598 2.277936e-08 0)
(0.99985918 3.0367361e-08 0)
(0.9998275 4.0656516e-08 0)
(0.99978985 5.4728281e-08 0)
(0.99974471 7.4101625e-08 0)
(0.99969015 1.013244e-07 0)
(0.99962311 1.3953141e-07 0)
(0.99954014 1.9674031e-07 0)
(0.99943287 2.7696707e-07 0)
(0.99929737 4.2020435e-07 0)
(0.99909789 5.9557923e-07 0)
(0.99885838 1.0860684e-06 0)
(0.99836011 1.4535848e-06 0)
(0.997916 3.700009e-06 0)
(0.99610184 7.4410933e-07 0)
(0.99742723 0.0017516218 0)
(0.045219927 0.0017777999 0)
(0.018594358 2.8082446e-05 0)
(0.013865345 5.9719153e-06 0)
(0.011785678 2.7843709e-06 0)
(0.010659699 1.6308506e-06 0)
(0.0098888203 1.1394737e-06 0)
(0.0093220986 8.5185128e-07 0)
(0.0088792423 6.6980797e-07 0)
(0.0085205035 5.4360042e-07 0)
(0.0082221622 4.51843e-07 0)
(0.0079687165 3.8277442e-07 0)
(0.0077497918 3.2908817e-07 0)
(0.0075582073 2.8627596e-07 0)
(0.0073887279 2.5150005e-07 0)
(0.0072373999 2.2282588e-07 0)
(0.0071011877 1.9885825e-07 0)
(0.0069777286 1.785858e-07 0)
(0.0068651415 1.6127025e-07 0)
(0.0067619054 1.4635037e-07 0)
(0.0066667801 1.333918e-07 5.2625857e-35)
(0.0065787419 1.2205739e-07 0)
(0.0064969365 1.1208148e-07 0)
(0.0064206443 1.0325115e-07 0)
(0.0063492552 9.5393587e-08 0)
(0.0062822484 8.8368167e-08 0)
(0.0062191755 8.2059866e-08 0)
(0.0061596478 7.6372956e-08 0)
(0.006103327 7.1227117e-08 0)
(0.0060499172 6.6554716e-08 0)
(0.0059991581 6.2298175e-08 0)
(0.0059508205 5.8408731e-08 1.9399567e-25)
(0.0059047008 5.4845648e-08 0)
(0.0058606164 5.1572927e-08 0)
(0.0058184054 4.8559135e-08 0)
(0.005777922 4.5777785e-08 0)
(0.0057390349 4.320537e-08 0)
(0.0057016253 4.0820958e-08 0)
(0.0056655866 3.8606152e-08 0)
(0.0056308219 3.6545433e-08 0)
(0.0055972421 3.4625045e-08 0)
(0.0055647662 3.2832313e-08 0)
(0.00553332 3.1156006e-08 0)
(0.0055028357 2.9586216e-08 0)
(0.0054732506 2.8114127e-08 0)
(0.0054445071 2.6731664e-08 0)
(0.0054165522 2.5431213e-08 0)
(0.0053893373 2.4206394e-08 0)
(0.0053628169 2.3051869e-08 0)
(0.0053369484 2.1962293e-08 0)
(0.0053116923 2.0932645e-08 0)
(0.0052870121 1.9958571e-08 0)
(0.0052628735 1.9036121e-08 0)
(0.0052392446 1.8161742e-08 0)
(0.0052160951 1.7332027e-08 0)
(0.0051933972 1.6543593e-08 0)
(0.005171125 1.5793777e-08 0)
(0.0051492537 1.5080422e-08 0)
(0.0051277595 1.4401111e-08 0)
(0.0051066203 1.3753519e-08 0)
(0.0050858153 1.3135682e-08 0)
(0.0050653248 1.2545787e-08 0)
(0.0050451299 1.1982169e-08 0)
(0.0050252127 1.1443292e-08 0)
(0.0050055561 1.0927392e-08 0)
(0.0049861451 1.0433167e-08 0)
(0.004966964 9.9597424e-09 0)
(0.0049479977 9.5058708e-09 0)
(0.0049292322 9.070379e-09 0)
(0.0049106541 8.6522759e-09 0)
(0.0048922506 8.250682e-09 0)
(0.0048740089 7.8647788e-09 0)
(0.0048559171 7.4936412e-09 0)
(0.0048379639 7.1364665e-09 0)
(0.0048201383 6.7927153e-09 0)
(0.0048024293 6.4617956e-09 0)
(0.0047848262 6.1430521e-09 0)
(0.0047673188 5.8359091e-09 0)
(0.0047498972 5.5398721e-09 0)
(0.0047325514 5.2544686e-09 0)
(0.0047152719 4.9791745e-09 0)
(0.0046980498 4.7135702e-09 0)
(0.0046808759 4.4573437e-09 0)
(0.0046637411 4.2101033e-09 0)
(0.0046466366 3.971449e-09 0)
(0.0046295543 3.7409849e-09 0)
(0.0046124866 3.5183471e-09 0)
(0.0045954265 3.3022627e-09 0)
(0.0045783777 3.0942454e-09 0)
(0.0045613159 2.8846725e-09 0)
(0.0045447385 2.671053e-09 0)
(0.0045292174 2.4710723e-09 0)
(0.0045148363 2.2913553e-09 0)
(0.0045014813 2.1305031e-09 0)
(0.0044890402 1.9875046e-09 0)
(0.004477411 1.8600936e-09 0)
(0.0044665083 1.7458044e-09 0)
(0.0044562595 1.6427144e-09 0)
(0.0044466022 1.5493398e-09 0)
(0.0044374818 1.4644771e-09 0)
(0.0044288503 1.387128e-09 0)
(0.0044206649 1.31649e-09 0)
(0.0044128874 1.2519374e-09 0)
(0.0044054827 1.1930444e-09 0)