/*--------------------------------*- C++ -*----------------------------------*\
| =========                 |                                                 |
| \\      /  F ield         | OpenFOAM: The Open Source CFD Toolbox           |
|  \\    /   O peration     | Version:  2206                                  |
|   \\  /    A nd           | Website:  www.openfoam.com                      |
|    \\/     M anipulation  |                                                 |
\*---------------------------------------------------------------------------*/
FoamFile
{
    version     2.0;
    format      ascii;
    arch        "LSB;label=32;scalar=64";
    class       volScalarField;
    location    "1200";
    object      k;
}
// * * * * * * * * * * * * * * * * * * * * * * * * * * * * * * * * * * * * * //

dimensions      [0 2 -2 0 0 0 0];

internalField   nonuniform List<scalar> 
13056
(
9.7030511e-05
8.0631866e-05
7.9544638e-05
7.9532718e-05
7.9586748e-05
7.9604548e-05
7.9609381e-05
7.9611948e-05
7.9614637e-05
7.9617958e-05
7.9622138e-05
7.9627398e-05
7.9634009e-05
7.9642334e-05
7.9652866e-05
7.9666335e-05
7.9683855e-05
7.9706786e-05
7.9740707e-05
7.9774976e-05
7.9909129e-05
7.9703669e-05
8.1475649e-05
2.2352374e-05
3.1401951e-07
4.8720314e-08
2.4698732e-08
1.6662627e-08
1.2733842e-08
1.034143e-08
8.7245416e-09
7.5439487e-09
6.6419485e-09
5.9304072e-09
5.3536587e-09
4.8758653e-09
4.4732466e-09
4.1292251e-09
3.831744e-09
3.5718304e-09
3.3427489e-09
3.1391848e-09
2.9570879e-09
2.7931834e-09
2.6448374e-09
2.5099022e-09
2.3866073e-09
2.2734825e-09
2.169297e-09
2.0730143e-09
1.9837507e-09
1.9007483e-09
1.8233563e-09
1.7510112e-09
1.6832245e-09
1.619571e-09
1.5596753e-09
1.5032063e-09
1.4498717e-09
1.3994125e-09
1.3515978e-09
1.306223e-09
1.2631064e-09
1.222084e-09
1.1830066e-09
1.1457407e-09
1.110167e-09
1.0761784e-09
1.0436784e-09
1.0125806e-09
9.8280968e-10
9.5429937e-10
9.2699077e-10
9.0083302e-10
8.7578204e-10
8.518009e-10
8.2886007e-10
8.0694095e-10
7.8604251e-10
7.6617156e-10
7.4734326e-10
7.295838e-10
7.1292796e-10
6.9742423e-10
6.8315089e-10
6.7021583e-10
6.5875938e-10
6.4899636e-10
6.4125589e-10
6.3568636e-10
6.3327167e-10
6.3375343e-10
6.3815748e-10
6.4697218e-10
6.609922e-10
6.809705e-10
7.0729999e-10
7.3999004e-10
7.7927948e-10
8.244154e-10
8.7226183e-10
9.1816548e-10
9.5903748e-10
9.910689e-10
1.0162069e-09
1.0346719e-09
1.0482117e-09
1.0579754e-09
1.0647838e-09
1.069159e-09
1.0714719e-09
1.0720089e-09
1.070783e-09
1.0678295e-09
1.0633814e-09
1.057641e-09
1.0508509e-09
1.043304e-09
1.0351853e-09
1.0266587e-09
1.0179304e-09
1.0091296e-09
1.0003071e-09
9.915217e-10
9.8286134e-10
9.7436136e-10
9.6601641e-10
9.578084e-10
9.4974364e-10
9.4181801e-10
9.340607e-10
9.2611412e-10
9.1856355e-10
9.0922588e-10
9.016791e-10
8.9076063e-10
9.7025669e-05
8.0623504e-05
7.9536153e-05
7.9524173e-05
7.9578196e-05
7.9595995e-05
7.9600828e-05
7.9603395e-05
7.9606084e-05
7.9609405e-05
7.9613585e-05
7.9618845e-05
7.9625456e-05
7.9633782e-05
7.9644314e-05
7.9657784e-05
7.9675305e-05
7.9698237e-05
7.9732159e-05
7.9766426e-05
7.9900585e-05
7.9695089e-05
8.1467142e-05
2.2354472e-05
4.8321799e-08
7.4819211e-09
3.7929513e-09
2.5588565e-09
1.9555187e-09
1.5881198e-09
1.3398166e-09
1.1585147e-09
1.0199959e-09
9.1072556e-10
8.2215511e-10
7.4878104e-10
6.8695148e-10
6.3412067e-10
5.8843703e-10
5.4852259e-10
5.13343e-10
4.8208205e-10
4.5411781e-10
4.2894733e-10
4.0616616e-10
3.8544447e-10
3.6651036e-10
3.4913807e-10
3.3313857e-10
3.1835271e-10
3.0464474e-10
2.9189828e-10
2.800134e-10
2.6890352e-10
2.5849366e-10
2.4871854e-10
2.3952058e-10
2.3084893e-10
2.2265866e-10
2.1490997e-10
2.0756741e-10
2.0059956e-10
1.9397853e-10
1.8767913e-10
1.8167845e-10
1.7595598e-10
1.7049339e-10
1.6527425e-10
1.602837e-10
1.5550842e-10
1.5093679e-10
1.4655895e-10
1.4236609e-10
1.383501e-10
1.3450422e-10
1.3082279e-10
1.273013e-10
1.2393693e-10
1.2072952e-10
1.1768005e-10
1.1479041e-10
1.1206423e-10
1.0951016e-10
1.07134e-10
1.0494771e-10
1.0296807e-10
1.0121689e-10
9.9727371e-11
9.8549765e-11
9.7703104e-11
9.7340746e-11
9.7438501e-11
9.8144218e-11
9.9534122e-11
1.0173145e-10
1.048527e-10
1.0895813e-10
1.1404763e-10
1.2015385e-10
1.271525e-10
1.345522e-10
1.4163583e-10
1.4793541e-10
1.5287126e-10
1.5674719e-10
1.5959831e-10
1.6169394e-10
1.6321029e-10
1.6427233e-10
1.6495916e-10
1.6532722e-10
1.6542011e-10
1.6523958e-10
1.6479075e-10
1.6410946e-10
1.632272e-10
1.621818e-10
1.6101866e-10
1.5976663e-10
1.5845122e-10
1.571043e-10
1.5574591e-10
1.5438402e-10
1.5302776e-10
1.5169069e-10
1.5037828e-10
1.4908976e-10
1.4782238e-10
1.4657711e-10
1.4535334e-10
1.441555e-10
1.429288e-10
1.4176277e-10
1.4032272e-10
1.3915763e-10
1.3747189e-10
9.7010236e-05
8.0597258e-05
7.9509544e-05
7.9497383e-05
7.9551382e-05
7.9569181e-05
7.9574015e-05
7.9576582e-05
7.957927e-05
7.9582591e-05
7.9586771e-05
7.9592032e-05
7.9598644e-05
7.9606971e-05
7.9617504e-05
7.9630976e-05
7.9648498e-05
7.9671431e-05
7.9705355e-05
7.9739617e-05
7.9873789e-05
7.9668204e-05
8.1440295e-05
2.235475e-05
1.5152812e-08
2.3340104e-09
1.1832219e-09
7.9824364e-10
6.1003644e-10
4.9542993e-10
4.1797369e-10
3.614175e-10
3.1820708e-10
2.8412048e-10
2.564908e-10
2.3360144e-10
2.1431368e-10
1.9783342e-10
1.835829e-10
1.7113216e-10
1.6015844e-10
1.5040712e-10
1.4168419e-10
1.3383279e-10
1.2672676e-10
1.2026321e-10
1.1435735e-10
1.0893873e-10
1.039484e-10
9.9336687e-11
9.5061145e-11
9.1085497e-11
8.7378531e-11
8.3913214e-11
8.066615e-11
7.7617147e-11
7.4748687e-11
7.2044953e-11
6.9491567e-11
6.7076062e-11
6.4787395e-11
6.2615779e-11
6.0552531e-11
5.8589821e-11
5.6720489e-11
5.493811e-11
5.3236942e-11
5.1611884e-11
5.0058174e-11
4.8571337e-11
4.7147365e-11
4.5785078e-11
4.4483302e-11
4.3237642e-11
4.204606e-11
4.0906944e-11
3.9819055e-11
3.8781756e-11
3.7795096e-11
3.6859055e-11
3.5971913e-11
3.5132424e-11
3.4362535e-11
3.3654839e-11
3.3012974e-11
3.2443807e-11
3.1956115e-11
3.1562267e-11
3.1277487e-11
3.1089176e-11
3.105818e-11
3.1259216e-11
3.169128e-11
3.2387288e-11
3.3395327e-11
3.4759806e-11
3.6501925e-11
3.8616518e-11
4.1095119e-11
4.3851246e-11
4.6668186e-11
4.928774e-11
5.1575255e-11
5.3368828e-11
5.4790898e-11
5.5864978e-11
5.6685966e-11
5.7312342e-11
5.77807e-11
5.8113056e-11
5.8326389e-11
5.8433412e-11
5.843314e-11
5.8325494e-11
5.8122264e-11
5.7836742e-11
5.7484837e-11
5.7084453e-11
5.6647791e-11
5.6185393e-11
5.5709185e-11
5.5226898e-11
5.4742161e-11
5.4258641e-11
5.3781139e-11
5.3311766e-11
5.2850583e-11
5.2396896e-11
5.1951086e-11
5.1513096e-11
5.108394e-11
5.064717e-11
5.0228579e-11
4.9725979e-11
4.9310289e-11
4.8708014e-11
9.6983732e-05
8.0552283e-05
7.9463955e-05
7.9451485e-05
7.9505443e-05
7.9523242e-05
7.9528076e-05
7.9530642e-05
7.9533331e-05
7.9536651e-05
7.9540832e-05
7.9546094e-05
7.9552707e-05
7.9561036e-05
7.9571571e-05
7.9585045e-05
7.960257e-05
7.9625505e-05
7.965943e-05
7.9693685e-05
7.9827874e-05
7.9622148e-05
8.1394245e-05
2.2353329e-05
6.8218592e-09
1.0294221e-09
5.2186138e-10
3.5207141e-10
2.6908208e-10
2.1855038e-10
1.8439721e-10
1.5945806e-10
1.4040316e-10
1.2537123e-10
1.1318567e-10
1.0309007e-10
9.4583722e-11
8.7316564e-11
8.1033312e-11
7.5544055e-11
7.0706178e-11
6.6407308e-11
6.256196e-11
5.910102e-11
5.5968895e-11
5.3120238e-11
5.0517663e-11
4.8130125e-11
4.5931632e-11
4.390021e-11
4.2016859e-11
4.0265621e-11
3.8632659e-11
3.7105961e-11
3.5675203e-11
3.4331984e-11
3.3069866e-11
3.1882036e-11
3.0761087e-11
2.9701388e-11
2.8698119e-11
2.7747017e-11
2.6844315e-11
2.5986639e-11
2.5170794e-11
2.4393891e-11
2.3653367e-11
2.2947051e-11
2.227254e-11
2.1626991e-11
2.1007589e-11
2.0419126e-11
1.9865549e-11
1.9339828e-11
1.8841355e-11
1.8369962e-11
1.7925732e-11
1.7509234e-11
1.7121058e-11
1.6760683e-11
1.6421754e-11
1.6097655e-11
1.5848428e-11
1.5648078e-11
1.549902e-11
1.540991e-11
1.5391642e-11
1.5457684e-11
1.5618346e-11
1.5832659e-11
1.6158714e-11
1.681934e-11
1.7722485e-11
1.8914496e-11
2.0451314e-11
2.2384209e-11
2.4739654e-11
2.7516239e-11
3.0682343e-11
3.408846e-11
3.7451594e-11
4.0492065e-11
4.307457e-11
4.5135426e-11
4.6792789e-11
4.8114769e-11
4.9191449e-11
5.0077406e-11
5.0798436e-11
5.1371114e-11
5.1811128e-11
5.2126498e-11
5.2313608e-11
5.236754e-11
5.2296462e-11
5.2118684e-11
5.1855918e-11
5.1529628e-11
5.1156606e-11
5.0750781e-11
5.0324737e-11
4.9887301e-11
4.9444112e-11
4.8999738e-11
4.8558495e-11
4.8122784e-11
4.7693647e-11
4.7271286e-11
4.6856141e-11
4.6448633e-11
4.6048054e-11
4.5648267e-11
4.5255131e-11
4.4824685e-11
4.4441701e-11
4.3884412e-11
9.6945403e-05
8.0487257e-05
7.9398041e-05
7.9385125e-05
7.9439023e-05
7.9456822e-05
7.9461658e-05
7.9464223e-05
7.9466911e-05
7.9470231e-05
7.9474413e-05
7.9479676e-05
7.9486291e-05
7.9494622e-05
7.950516e-05
7.9518637e-05
7.9536165e-05
7.9559103e-05
7.9593031e-05
7.9627274e-05
7.9761487e-05
7.9555561e-05
8.1327642e-05
2.2350454e-05
3.8762896e-09
5.4989922e-10
2.7876613e-10
1.8808111e-10
1.4379764e-10
1.1684254e-10
9.8620506e-11
8.5310844e-11
7.5139799e-11
6.7115064e-11
6.0607521e-11
5.521466e-11
5.0672286e-11
4.6793831e-11
4.3441975e-11
4.0514718e-11
3.7935275e-11
3.564347e-11
3.3593809e-11
3.1749559e-11
3.0081135e-11
2.856438e-11
2.7179373e-11
2.5909575e-11
2.4741126e-11
2.3662176e-11
2.2661977e-11
2.1732076e-11
2.0864949e-11
2.0054016e-11
1.9293763e-11
1.8580729e-11
1.7914088e-11
1.7290558e-11
1.6704065e-11
1.6151347e-11
1.562995e-11
1.5137729e-11
1.4672821e-11
1.4233616e-11
1.381832e-11
1.3425334e-11
1.3053318e-11
1.270135e-11
1.2367669e-11
1.2049198e-11
1.1742513e-11
1.1460293e-11
1.1213386e-11
1.0988681e-11
1.0786668e-11
1.0608655e-11
1.0456328e-11
1.0332139e-11
1.0238335e-11
1.0174899e-11
1.0130498e-11
1.0091906e-11
1.0176164e-11
1.0335405e-11
1.0575705e-11
1.0915577e-11
1.1378763e-11
1.1995131e-11
1.2793016e-11
1.3741746e-11
1.4917505e-11
1.6650698e-11
1.8855162e-11
2.1633052e-11
2.5099107e-11
2.9358909e-11
3.4470719e-11
4.0441319e-11
4.719733e-11
5.4405426e-11
6.1469975e-11
6.7825179e-11
7.3178724e-11
7.7495358e-11
8.0983924e-11
8.3824769e-11
8.618642e-11
8.8172971e-11
8.9827024e-11
9.1178994e-11
9.2260438e-11
9.3083216e-11
9.3638277e-11
9.3911353e-11
9.3914334e-11
9.3687541e-11
9.327861e-11
9.2732347e-11
9.2085697e-11
9.1368866e-11
9.0606621e-11
8.9816997e-11
8.9012895e-11
8.8204001e-11
8.7398062e-11
8.6599972e-11
8.5812759e-11
8.5037749e-11
8.4275851e-11
8.3528369e-11
8.2792137e-11
8.2066257e-11
8.1340981e-11
8.0593422e-11
7.989519e-11
7.8876432e-11
9.6894233e-05
8.0400385e-05
7.930998e-05
7.929647e-05
7.9350287e-05
7.9368086e-05
7.9372923e-05
7.9375487e-05
7.9378174e-05
7.9381494e-05
7.9385676e-05
7.9390941e-05
7.9397559e-05
7.9405893e-05
7.9416435e-05
7.9429916e-05
7.9447449e-05
7.947039e-05
7.9504321e-05
7.9538547e-05
7.967279e-05
7.9466601e-05
8.1238657e-05
2.2346532e-05
2.7026579e-09
3.3269652e-10
1.6865224e-10
1.138142e-10
8.7118437e-11
7.0886783e-11
5.9906646e-11
5.1879301e-11
4.5741536e-11
4.089693e-11
3.6964124e-11
3.3702473e-11
3.0957892e-11
2.8618348e-11
2.6599187e-11
2.4837802e-11
2.3286598e-11
2.1908883e-11
2.0677469e-11
1.9570494e-11
1.8570285e-11
1.7662359e-11
1.6834762e-11
1.6077574e-11
1.5382464e-11
1.4742124e-11
1.4149012e-11
1.3598074e-11
1.3084584e-11
1.2604341e-11
1.215404e-11
1.1733255e-11
1.1345736e-11
1.0990154e-11
1.0659477e-11
1.0351371e-11
1.0064592e-11
9.7981066e-12
9.5510901e-12
9.3229577e-12
9.1124529e-12
8.9186534e-12
8.7410333e-12
8.5796134e-12
8.432904e-12
8.2970628e-12
8.1674462e-12
8.0664338e-12
8.0138703e-12
7.9891487e-12
7.9944642e-12
8.0336144e-12
8.1112369e-12
8.23337e-12
8.4064475e-12
8.6346431e-12
8.9083937e-12
9.2128582e-12
9.704128e-12
1.0332734e-11
1.1118465e-11
1.2100592e-11
1.3329936e-11
1.4871559e-11
1.6794421e-11
1.9095065e-11
2.190485e-11
2.5743418e-11
3.0559085e-11
3.6570467e-11
4.4019194e-11
5.3128424e-11
6.4024734e-11
7.6731799e-11
9.109984e-11
1.0642791e-10
1.2146521e-10
1.3501628e-10
1.4642965e-10
1.5566521e-10
1.6313511e-10
1.6924298e-10
1.7433686e-10
1.7863534e-10
1.8222668e-10
1.8517687e-10
1.875546e-10
1.8938374e-10
1.9064487e-10
1.9130588e-10
1.913894e-10
1.9098204e-10
1.90186e-10
1.890963e-10
1.8779226e-10
1.8633851e-10
1.8478682e-10
1.8317523e-10
1.8153167e-10
1.7987677e-10
1.7822631e-10
1.7659061e-10
1.7497652e-10
1.7338732e-10
1.7182493e-10
1.7029234e-10
1.6878196e-10
1.6729797e-10
1.658085e-10
1.6430011e-10
1.6287097e-10
1.6078417e-10
9.6828947e-05
8.0289411e-05
7.9197482e-05
7.918321e-05
7.9236922e-05
7.9254722e-05
7.925956e-05
7.9262123e-05
7.9264808e-05
7.9268129e-05
7.9272312e-05
7.9277578e-05
7.9284199e-05
7.9292537e-05
7.9303084e-05
7.9316571e-05
7.9334109e-05
7.9357054e-05
7.9390989e-05
7.9425195e-05
7.9559474e-05
7.935295e-05
8.112499e-05
2.2342172e-05
2.3306315e-09
2.2321351e-10
1.1314431e-10
7.6401669e-11
5.86636e-11
4.7911001e-11
4.0624374e-11
3.5284372e-11
3.1195446e-11
2.7964483e-11
2.5335224e-11
2.3150895e-11
2.1316906e-11
1.9759564e-11
1.8419887e-11
1.7254675e-11
1.6230092e-11
1.5321031e-11
1.4509836e-11
1.3782486e-11
1.3127516e-11
1.2535445e-11
1.1998425e-11
1.1509961e-11
1.106456e-11
1.0657244e-11
1.0281397e-11
9.9335929e-12
9.6105193e-12
9.3091844e-12
9.0274796e-12
8.7673554e-12
8.5369978e-12
8.3365449e-12
8.1570254e-12
7.9965092e-12
7.8545936e-12
7.7310573e-12
7.6258946e-12
7.5394163e-12
7.4704912e-12
7.4188989e-12
7.3852796e-12
7.3709202e-12
7.3752212e-12
7.3945679e-12
7.4241453e-12
7.4934936e-12
7.6302691e-12
7.8109911e-12
8.0411065e-12
8.3286296e-12
8.6832953e-12
9.1174483e-12
9.6450797e-12
1.0278339e-11
1.1012805e-11
1.1833726e-11
1.2955753e-11
1.4332045e-11
1.6008122e-11
1.8060896e-11
2.0590295e-11
2.3725505e-11
2.7610569e-11
3.2296946e-11
3.802667e-11
4.5636842e-11
5.5152085e-11
6.7002394e-11
8.1661306e-11
9.9567231e-11
1.2097227e-10
1.4593249e-10
1.7416713e-10
2.0431993e-10
2.3395472e-10
2.6071797e-10
2.832827e-10
3.0157004e-10
3.1636161e-10
3.284636e-10
3.3855624e-10
3.4707147e-10
3.5418588e-10
3.6003405e-10
3.647547e-10
3.6839549e-10
3.709187e-10
3.7226043e-10
3.7246399e-10
3.7170026e-10
3.7017086e-10
3.6806267e-10
3.6553219e-10
3.6270683e-10
3.5968799e-10
3.565504e-10
3.533493e-10
3.5012529e-10
3.4690908e-10
3.4372094e-10
3.4057456e-10
3.3747664e-10
3.3443093e-10
3.3144344e-10
3.284988e-10
3.2560832e-10
3.227036e-10
3.1977608e-10
3.1699153e-10
3.1292478e-10
9.6748028e-05
8.0151624e-05
7.9057788e-05
7.9042571e-05
7.909615e-05
7.9113949e-05
7.9118789e-05
7.912135e-05
7.9124034e-05
7.9127355e-05
7.9131539e-05
7.9136808e-05
7.9143432e-05
7.9151775e-05
7.9162328e-05
7.9175821e-05
7.9193366e-05
7.9216317e-05
7.9250256e-05
7.9284437e-05
7.9418759e-05
7.9211821e-05
8.0983878e-05
2.2338238e-05
2.4568313e-09
1.6810123e-10
8.5195969e-11
5.7605729e-11
4.4529255e-11
3.6656794e-11
3.1301197e-11
2.7355434e-11
2.4324676e-11
2.192433e-11
1.9962477e-11
1.8327798e-11
1.6960534e-11
1.5807518e-11
1.4821938e-11
1.3970077e-11
1.3223614e-11
1.2562867e-11
1.1975478e-11
1.1451926e-11
1.0984206e-11
1.0565555e-11
1.0190343e-11
9.8539415e-12
9.5523838e-12
9.2821266e-12
9.0362754e-12
8.8119131e-12
8.6066764e-12
8.418482e-12
8.246066e-12
8.0930575e-12
7.9709121e-12
7.8810429e-12
7.8133021e-12
7.7662241e-12
7.7402062e-12
7.7358487e-12
7.754037e-12
7.7961514e-12
7.8608785e-12
7.9488694e-12
8.062485e-12
8.2049205e-12
8.3770498e-12
8.5759452e-12
8.7970293e-12
9.0796092e-12
9.4622437e-12
9.9189031e-12
1.0460503e-11
1.1102056e-11
1.1861805e-11
1.2762696e-11
1.3831515e-11
1.5094149e-11
1.6556114e-11
1.8205339e-11
2.0348737e-11
2.2946464e-11
2.6088231e-11
2.9914837e-11
3.4609645e-11
4.0411099e-11
4.7592718e-11
5.6310293e-11
6.7001176e-11
8.1001246e-11
9.8488745e-11
1.2025319e-10
1.471634e-10
1.8002514e-10
2.1930571e-10
2.6511921e-10
3.1697027e-10
3.7240089e-10
4.2696604e-10
4.7633125e-10
5.1799507e-10
5.5179091e-10
5.7912365e-10
6.0148442e-10
6.2012222e-10
6.3583624e-10
6.4895774e-10
6.5974184e-10
6.6844889e-10
6.751686e-10
6.7983256e-10
6.8232318e-10
6.8271944e-10
6.8133594e-10
6.7854375e-10
6.7468656e-10
6.7005241e-10
6.6487572e-10
6.593428e-10
6.5359098e-10
6.4772202e-10
6.4181058e-10
6.3591295e-10
6.3006641e-10
6.2429627e-10
6.1861493e-10
6.1302934e-10
6.0755056e-10
6.0215014e-10
5.9685054e-10
5.9152286e-10
5.8616121e-10
5.8105535e-10
5.7359791e-10
9.6649719e-05
7.9983859e-05
7.8887682e-05
7.887131e-05
7.8924725e-05
7.8942523e-05
7.8947365e-05
7.8949924e-05
7.8952606e-05
7.8955926e-05
7.8960112e-05
7.8965384e-05
7.8972013e-05
7.8980362e-05
7.8990922e-05
7.9004423e-05
7.9021975e-05
7.9044933e-05
7.9078877e-05
7.9113027e-05
7.9247399e-05
7.9039957e-05
8.0812101e-05
2.2335922e-05
3.002303e-09
1.4705222e-10
7.4510658e-11
5.0493059e-11
3.9468067e-11
3.2913438e-11
2.8424155e-11
2.5085949e-11
2.2508434e-11
2.0459392e-11
1.8775926e-11
1.7368782e-11
1.6196865e-11
1.5216876e-11
1.4386659e-11
1.367651e-11
1.3058011e-11
1.2512873e-11
1.2031624e-11
1.1607419e-11
1.1234151e-11
1.0906437e-11
1.0619752e-11
1.0370422e-11
1.0155221e-11
9.9715504e-12
9.810953e-12
9.6702309e-12
9.5477409e-12
9.4422052e-12
9.3531071e-12
9.2858687e-12
9.2557477e-12
9.2656093e-12
9.3038249e-12
9.369458e-12
9.4638782e-12
9.5887303e-12
9.7460894e-12
9.9388409e-12
1.0165168e-11
1.0426961e-11
1.0729236e-11
1.1078184e-11
1.1477065e-11
1.1924261e-11
1.2415989e-11
1.3006381e-11
1.3750333e-11
1.4618794e-11
1.5631572e-11
1.6815012e-11
1.820118e-11
1.9830282e-11
2.1750053e-11
2.4009232e-11
2.6631531e-11
2.9612712e-11
3.3398535e-11
3.796558e-11
4.3476589e-11
5.0176728e-11
5.8385744e-11
6.8521129e-11
8.107076e-11
9.637787e-11
1.1520486e-10
1.3964436e-10
1.7016192e-10
2.0813532e-10
2.5508074e-10
3.1240616e-10
3.8093307e-10
4.6087465e-10
5.5139404e-10
6.4824598e-10
7.4370864e-10
8.3019534e-10
9.0325232e-10
9.6254849e-10
1.0104997e-09
1.0497195e-09
1.0823908e-09
1.1099179e-09
1.1328899e-09
1.1517634e-09
1.1670008e-09
1.1787622e-09
1.1869294e-09
1.1912971e-09
1.1920033e-09
1.1895979e-09
1.1847297e-09
1.1779996e-09
1.1699112e-09
1.1608743e-09
1.1512144e-09
1.1411716e-09
1.1309238e-09
1.1206015e-09
1.110303e-09
1.1000936e-09
1.0900173e-09
1.0800962e-09
1.0703422e-09
1.0607748e-09
1.0513441e-09
1.0420903e-09
1.0327863e-09
1.0234277e-09
1.014512e-09
1.0014896e-09
9.6532036e-05
7.9782499e-05
7.8683484e-05
7.8665723e-05
7.8718936e-05
7.8736732e-05
7.8741576e-05
7.8744133e-05
7.8746812e-05
7.8750132e-05
7.8754319e-05
7.8759595e-05
7.8766229e-05
7.8774585e-05
7.8785153e-05
7.8798664e-05
7.8816225e-05
7.8839191e-05
7.8873141e-05
7.8907254e-05
7.9041685e-05
7.8833639e-05
8.0605984e-05
2.2336816e-05
3.9966279e-09
1.5344118e-10
7.7727417e-11
5.2815052e-11
4.1834695e-11
3.5416106e-11
3.0980665e-11
2.7642525e-11
2.5048002e-11
2.2975903e-11
2.1264847e-11
1.9830886e-11
1.8641369e-11
1.7654983e-11
1.6827766e-11
1.6129505e-11
1.5526301e-11
1.4997754e-11
1.453566e-11
1.4134727e-11
1.3789703e-11
1.3495634e-11
1.3248296e-11
1.3044327e-11
1.2880673e-11
1.2755413e-11
1.265695e-11
1.2581029e-11
1.2526672e-11
1.2493497e-11
1.2481832e-11
1.249945e-11
1.2566808e-11
1.2688673e-11
1.2851251e-11
1.3054305e-11
1.3300559e-11
1.3593146e-11
1.3935882e-11
1.4333905e-11
1.4784481e-11
1.5291381e-11
1.5863782e-11
1.6512601e-11
1.7244979e-11
1.8061735e-11
1.8960956e-11
2.0018885e-11
2.1314562e-11
2.2815792e-11
2.4556551e-11
2.6581174e-11
2.89437e-11
3.1711812e-11
3.4966752e-11
3.8794354e-11
4.3250379e-11
4.8347833e-11
5.473493e-11
6.2422964e-11
7.169235e-11
8.2954502e-11
9.6746555e-11
1.1377197e-10
1.3486393e-10
1.6068766e-10
1.925289e-10
2.3360743e-10
2.8489647e-10
3.4871213e-10
4.2760369e-10
5.2394098e-10
6.3911309e-10
7.7349659e-10
9.2572194e-10
1.0887123e-09
1.2495324e-09
1.3953958e-09
1.5186963e-09
1.6188173e-09
1.6997748e-09
1.7659758e-09
1.8210955e-09
1.867509e-09
1.906222e-09
1.9380177e-09
1.9636841e-09
1.9834955e-09
1.9972552e-09
2.004618e-09
2.005816e-09
2.0017753e-09
1.9935884e-09
1.9822666e-09
1.9686579e-09
1.9534523e-09
1.9371977e-09
1.9202982e-09
1.9030535e-09
1.8856832e-09
1.8683528e-09
1.851172e-09
1.8342154e-09
1.8175196e-09
1.8011052e-09
1.7850048e-09
1.7691343e-09
1.7535622e-09
1.7379048e-09
1.7221585e-09
1.707155e-09
1.6852407e-09
9.6392778e-05
7.9543477e-05
7.8441049e-05
7.8421636e-05
7.8474603e-05
7.8492395e-05
7.8497242e-05
7.8499795e-05
7.8502472e-05
7.8505791e-05
7.850998e-05
7.851526e-05
7.85219e-05
7.8530265e-05
7.8540842e-05
7.8554364e-05
7.8571937e-05
7.8594911e-05
7.8628867e-05
7.8662938e-05
7.8797436e-05
7.8588674e-05
8.0361391e-05
2.2343e-05
5.5460378e-09
1.8794256e-10
9.51849e-11
6.4828756e-11
5.1936683e-11
4.4523503e-11
3.9356877e-11
3.542401e-11
3.2348757e-11
2.9882608e-11
2.7838977e-11
2.6123964e-11
2.4705068e-11
2.353558e-11
2.2562998e-11
2.1752052e-11
2.1057013e-11
2.0451536e-11
1.9927343e-11
1.9479914e-11
1.9103995e-11
1.8794217e-11
1.8545935e-11
1.8355532e-11
1.8219604e-11
1.8136801e-11
1.8090254e-11
1.8073684e-11
1.8086892e-11
1.8130705e-11
1.8206596e-11
1.832562e-11
1.851553e-11
1.8783743e-11
1.9113441e-11
1.9505432e-11
1.9964435e-11
2.0495807e-11
2.1105986e-11
2.1803547e-11
2.2584256e-11
2.3454796e-11
2.4430856e-11
2.5530762e-11
2.6767936e-11
2.8147602e-11
2.967169e-11
3.1448659e-11
3.3592651e-11
3.6069244e-11
3.8934656e-11
4.2261341e-11
4.6137717e-11
5.067448e-11
5.6005566e-11
6.2275896e-11
6.9595749e-11
7.8011504e-11
8.8461549e-11
1.0102418e-10
1.1616594e-10
1.3455849e-10
1.5707945e-10
1.8488097e-10
2.1934181e-10
2.6166226e-10
3.1395302e-10
3.8109588e-10
4.6492483e-10
5.6922659e-10
6.9817003e-10
8.5563392e-10
1.0439003e-09
1.2636087e-09
1.5125701e-09
1.7792943e-09
2.042693e-09
2.2818152e-09
2.4840665e-09
2.6483543e-09
2.7811863e-09
2.8897845e-09
2.9801664e-09
3.0562345e-09
3.1196541e-09
3.1717268e-09
3.2137555e-09
3.2461954e-09
3.2687275e-09
3.2807878e-09
3.2827559e-09
3.2761483e-09
3.2627533e-09
3.2442263e-09
3.2219557e-09
3.1970709e-09
3.1704688e-09
3.1428108e-09
3.1145876e-09
3.0861586e-09
3.0577949e-09
3.0296757e-09
3.0019234e-09
2.9745981e-09
2.9477331e-09
2.9213821e-09
2.8954073e-09
2.8699213e-09
2.8442951e-09
2.8185257e-09
2.79397e-09
2.7581037e-09
9.6229535e-05
7.9262266e-05
7.8155765e-05
7.8134402e-05
7.8187071e-05
7.8204857e-05
7.8209706e-05
7.8212255e-05
7.8214928e-05
7.8218246e-05
7.8222437e-05
7.8227721e-05
7.823437e-05
7.8242743e-05
7.8253333e-05
7.8266868e-05
7.8284452e-05
7.8307437e-05
7.83414e-05
7.8375421e-05
7.8509995e-05
7.8300399e-05
8.0073729e-05
2.235713e-05
7.8328562e-09
2.5692953e-10
1.3010938e-10
8.8753602e-11
7.1636853e-11
6.1912062e-11
5.5092702e-11
4.9859724e-11
4.5750845e-11
4.2446712e-11
3.9704305e-11
3.7402602e-11
3.5500457e-11
3.3937296e-11
3.2643909e-11
3.157461e-11
3.0663369e-11
2.9872971e-11
2.9193709e-11
2.862118e-11
2.8149268e-11
2.7771271e-11
2.7481316e-11
2.7274917e-11
2.7147733e-11
2.7099019e-11
2.7103604e-11
2.7151843e-11
2.7244624e-11
2.7384592e-11
2.7574922e-11
2.7831315e-11
2.8191718e-11
2.8667319e-11
2.9237317e-11
2.9904177e-11
3.0675624e-11
3.1560375e-11
3.2568856e-11
3.3714891e-11
3.4991896e-11
3.6411067e-11
3.7998227e-11
3.9783211e-11
4.1789498e-11
4.403e-11
4.6513888e-11
4.9395868e-11
5.2840594e-11
5.6814212e-11
6.1407441e-11
6.6736172e-11
7.294198e-11
8.0202088e-11
8.8732236e-11
9.8770105e-11
1.1051615e-10
1.2407673e-10
1.408025e-10
1.6089284e-10
1.8510467e-10
2.1451201e-10
2.5051915e-10
2.9497323e-10
3.5010307e-10
4.1797655e-10
5.0198623e-10
6.0945083e-10
7.4362112e-10
9.1055967e-10
1.1169424e-09
1.3689852e-09
1.6703563e-09
2.0221114e-09
2.4208125e-09
2.8481711e-09
3.2705038e-09
3.654206e-09
3.9789017e-09
4.2427267e-09
4.4560238e-09
4.6303766e-09
4.775432e-09
4.8974637e-09
4.9991663e-09
5.082652e-09
5.1500257e-09
5.2020262e-09
5.2381457e-09
5.2574814e-09
5.2606423e-09
5.2500586e-09
5.2285967e-09
5.1989098e-09
5.1632226e-09
5.1233456e-09
5.0807162e-09
5.0363943e-09
4.9911663e-09
4.9456085e-09
4.9001549e-09
4.8550933e-09
4.8106194e-09
4.7668298e-09
4.723778e-09
4.6815496e-09
4.6399241e-09
4.5990822e-09
4.5580154e-09
4.5167204e-09
4.4773694e-09
4.4198926e-09
9.6039705e-05
7.8933877e-05
7.782254e-05
7.7798893e-05
7.7851201e-05
7.7868978e-05
7.787383e-05
7.7876374e-05
7.7879042e-05
7.7882359e-05
7.7886552e-05
7.7891842e-05
7.7898498e-05
7.7906883e-05
7.7917486e-05
7.7931036e-05
7.7948635e-05
7.7971632e-05
7.8005602e-05
7.8039566e-05
7.8174225e-05
7.796367e-05
7.9737937e-05
2.2382538e-05
1.1131704e-08
3.7283717e-10
1.887983e-10
1.2890215e-10
1.0448002e-10
9.0705124e-11
8.1010942e-11
7.3536774e-11
6.7654359e-11
6.2916938e-11
5.8983984e-11
5.5685068e-11
5.2959086e-11
5.0720494e-11
4.8872491e-11
4.7351949e-11
4.6060533e-11
4.4943303e-11
4.3987488e-11
4.3188149e-11
4.2537283e-11
4.202568e-11
4.164521e-11
4.1389749e-11
4.125326e-11
4.1235794e-11
4.129947e-11
4.1429319e-11
4.1627895e-11
4.1900696e-11
4.2253515e-11
4.2708641e-11
4.3318135e-11
4.4098626e-11
4.5024308e-11
4.6100317e-11
4.733892e-11
4.875393e-11
5.0361837e-11
5.2184457e-11
5.4211586e-11
5.6461406e-11
5.8975379e-11
6.1801076e-11
6.4977884e-11
6.8531724e-11
7.2484621e-11
7.7057156e-11
8.2486276e-11
8.8744606e-11
9.5975893e-11
1.0436255e-10
1.141276e-10
1.2555024e-10
1.38972e-10
1.5477453e-10
1.7330428e-10
1.9477031e-10
2.2110679e-10
2.5272196e-10
2.9082103e-10
3.3709444e-10
3.9375371e-10
4.6371243e-10
5.5051019e-10
6.5759632e-10
7.9033484e-10
9.5960657e-10
1.1709442e-09
1.4338999e-09
1.7589945e-09
2.1560296e-09
2.6308052e-09
3.185026e-09
3.8133648e-09
4.48715e-09
5.153415e-09
5.7591293e-09
6.2719056e-09
6.6886524e-09
7.0255652e-09
7.3009223e-09
7.5299407e-09
7.7225405e-09
7.8830049e-09
8.0146992e-09
8.120966e-09
8.2029816e-09
8.2599504e-09
8.2904505e-09
8.2954424e-09
8.2787589e-09
8.2449201e-09
8.1981101e-09
8.1418376e-09
8.0789576e-09
8.0117367e-09
7.9418466e-09
7.8705273e-09
7.7986878e-09
7.7270125e-09
7.6559549e-09
7.5858242e-09
7.5167725e-09
7.448884e-09
7.3822941e-09
7.3166548e-09
7.2522514e-09
7.187493e-09
7.122376e-09
7.0603234e-09
6.9696883e-09
9.5820513e-05
7.8552859e-05
7.7435804e-05
7.7409493e-05
7.7461371e-05
7.7479134e-05
7.7483988e-05
7.7486525e-05
7.7489188e-05
7.7492502e-05
7.7496698e-05
7.7501994e-05
7.750866e-05
7.7517058e-05
7.7527675e-05
7.7541242e-05
7.7558858e-05
7.7581869e-05
7.7615847e-05
7.7649746e-05
7.7784498e-05
7.7572863e-05
7.9348486e-05
2.2423319e-05
1.5839301e-08
5.5589331e-10
2.8149676e-10
1.9228172e-10
1.5619283e-10
1.3591821e-10
1.2162315e-10
1.1057453e-10
1.0186872e-10
9.4852502e-11
8.9030289e-11
8.4151054e-11
8.0117598e-11
7.6803778e-11
7.4069953e-11
7.1825798e-11
6.9923182e-11
6.8279522e-11
6.6876796e-11
6.5708764e-11
6.4764165e-11
6.4029666e-11
6.3493455e-11
6.3146705e-11
6.2980631e-11
6.2996479e-11
6.3137186e-11
6.3379552e-11
6.3728762e-11
6.4194834e-11
6.4787635e-11
6.5538775e-11
6.6519754e-11
6.7755083e-11
6.9212941e-11
7.0902749e-11
7.2843646e-11
7.5057154e-11
7.7568949e-11
8.0412967e-11
8.3573503e-11
8.7079476e-11
9.0996326e-11
9.5398767e-11
1.0035107e-10
1.0590063e-10
1.1209136e-10
1.1923734e-10
1.2767876e-10
1.3740567e-10
1.4864277e-10
1.6167364e-10
1.7684532e-10
1.9459217e-10
2.1544776e-10
2.4001533e-10
2.6887363e-10
3.0240216e-10
3.4335975e-10
3.925033e-10
4.5172465e-10
5.2365222e-10
6.117262e-10
7.204851e-10
8.5547399e-10
1.022312e-09
1.2293722e-09
1.4927341e-09
1.8215471e-09
2.2306766e-09
2.7364992e-09
3.3542801e-09
4.093073e-09
4.9555855e-09
5.9336472e-09
6.9828293e-09
8.0208398e-09
8.9650371e-09
9.764641e-09
1.0414633e-08
1.0940085e-08
1.1369478e-08
1.172652e-08
1.2026694e-08
1.2276717e-08
1.2481876e-08
1.2647407e-08
1.2775157e-08
1.2863895e-08
1.2911408e-08
1.2919191e-08
1.2893216e-08
1.2840522e-08
1.2767625e-08
1.267999e-08
1.2582064e-08
1.2477376e-08
1.2368532e-08
1.2257461e-08
1.2145579e-08
1.2033953e-08
1.1923289e-08
1.1814068e-08
1.1706527e-08
1.1600799e-08
1.1497092e-08
1.1394866e-08
1.1294565e-08
1.119371e-08
1.1092298e-08
1.0995658e-08
1.0854504e-08
9.5569033e-05
7.8113298e-05
7.6989502e-05
7.6960102e-05
7.7011464e-05
7.7029207e-05
7.7034063e-05
7.7036592e-05
7.7039248e-05
7.704256e-05
7.7046758e-05
7.7052061e-05
7.7058738e-05
7.706715e-05
7.7077784e-05
7.7091371e-05
7.7109005e-05
7.7132031e-05
7.7166018e-05
7.7199842e-05
7.7334696e-05
7.7121852e-05
7.8899401e-05
2.2484414e-05
2.2519077e-08
8.3725101e-10
4.2398391e-10
2.8968001e-10
2.35573e-10
2.0523968e-10
1.8383319e-10
1.6726806e-10
1.5420851e-10
1.4368048e-10
1.349502e-10
1.2764078e-10
1.2159488e-10
1.1662303e-10
1.1252082e-10
1.0915678e-10
1.063072e-10
1.0384727e-10
1.0175062e-10
1.000087e-10
9.8605066e-11
9.7519931e-11
9.6735747e-11
9.6239458e-11
9.6018018e-11
9.6074564e-11
9.6323295e-11
9.6728443e-11
9.7299376e-11
9.8053248e-11
9.9006246e-11
1.0020317e-10
1.0174222e-10
1.0365934e-10
1.0591583e-10
1.0852793e-10
1.1152513e-10
1.149406e-10
1.1881388e-10
1.2319722e-10
1.280666e-10
1.3346735e-10
1.3950147e-10
1.4628498e-10
1.5392073e-10
1.6249082e-10
1.7207541e-10
1.8312108e-10
1.9611548e-10
2.1108509e-10
2.2837745e-10
2.4842929e-10
2.7177538e-10
2.990851e-10
3.3118353e-10
3.6901251e-10
4.1351586e-10
4.6534932e-10
5.2843759e-10
6.0410574e-10
6.9529085e-10
8.0604117e-10
9.4165734e-10
1.1091405e-09
1.3170856e-09
1.5744844e-09
1.8942761e-09
2.3001236e-09
2.8068373e-09
3.4373314e-09
4.2168532e-09
5.1689479e-09
6.3076079e-09
7.6370797e-09
9.1449296e-09
1.0762931e-08
1.2364423e-08
1.3821871e-08
1.5056498e-08
1.6060292e-08
1.6871726e-08
1.7534747e-08
1.8085929e-08
1.8549202e-08
1.8934985e-08
1.9251495e-08
1.9506848e-08
1.9703914e-08
1.9840801e-08
1.9914099e-08
1.9926118e-08
1.9886065e-08
1.9804799e-08
1.9692371e-08
1.9557211e-08
1.9406176e-08
1.9244712e-08
1.9076835e-08
1.8905524e-08
1.8732962e-08
1.8560794e-08
1.8390109e-08
1.8221651e-08
1.8055783e-08
1.789271e-08
1.7732756e-08
1.7575085e-08
1.7420384e-08
1.7264829e-08
1.7108415e-08
1.695936e-08
1.6741647e-08
9.5282228e-05
7.7608825e-05
7.6477103e-05
7.6444133e-05
7.6494881e-05
7.6512597e-05
7.6517453e-05
7.6519972e-05
7.652262e-05
7.6525929e-05
7.6530129e-05
7.6535439e-05
7.6542128e-05
7.6550556e-05
7.656121e-05
7.6574818e-05
7.6592473e-05
7.6615516e-05
7.6649511e-05
7.6683252e-05
7.6818216e-05
7.6604019e-05
7.8384261e-05
2.2571674e-05
3.1964221e-08
1.2639241e-09
6.4007189e-10
4.3737367e-10
3.5588354e-10
3.1024998e-10
2.7803269e-10
2.5308739e-10
2.3341686e-10
2.1755804e-10
2.0441712e-10
1.9342469e-10
1.8432687e-10
1.7683732e-10
1.7065492e-10
1.6558683e-10
1.6129558e-10
1.5759249e-10
1.5443836e-10
1.5182095e-10
1.4971578e-10
1.4809325e-10
1.4692703e-10
1.4619762e-10
1.4588549e-10
1.459968e-10
1.4640288e-10
1.4704893e-10
1.4795091e-10
1.4913718e-10