/*--------------------------------*- C++ -*----------------------------------*\
| =========                 |                                                 |
| \\      /  F ield         | OpenFOAM: The Open Source CFD Toolbox           |
|  \\    /   O peration     | Version:  2206                                  |
|   \\  /    A nd           | Website:  www.openfoam.com                      |
|    \\/     M anipulation  |                                                 |
\*---------------------------------------------------------------------------*/
FoamFile
{
    version     2.0;
    format      ascii;
    arch        "LSB;label=32;scalar=64";
    class       volScalarField;
    location    "1200";
    object      nut;
}
// * * * * * * * * * * * * * * * * * * * * * * * * * * * * * * * * * * * * * //

dimensions      [0 2 -1 0 0 0 0];

internalField   nonuniform List<scalar> 
13056
(
1.939758e-07
1.9214528e-07
1.9222828e-07
1.9244133e-07
1.9256352e-07
1.9261957e-07
1.9264814e-07
1.9266593e-07
1.9267903e-07
1.9268988e-07
1.9269968e-07
1.9270925e-07
1.9271925e-07
1.9273031e-07
1.9274319e-07
1.927587e-07
1.9277875e-07
1.9280242e-07
1.9284709e-07
1.9284903e-07
1.9315224e-07
1.9243304e-07
1.9197136e-07
1.1433053e-09
2.6290225e-16
4.0789441e-17
2.0678181e-17
1.3950223e-17
1.066098e-17
8.6580139e-18
7.3043284e-18
6.3159168e-18
5.5607476e-18
4.9650336e-18
4.4821703e-18
4.0821539e-18
3.745075e-18
3.4570545e-18
3.2079986e-18
2.9903946e-18
2.7986039e-18
2.6281767e-18
2.4757222e-18
2.3384987e-18
2.214301e-18
2.1013311e-18
1.9981066e-18
1.9033966e-18
1.8161708e-18
1.7355614e-18
1.6608284e-18
1.5913375e-18
1.5265436e-18
1.4659751e-18
1.409223e-18
1.3559312e-18
1.3057856e-18
1.2585088e-18
1.2138562e-18
1.171611e-18
1.1315797e-18
1.0935912e-18
1.0574932e-18
1.0231486e-18
9.9043241e-19
9.592328e-19
9.2944988e-19
9.0099414e-19
8.737846e-19
8.4774898e-19
8.2282429e-19
7.9895499e-19
7.7609179e-19
7.5419209e-19
7.33219e-19
7.131416e-19
6.9393517e-19
6.7558412e-19
6.580876e-19
6.4145132e-19
6.2568796e-19
6.1081945e-19
5.9687491e-19
5.8389493e-19
5.7194506e-19
5.6111562e-19
5.5152409e-19
5.4335033e-19
5.3686989e-19
5.3220698e-19
5.3018536e-19
5.3058871e-19
5.3427584e-19
5.4165566e-19
5.5339344e-19
5.701196e-19
5.9216309e-19
6.1953172e-19
6.5242549e-19
6.9021401e-19
7.3027183e-19
7.6870311e-19
8.0292181e-19
8.2973904e-19
8.5078495e-19
8.6624418e-19
8.7757995e-19
8.8575427e-19
8.9145439e-19
8.9511735e-19
8.9705376e-19
8.9750329e-19
8.9647702e-19
8.9400427e-19
8.9028028e-19
8.8547426e-19
8.7978954e-19
8.7347108e-19
8.6667398e-19
8.5953544e-19
8.5222794e-19
8.4485972e-19
8.3747337e-19
8.3011813e-19
8.2286754e-19
8.1575121e-19
8.0876469e-19
8.0189281e-19
7.9514086e-19
7.8850539e-19
7.8201084e-19
7.7535784e-19
7.6903638e-19
7.6121873e-19
7.5490045e-19
7.4575932e-19
1.9397512e-07
1.9214391e-07
1.9222696e-07
1.9244007e-07
1.925623e-07
1.9261836e-07
1.9264694e-07
1.9266474e-07
1.9267785e-07
1.9268869e-07
1.926985e-07
1.9270808e-07
1.9271807e-07
1.9272913e-07
1.9274202e-07
1.9275753e-07
1.9277758e-07
1.9280126e-07
1.9284593e-07
1.9284787e-07
1.9315112e-07
1.9243185e-07
1.9197102e-07
1.1606397e-09
2.4670416e-16
3.8120616e-17
1.9325204e-17
1.3037452e-17
9.9634274e-18
8.0915183e-18
6.8264059e-18
5.9026669e-18
5.1969092e-18
4.6401733e-18
4.1889041e-18
3.8150609e-18
3.5000374e-18
3.2308627e-18
2.9981032e-18
2.7947378e-18
2.6154967e-18
2.4562211e-18
2.3137424e-18
2.185498e-18
2.0694272e-18
1.9638495e-18
1.8673797e-18
1.7788672e-18
1.6973492e-18
1.6220148e-18
1.5521721e-18
1.4872285e-18
1.4266745e-18
1.3700693e-18
1.3170306e-18
1.2672259e-18
1.2203619e-18
1.1761795e-18
1.1344497e-18
1.0949698e-18
1.0575591e-18
1.0220576e-18
9.8832308e-19
9.5622728e-19
9.2565348e-19
8.9649712e-19
8.6866479e-19
8.4207286e-19
8.1664551e-19
7.9231485e-19
7.6902165e-19
7.467158e-19
7.2535266e-19
7.0489061e-19
6.8529519e-19
6.6653756e-19
6.4859471e-19
6.314522e-19
6.1510918e-19
5.9957043e-19
5.8484517e-19
5.7095133e-19
5.5793616e-19
5.4582724e-19
5.3468514e-19
5.2459522e-19
5.1566829e-19
5.08073e-19
5.0206374e-19
4.9773054e-19
4.9585769e-19
4.963425e-19
4.9992091e-19
5.069801e-19
5.181463e-19
5.3401091e-19
5.5487771e-19
5.8074124e-19
6.1175908e-19
6.4728813e-19
6.8482342e-19
7.2072895e-19
7.5265284e-19
7.7765617e-19
7.9729297e-19
8.1173643e-19
8.2235439e-19
8.3003927e-19
8.3542271e-19
8.3890333e-19
8.407657e-19
8.4123048e-19
8.403061e-19
8.3801858e-19
8.3455028e-19
8.3006108e-19
8.2474306e-19
8.1882696e-19
8.1245933e-19
8.0576968e-19
7.9892009e-19
7.9201236e-19
7.8508694e-19
7.7819022e-19
7.7139114e-19
7.6471756e-19
7.581655e-19
7.5172091e-19
7.4538878e-19
7.3916596e-19
7.3307502e-19
7.2683711e-19
7.2090801e-19
7.1358417e-19
7.0765958e-19
6.9908756e-19
1.9397294e-07
1.9213958e-07
1.9222277e-07
1.9243607e-07
1.9255842e-07
1.9261454e-07
1.9264315e-07
1.9266097e-07
1.9267408e-07
1.9268494e-07
1.9269476e-07
1.9270434e-07
1.9271434e-07
1.9272541e-07
1.927383e-07
1.9275382e-07
1.9277388e-07
1.9279756e-07
1.9284226e-07
1.9284418e-07
1.9314753e-07
1.9242814e-07
1.9196797e-07
1.1813401e-09
2.3628903e-16
3.6343183e-17
1.8424107e-17
1.2429559e-17
9.4989565e-18
7.7144008e-18
6.5083177e-18
5.6276725e-18
4.9548362e-18
4.4240682e-18
3.9938413e-18
3.637426e-18
3.3370928e-18
3.0804764e-18
2.8585801e-18
2.6647083e-18
2.4938356e-18
2.3419967e-18
2.2061711e-18
2.0839161e-18
1.9732673e-18
1.8726227e-18
1.7806617e-18
1.6962876e-18
1.6185824e-18
1.5467725e-18
1.4801968e-18
1.4182903e-18
1.3605671e-18
1.306606e-18
1.2560426e-18
1.2085631e-18
1.1638965e-18
1.1217965e-18
1.0820377e-18
1.0444258e-18
1.0087889e-18
9.7497452e-19
9.4284745e-19
9.1228575e-19
8.8317795e-19
8.5542373e-19
8.2893331e-19
8.0362706e-19
7.7943e-19
7.5627057e-19
7.3408435e-19
7.1286194e-19
6.9259187e-19
6.7319577e-19
6.5464143e-19
6.3690339e-19
6.1996181e-19
6.0380629e-19
5.8843554e-19
5.7384404e-19
5.5998622e-19
5.4682621e-19
5.3482815e-19
5.2380578e-19
5.1380555e-19
5.0493256e-19
4.9731926e-19
4.9114625e-19
4.8660498e-19
4.8326362e-19
4.8217845e-19
4.8526114e-19
4.9191323e-19
5.026339e-19
5.1814802e-19
5.3910348e-19
5.657494e-19
5.9784594e-19
6.3496072e-19
6.7533768e-19
7.1541599e-19
7.5164722e-19
7.8292797e-19
8.0719868e-19
8.2658971e-19
8.4131766e-19
8.5275123e-19
8.6165271e-19
8.6844201e-19
8.7332921e-19
8.7649199e-19
8.7808297e-19
8.7807091e-19
8.7644882e-19
8.7339206e-19
8.6909966e-19
8.6381038e-19
8.5779309e-19
8.5123099e-19
8.442824e-19
8.3712645e-19
8.2987929e-19
8.2259541e-19
8.1532987e-19
8.081548e-19
8.0110194e-19
7.9417217e-19
7.8735504e-19
7.8065627e-19
7.7407498e-19
7.6762649e-19
7.6106339e-19
7.5477369e-19
7.4722071e-19
7.4097442e-19
7.3192452e-19
1.9396918e-07
1.9213217e-07
1.9221559e-07
1.9242921e-07
1.9255176e-07
1.9260798e-07
1.9263664e-07
1.9265448e-07
1.9266762e-07
1.926785e-07
1.9268833e-07
1.9269792e-07
1.9270794e-07
1.9271902e-07
1.9273192e-07
1.9274745e-07
1.9276752e-07
1.9279122e-07
1.9283594e-07
1.9283783e-07
1.9314136e-07
1.9242179e-07
1.9196216e-07
1.203955e-09
2.3265795e-16
3.5082562e-17
1.7784974e-17
1.1998547e-17
9.1702608e-18
7.4481272e-18
6.2841765e-18
5.4342421e-18
4.784844e-18
4.272549e-18
3.8572499e-18
3.5131726e-18
3.2232673e-18
2.9756039e-18
2.7614764e-18
2.5744088e-18
2.4095395e-18
2.2630388e-18
2.1319934e-18
2.014048e-18
1.907308e-18
1.8102279e-18
1.7215337e-18
1.6401673e-18
1.565243e-18
1.4960101e-18
1.4318184e-18
1.3721256e-18
1.3164583e-18
1.2644053e-18
1.2156142e-18
1.1698056e-18
1.1267781e-18
1.0863005e-18
1.0481044e-18
1.011995e-18
9.7780804e-19
9.4539822e-19
9.1463707e-19
8.8540952e-19
8.5760655e-19
8.3112691e-19
8.0587903e-19
7.8178708e-19
7.5875967e-19
7.366796e-19
7.1542855e-19
6.9526878e-19
6.7640996e-19
6.5850358e-19
6.4152382e-19
6.2546111e-19
6.1031229e-19
5.9609226e-19
5.8279805e-19
5.7035423e-19
5.5833326e-19
5.4632409e-19
5.3774047e-19
5.3090901e-19
5.2579973e-19
5.2268861e-19
5.219003e-19
5.2375376e-19
5.2804822e-19
5.3050671e-19
5.3437124e-19
5.561856e-19
5.8600372e-19
6.2534416e-19
6.7603232e-19
7.3971265e-19
8.1716351e-19
9.0813538e-19
1.0111887e-18
1.120811e-18
1.2273197e-18
1.322004e-18
1.4016909e-18
1.4649064e-18
1.5159132e-18
1.5567826e-18
1.5903755e-18
1.6183168e-18
1.6412763e-18
1.659632e-18
1.6737883e-18
1.6839527e-18
1.6899863e-18
1.6917224e-18
1.6894222e-18
1.6836765e-18
1.6751862e-18
1.6646444e-18
1.6525934e-18
1.6394829e-18
1.6257196e-18
1.6115885e-18
1.5972716e-18
1.5829166e-18
1.5686627e-18
1.5545876e-18
1.540725e-18
1.5270812e-18
1.5136705e-18
1.5005065e-18
1.4875664e-18
1.4746516e-18
1.461952e-18
1.4480459e-18
1.435674e-18
1.4176714e-18
1.9396374e-07
1.9212143e-07
1.922052e-07
1.9241929e-07
1.9254212e-07
1.9259848e-07
1.9262721e-07
1.926451e-07
1.9265827e-07
1.9266917e-07
1.9267902e-07
1.9268863e-07
1.9269867e-07
1.9270976e-07
1.9272269e-07
1.9273823e-07
1.9275832e-07
1.9278204e-07
1.928268e-07
1.9282865e-07
1.9313242e-07
1.9241262e-07
1.9195352e-07
1.2284135e-09
2.4111548e-16
3.4243591e-17
1.7359486e-17
1.1712268e-17
8.9545066e-18
7.2758292e-18
6.1410104e-18
5.3121169e-18
4.6786823e-18
4.1789095e-18
3.7735653e-18
3.4376127e-18
3.154686e-18
2.913168e-18
2.7044705e-18
2.5222175e-18
2.36162e-18
2.2189302e-18
2.0913152e-18
1.9764878e-18
1.8726059e-18
1.7781654e-18
1.6919256e-18
1.6128564e-18
1.5400946e-18
1.4728924e-18
1.4105628e-18
1.3525885e-18
1.2984908e-18
1.2478478e-18
1.2003129e-18
1.1557132e-18
1.1141082e-18
1.0753018e-18
1.0388145e-18
1.0044265e-18
9.7198486e-19
9.4135565e-19
9.1242249e-19
8.8508443e-19
8.5922895e-19
8.3473875e-19
8.115037e-19
7.8945423e-19
7.6841967e-19
7.4807864e-19
7.2807356e-19
7.0982138e-19
6.9447746e-19
6.8053461e-19
6.6799079e-19
6.5690155e-19
6.4733142e-19
6.3939988e-19
6.3310597e-19
6.2802778e-19
6.219753e-19
6.1279939e-19
6.1717151e-19
6.2679891e-19
6.4132351e-19
6.6184832e-19
6.8976208e-19
7.2671523e-19
7.7376501e-19
8.254512e-19
8.8712947e-19
9.9015631e-19
1.1211787e-18
1.286243e-18
1.4921203e-18
1.7449782e-18
2.0480618e-18
2.4013069e-18
2.7994181e-18
3.2211754e-18
3.6302564e-18
3.9941557e-18
4.298593e-18
4.5430571e-18
4.7409285e-18
4.9025345e-18
5.0376524e-18
5.1520636e-18
5.2478792e-18
5.3265037e-18
5.3895344e-18
5.4375397e-18
5.4699369e-18
5.4858735e-18
5.4860378e-18
5.472783e-18
5.4488908e-18
5.4169778e-18
5.379202e-18
5.3373272e-18
5.2928003e-18
5.2466743e-18
5.199703e-18
5.152452e-18
5.1053737e-18
5.0587541e-18
5.0127699e-18
4.9674986e-18
4.9229932e-18
4.8793299e-18
4.8363238e-18
4.7939219e-18
4.751556e-18
4.7078853e-18
4.6670985e-18
4.6075887e-18
1.9395648e-07
1.9210707e-07
1.9219129e-07
1.9240601e-07
1.9252923e-07
1.9258577e-07
1.926146e-07
1.9263255e-07
1.9264576e-07
1.9265669e-07
1.9266657e-07
1.9267621e-07
1.9268627e-07
1.9269739e-07
1.9271033e-07
1.927259e-07
1.9274602e-07
1.9276976e-07
1.9281457e-07
1.9281636e-07
1.9312045e-07
1.9240035e-07
1.9194198e-07
1.2549909e-09
2.7407626e-16
3.3981863e-17
1.7226327e-17
1.162499e-17
8.8977655e-18
7.2393625e-18
6.1174673e-18
5.2972545e-18
4.670083e-18
4.1750196e-18
3.7728589e-18
3.4391486e-18
3.1585378e-18
2.9195883e-18
2.7134879e-18
2.5337337e-18
2.3754307e-18
2.2348288e-18
2.1091519e-18
1.9961683e-18
1.8940736e-18
1.8013889e-18
1.7168931e-18
1.6395723e-18
1.5685745e-18
1.5031084e-18
1.4423221e-18
1.3857405e-18
1.332834e-18
1.2831162e-18
1.2362339e-18
1.1923396e-18
1.1523252e-18
1.1160946e-18
1.0824669e-18
1.0511263e-18
1.0219448e-18
9.9481533e-19
9.6965136e-19
9.4638953e-19
9.2489792e-19
9.0499597e-19
8.8649799e-19
8.6934078e-19
8.5306372e-19
8.3661809e-19
8.1879422e-19
8.0496059e-19
7.995439e-19
7.9705291e-19
7.9755173e-19
8.0139378e-19
8.0899939e-19
8.2093131e-19
8.3767186e-19
8.5914848e-19
8.8263627e-19
9.0479497e-19
9.5212844e-19
1.0137655e-18
1.0907893e-18
1.1870198e-18
1.3073554e-18
1.4578967e-18
1.6442157e-18
1.8592364e-18
2.1158446e-18
2.4865327e-18
2.9515287e-18
3.5318796e-18
4.2507932e-18
5.1295447e-18
6.1797999e-18
7.4026437e-18
8.7811911e-18
1.0244061e-17
1.1667965e-17
1.2940259e-17
1.4006096e-17
1.4865818e-17
1.5561858e-17
1.6132208e-17
1.6609883e-17
1.7014948e-17
1.7354833e-17
1.7634853e-17
1.7860908e-17
1.8034944e-17
1.8154969e-17
1.8217875e-17
1.8225803e-17
1.8186993e-17
1.8111176e-17
1.8007397e-17
1.7883211e-17
1.774477e-17
1.7597004e-17
1.7443534e-17
1.7287022e-17
1.7129429e-17
1.697226e-17
1.6816497e-17
1.6662792e-17
1.6511457e-17
1.6362676e-17
1.6216731e-17
1.6072903e-17
1.5931586e-17
1.5789749e-17
1.5646102e-17
1.5510008e-17
1.5311288e-17
1.9394722e-07
1.9208869e-07
1.9217349e-07
1.9238903e-07
1.9251274e-07
1.9256952e-07
1.9259847e-07
1.926165e-07
1.9262976e-07
1.9264074e-07
1.9265065e-07
1.9266032e-07
1.9267041e-07
1.9268156e-07
1.9269453e-07
1.9271013e-07
1.9273028e-07
1.9275405e-07
1.9279893e-07
1.9280064e-07
1.9310514e-07
1.9238466e-07
1.9192746e-07
1.2841212e-09
3.5633372e-16
3.4847963e-17
1.7664183e-17
1.192748e-17
9.156502e-18
7.4760905e-18
6.3371579e-18
5.502407e-18
4.8630987e-18
4.3578145e-18
3.9455939e-18
3.6024443e-18
3.3150609e-18
3.0719628e-18
2.8633197e-18
2.6819795e-18
2.5225332e-18
2.38105e-18
2.2547778e-18
2.1415318e-18
2.0395247e-18
1.9472775e-18
1.8635644e-18
1.7873683e-18
1.7178267e-18
1.6539847e-18
1.5944826e-18
1.5389415e-18
1.4866531e-18
1.4369144e-18
1.3893277e-18
1.3449777e-18
1.3071806e-18
1.276142e-18
1.2486169e-18
1.2239961e-18
1.202215e-18
1.1832373e-18
1.1670591e-18
1.1537231e-18
1.143051e-18
1.1349182e-18
1.1292785e-18
1.1262458e-18
1.1253732e-18
1.1253381e-18
1.124481e-18
1.1307157e-18
1.1511523e-18
1.1783875e-18
1.213064e-18
1.2563572e-18
1.309675e-18
1.3748142e-18
1.4536398e-18
1.5472153e-18
1.6520189e-18
1.7623898e-18
1.9279782e-18
2.1327202e-18
2.3820158e-18
2.6872427e-18
3.0630912e-18
3.5281963e-18
4.1014761e-18
4.7761302e-18
5.5867986e-18
6.7046732e-18
8.1022667e-18
9.8425882e-18
1.1994895e-17
1.4622928e-17
1.7762384e-17
2.1418611e-17
2.5544542e-17
2.993202e-17
3.4217051e-17
3.8060538e-17
4.1287021e-17
4.389518e-17
4.6006303e-17
4.7736472e-17
4.9184206e-17
5.0410438e-17
5.1438468e-17
5.22855e-17
5.2970123e-17
5.349847e-17
5.3864717e-17
5.4059465e-17
5.4088963e-17
5.3978012e-17
5.3755885e-17
5.3449718e-17
5.3082234e-17
5.267193e-17
5.2233535e-17
5.1777899e-17
5.1313042e-17
5.0844858e-17
5.0377807e-17
4.9914835e-17
4.9457928e-17
4.9008057e-17
4.8565769e-17
4.8131934e-17
4.7704324e-17
4.7284573e-17
4.6862761e-17
4.6437616e-17
4.6033251e-17
4.5442688e-17
1.9393572e-07
1.9206582e-07
1.9215136e-07
1.9236791e-07
1.9249223e-07
1.9254931e-07
1.9257842e-07
1.9259654e-07
1.9260987e-07
1.926209e-07
1.9263086e-07
1.9264057e-07
1.9265069e-07
1.9266187e-07
1.9267488e-07
1.9269052e-07
1.9271072e-07
1.9273452e-07
1.9277948e-07
1.927811e-07
1.9308611e-07
1.9236513e-07
1.9190995e-07
1.3163591e-09
5.4280136e-16
3.8127452e-17
1.9323883e-17
1.3064736e-17
1.009369e-17
8.3027978e-18
7.0837689e-18
6.1852859e-18
5.4946793e-18
4.9472734e-18
4.496186e-18
4.1178816e-18
3.803986e-18
3.542559e-18
3.3208119e-18
3.1296657e-18
2.9622421e-18
2.8140345e-18
2.6822584e-18
2.5647744e-18
2.4597838e-18
2.3657655e-18
2.2814516e-18
2.2057964e-18
2.1379008e-18
2.0767787e-18
2.020528e-18
1.9686423e-18
1.9203695e-18
1.874962e-18
1.832029e-18
1.7932178e-18
1.7633805e-18
1.7431052e-18
1.7280709e-18
1.7175996e-18
1.7117756e-18
1.710728e-18
1.714648e-18
1.7238339e-18
1.7379871e-18
1.7571316e-18
1.7815908e-18
1.8119377e-18
1.8478471e-18
1.8875268e-18
1.9285001e-18
1.9841886e-18
2.0675044e-18
2.167239e-18
2.2855144e-18
2.4255548e-18
2.5912408e-18
2.7874615e-18
3.0196208e-18
3.2919538e-18
3.6003119e-18
3.9351347e-18
4.3955575e-18
4.956565e-18
5.6349711e-18
6.4610501e-18
7.4740314e-18
8.7241813e-18
1.0265256e-17
1.2100073e-17
1.4318995e-17
1.7310565e-17
2.1047067e-17
2.569687e-17
3.1444955e-17
3.8462049e-17
4.6845043e-17
5.6611928e-17
6.7643915e-17
7.9395915e-17
9.0904335e-17
1.0125752e-16
1.0996418e-16
1.1701164e-16
1.2271463e-16
1.2738664e-16
1.3129147e-16
1.3459431e-16
1.3736007e-16
1.3963755e-16
1.4147837e-16
1.4289977e-16
1.4388652e-16
1.4441344e-16
1.4449716e-16
1.4420425e-16
1.4361323e-16
1.4279682e-16
1.4181598e-16
1.4072032e-16
1.3954928e-16
1.3833191e-16
1.3708976e-16
1.3583862e-16
1.345904e-16
1.33353e-16
1.3213177e-16
1.3092934e-16
1.2974716e-16
1.285876e-16
1.2744462e-16
1.2632297e-16
1.2519539e-16
1.2406058e-16
1.2297993e-16
1.2140159e-16
1.9392176e-07
1.9203792e-07
1.9212434e-07
1.9234215e-07
1.9246722e-07
1.9252465e-07
1.9255396e-07
1.9257219e-07
1.9258561e-07
1.925967e-07
1.9260672e-07
1.9261647e-07
1.9262664e-07
1.9263787e-07
1.9265092e-07
1.926666e-07
1.9268685e-07
1.927107e-07
1.9275575e-07
1.9275727e-07
1.9306289e-07
1.9234129e-07
1.9188949e-07
1.352378e-09
9.3017615e-16
4.6590838e-17
2.3607922e-17
1.5996944e-17
1.2498429e-17
1.0415939e-17
8.9887893e-18
7.9271122e-18
7.1067663e-18
6.4540483e-18
5.9136226e-18
5.4590346e-18
5.0830969e-18
4.7723147e-18
4.5109355e-18
4.2879318e-18
4.0937866e-18
3.9226534e-18
3.7715444e-18
3.638305e-18
3.5210137e-18
3.4179747e-18
3.3277598e-18
3.2492047e-18
3.1812837e-18
3.1229322e-18
3.0710294e-18
3.0247385e-18
2.9832301e-18
2.9456971e-18
2.9117857e-18
2.8842802e-18
2.8710985e-18
2.8736086e-18
2.8853876e-18
2.9056576e-18
2.9348375e-18
2.9734316e-18
3.0220752e-18
3.0816513e-18
3.1515821e-18
3.2322639e-18
3.3249275e-18
3.4312525e-18
3.5513683e-18
3.6828027e-18
3.8217554e-18
3.9928151e-18
4.2206787e-18
4.4871735e-18
4.797931e-18
5.1609355e-18
5.5858311e-18
6.0847168e-18
6.6713841e-18
7.3580515e-18
8.1415943e-18
9.0068092e-18
1.015266e-17
1.1540716e-17
1.3215481e-17
1.5251196e-17
1.7744292e-17
2.0819152e-17
2.4613213e-17
2.9167636e-17
3.4704741e-17
4.2066118e-17
5.1257697e-17
6.2693775e-17
7.6829647e-17
9.4086393e-17
1.147053e-16
1.387373e-16
1.6590341e-16
1.9488359e-16
2.2332313e-16
2.4896692e-16
2.705634e-16
2.8806073e-16
3.0221701e-16
3.1380886e-16
3.2348739e-16
3.3166398e-16
3.3850383e-16
3.4413253e-16
3.4868096e-16
3.5219332e-16
3.5463273e-16
3.5593728e-16
3.5614797e-16
3.5542908e-16
3.5397445e-16
3.5196354e-16
3.4954682e-16
3.4684674e-16
3.4396055e-16
3.4095995e-16
3.3789812e-16
3.3481404e-16
3.3173708e-16
3.2868671e-16
3.2567617e-16
3.2271195e-16
3.1979768e-16
3.1693915e-16
3.1412146e-16
3.1135663e-16
3.0857682e-16
3.057806e-16
3.0311676e-16
2.9922596e-16
1.9390502e-07
1.9200432e-07
1.9209182e-07
1.9231115e-07
1.9243712e-07
1.92495e-07
1.9252453e-07
1.9254291e-07
1.9255643e-07
1.925676e-07
1.9257768e-07
1.9258749e-07
1.9259772e-07
1.9260899e-07
1.926221e-07
1.9263784e-07
1.9265815e-07
1.9268205e-07
1.9272722e-07
1.927286e-07
1.9303496e-07
1.9231257e-07
1.9186621e-07
1.3929895e-09
1.6989132e-15
6.649659e-17
3.3685694e-17
2.2887601e-17
1.8122215e-17
1.5333153e-17
1.3404605e-17
1.1952493e-17
1.0822981e-17
9.920055e-18
9.1688498e-18
8.5352796e-18
8.0130296e-18
7.5846274e-18
7.2278698e-18
6.9274862e-18
6.6680935e-18
6.4407769e-18
6.2419862e-18
6.0694376e-18
5.9208638e-18
5.7941248e-18
5.6873912e-18
5.5991992e-18
5.5282131e-18
5.4732284e-18
5.4285432e-18
5.3925518e-18
5.364325e-18
5.3430279e-18
5.328445e-18
5.3255674e-18
5.3481675e-18
5.3991497e-18
5.4682096e-18
5.5544705e-18
5.6590809e-18
5.7833639e-18
5.9289276e-18
6.0979374e-18
6.2892036e-18
6.5040001e-18
6.7456568e-18
7.0183729e-18
7.3235934e-18
7.6580805e-18
8.016136e-18
8.444093e-18
8.9896706e-18
9.6226845e-18
1.0356655e-17
1.121009e-17
1.2205404e-17
1.3370677e-17
1.4738529e-17
1.6339903e-17
1.8178299e-17
2.023204e-17
2.2894016e-17
2.6109195e-17
2.9985334e-17
3.4693958e-17
4.0458225e-17
4.7567419e-17
5.6348683e-17
6.6955934e-17
7.9907423e-17
9.6954993e-17
1.1823881e-16
1.4471867e-16
1.7744978e-16
2.1740964e-16
2.6516256e-16
3.208385e-16
3.8381584e-16
4.5107569e-16
5.1719265e-16
5.769195e-16
6.27278e-16
6.6810735e-16
7.0113478e-16
7.281683e-16
7.5072057e-16
7.6975417e-16
7.8566216e-16
7.9874582e-16
8.0931559e-16
8.1747724e-16
8.2314654e-16
8.2618015e-16
8.2667329e-16
8.2500758e-16
8.2163318e-16
8.1696687e-16
8.113581e-16
8.0509124e-16
7.983921e-16
7.914272e-16
7.8432002e-16
7.7716111e-16
7.7001866e-16
7.6293785e-16
7.5594944e-16
7.4906857e-16
7.4230363e-16
7.3566809e-16
7.2912731e-16
7.2270948e-16
7.1625655e-16
7.0976682e-16
7.0358333e-16
6.9455168e-16
1.9388521e-07
1.919643e-07
1.9205308e-07
1.9227426e-07
1.924013e-07
1.924597e-07
1.9248951e-07
1.9250806e-07
1.925217e-07
1.9253296e-07
1.9254312e-07
1.9255301e-07
1.9256329e-07
1.9257463e-07
1.925878e-07
1.926036e-07
1.9262399e-07
1.9264795e-07
1.9269326e-07
1.9269449e-07
1.9300172e-07
1.9227832e-07
1.9184039e-07
1.4391746e-09
3.1826852e-15
1.0968138e-16
5.5551401e-17
3.7832982e-17
3.0299273e-17
2.5961901e-17
2.2937005e-17
2.0633345e-17
1.8830599e-17
1.7383523e-17
1.6175745e-17
1.5155797e-17
1.4316761e-17
1.36322e-17
1.3066704e-17
1.2596336e-17
1.219334e-17
1.1842221e-17
1.1538143e-17
1.127847e-17
1.1060141e-17
1.0880027e-17
1.073541e-17
1.0624162e-17
1.054427e-17
1.0494317e-17
1.0463327e-17
1.0448001e-17
1.0447343e-17
1.0460656e-17
1.048813e-17
1.0538931e-17
1.063769e-17
1.0790271e-17
1.097946e-17
1.1204392e-17
1.146776e-17
1.1772623e-17
1.2122651e-17
1.252273e-17
1.2970381e-17
1.3468848e-17
1.4026102e-17
1.4651845e-17
1.535087e-17
1.611959e-17
1.6950046e-17
1.7929807e-17
1.9150426e-17
2.0562005e-17
2.2195114e-17
2.4090701e-17
2.629847e-17
2.8880647e-17
3.1910497e-17
3.5460753e-17
3.9556568e-17
4.4172824e-17
5.006964e-17
5.7179201e-17
6.5747663e-17
7.6154131e-17
8.8892482e-17
1.0460542e-16
1.2403275e-16
1.4761716e-16
1.765152e-16
2.1426197e-16
2.6138731e-16
3.200174e-16
3.924907e-16
4.8097638e-16
5.8673416e-16
7.1007339e-16
8.4966165e-16
9.9888267e-16
1.1457711e-15
1.2786613e-15
1.3908134e-15
1.4817951e-15
1.5553812e-15
1.6155919e-15
1.6657865e-15
1.7081147e-15
1.7434663e-15
1.7725275e-15
1.7959989e-15
1.8141213e-15
1.8267102e-15
1.8334483e-15
1.834547e-15
1.8308537e-15
1.8233675e-15
1.8130135e-15
1.8005675e-15
1.7866607e-15
1.7717943e-15
1.7563378e-15
1.7405655e-15
1.7246783e-15
1.7088275e-15
1.6931134e-15
1.6776043e-15
1.6623339e-15
1.6473207e-15
1.6325947e-15
1.618079e-15
1.6038363e-15
1.5895155e-15
1.5751142e-15
1.5613915e-15
1.541348e-15
1.9386196e-07
1.9191702e-07
1.9200733e-07
1.9223069e-07
1.9235901e-07
1.9241804e-07
1.9244818e-07
1.9246693e-07
1.9248071e-07
1.9249209e-07
1.9250234e-07
1.9251231e-07
1.9252267e-07
1.9253408e-07
1.9254733e-07
1.9256321e-07
1.9258368e-07
1.9260772e-07
1.9265319e-07
1.9265422e-07
1.929625e-07
1.9223782e-07
1.918125e-07
1.4921269e-09
5.9946107e-15
1.9955625e-16
1.0106186e-16
6.8935808e-17
5.5624978e-17
4.8053556e-17
4.2740889e-17
3.8662254e-17
3.5457312e-17
3.2877676e-17
3.072229e-17
2.8902441e-17
2.7406198e-17
2.618804e-17
2.5186369e-17
2.4360123e-17
2.3656236e-17
2.3045596e-17
2.2520645e-17
2.2077953e-17
2.1712769e-17
2.1419885e-17
2.1194724e-17
2.1033766e-17
2.0933585e-17
2.0892503e-17
2.0888998e-17
2.0916186e-17
2.097319e-17
2.1059957e-17
2.1177718e-17
2.13434e-17
2.1601377e-17
2.1963132e-17
2.2399465e-17
2.2909934e-17
2.3500426e-17
2.4177582e-17
2.4949342e-17
2.5826225e-17
2.6803097e-17
2.7887466e-17
2.9097234e-17
3.0453746e-17
3.1969688e-17
3.3642943e-17
3.5463916e-17
3.7596998e-17
4.0215756e-17
4.3239489e-17
4.673456e-17
5.0788518e-17
5.5507824e-17
6.1025739e-17
6.7500774e-17
7.5095617e-17
8.3893276e-17
9.3879218e-17
1.0649684e-16
1.2169055e-16
1.3999991e-16
1.622353e-16
1.8945358e-16
2.2303442e-16
2.6458842e-16
3.1524079e-16
3.7748591e-16
4.5829159e-16
5.5917412e-16
6.8468717e-16
8.3984085e-16
1.0292879e-15
1.2557435e-15
1.5199081e-15
1.8190078e-15
2.1389997e-15
2.4543519e-15
2.7400047e-15
2.9812693e-15
3.1770832e-15
3.3354394e-15
3.4649746e-15
3.5728983e-15
3.663846e-15
3.7397572e-15
3.8021356e-15
3.852505e-15
3.891392e-15
3.9184056e-15
3.9328665e-15
3.9352289e-15
3.9273104e-15
3.9112549e-15
3.889047e-15
3.8623508e-15
3.8325206e-15
3.8006316e-15
3.7674766e-15
3.7336439e-15
3.6995645e-15
3.6655631e-15
3.6318549e-15
3.5985864e-15
3.5658298e-15
3.5336251e-15
3.5020364e-15
3.4708986e-15
3.4403469e-15
3.4096271e-15
3.378736e-15
3.3492996e-15
3.3063043e-15
1.9383489e-07
1.9186153e-07
1.9195364e-07
1.9217961e-07
1.9230943e-07
1.9236921e-07
1.9239973e-07
1.9241872e-07
1.9243267e-07
1.9244418e-07
1.9245455e-07
1.9246461e-07
1.9247506e-07
1.9248656e-07
1.9249989e-07
1.9251586e-07
1.9253643e-07
1.9256056e-07
1.9260622e-07
1.9260703e-07
1.9291653e-07
1.9219021e-07
1.9178323e-07
1.5533088e-09
1.1255929e-14
3.8196193e-16
1.9343652e-16
1.3206416e-16
1.0701609e-16
9.2872717e-17
8.2913434e-17
7.5231667e-17
6.9181611e-17
6.4304985e-17
6.0231936e-17
5.679663e-17
5.397091e-17
5.1669918e-17
4.978109e-17
4.8230158e-17
4.6913313e-17
4.5773905e-17
4.4798808e-17
4.3982934e-17
4.3318075e-17
4.2794785e-17
4.24047e-17
4.2141478e-17
4.1998835e-17
4.1974874e-17
4.2027329e-17
4.21419e-17
4.231841e-17
4.2558733e-17
4.2866569e-17
4.3273095e-17
4.3858099e-17
4.4643613e-17
4.5580089e-17
4.6668618e-17
4.792156e-17
4.9352836e-17
5.0979049e-17
5.2822157e-17
5.4871672e-17
5.7144078e-17
5.9677983e-17
6.251882e-17
6.5696924e-17
6.921692e-17
7.3071094e-17
7.7565198e-17
8.302447e-17
8.932274e-17
9.6599895e-17
1.0503835e-16
1.1486028e-16
1.2634375e-16
1.3982224e-16
1.5564698e-16
1.7404067e-16
1.9504052e-16
2.2134584e-16
2.5299203e-16
2.9112612e-16
3.3743683e-16
3.9412845e-16
4.6408609e-16
5.5071677e-16
6.5667635e-16
7.8720371e-16
9.5579385e-16
1.1662734e-15
1.4281471e-15
1.7518756e-15
2.1471828e-15
2.6197669e-15
3.1711562e-15
3.7957015e-15
4.4643169e-15
5.1238764e-15
5.7219418e-15
6.2274061e-15
6.6378081e-15
6.9696721e-15
7.2410697e-15
7.4670765e-15
7.6574234e-15
7.8162188e-15
7.9466604e-15
8.0519699e-15
8.1332663e-15
8.1897406e-15
8.2199756e-15
8.2249213e-15
8.2083771e-15
8.1748243e-15
8.1284112e-15
8.0726165e-15
8.0102708e-15
7.9436212e-15
7.8743254e-15
7.8036126e-15
7.7323842e-15
7.6613185e-15
7.5908654e-15
7.5213314e-15
7.4528671e-15
7.3855562e-15
7.3195329e-15
7.254452e-15
7.1905963e-15
7.126389e-15
7.0618249e-15
7.0003001e-15
6.9104359e-15
1.938036e-07
1.9179676e-07
1.9189099e-07
1.9212004e-07
1.9225164e-07
1.9231228e-07
1.9234326e-07
1.9236254e-07
1.9237669e-07
1.9238835e-07
1.9239885e-07
1.9240903e-07
1.9241958e-07
1.9243118e-07
1.9244462e-07
1.9246069e-07
1.9248138e-07
1.925056e-07
1.9255149e-07
1.9255203e-07
1.9286297e-07
1.9213455e-07
1.917536e-07
1.6245265e-09
2.1009023e-14
7.4600725e-16
3.7781776e-16
2.5806901e-16
2.0958707e-16
1.8232315e-16
1.6308999e-16
1.4821913e-16
1.3649411e-16
1.2703728e-16
1.191473e-16
1.1250208e-16
1.0703106e-16
1.0256995e-16
9.890815e-17
9.5907765e-17
9.3364666e-17
9.1167377e-17
8.9291628e-17
8.7728986e-17
8.6464316e-17
8.5479699e-17
8.4759219e-17
8.4290901e-17
8.4062781e-17
8.4073084e-17
8.4239169e-17
8.4531682e-17
8.4952643e-17
8.5508835e-17
8.6209514e-17
8.7111805e-17
8.8358412e-17
8.9991037e-17
9.1926198e-17
9.4169198e-17
9.674535e-17
9.9683129e-17
1.0301648e-16
1.0679024e-16
1.1098329e-16
1.156306e-16
1.2081314e-16
1.2662529e-16
1.3313547e-16
1.4036816e-16
1.4832825e-16
1.5757947e-16
1.6872534e-16
1.815777e-16
1.96425e-16
2.1363989e-16
2.3367682e-16
2.5710459e-16
2.8460998e-16
3.1693142e-16
3.5460897e-16
3.9783467e-16
4.5159728e-16
5.1622675e-16
5.9410547e-16
6.886841e-16
8.0447008e-16
9.4737616e-16
1.1244517e-15
1.3416618e-15
1.6097845e-15
1.9546206e-15
2.3851429e-15
2.9208e-15
3.5830029e-15
4.3916706e-15
5.3585174e-15
6.4867856e-15
7.7651624e-15
9.1345265e-15
1.048646e-14
1.1713432e-14
1.2751009e-14
1.3593728e-14
1.4275122e-14
1.4832249e-14
1.5296003e-14
1.5686394e-14
1.6011932e-14
1.6279266e-14
1.6495058e-14
1.6661633e-14
1.6777348e-14
1.6839305e-14
1.684945e-14
1.6815568e-14
1.674684e-14
1.6651764e-14
1.6537468e-14
1.6409751e-14
1.6273215e-14
1.6131258e-14
1.5986398e-14
1.584048e-14
1.5694896e-14
1.5550567e-14
1.540812e-14
1.5267864e-14
1.5129971e-14
1.4994716e-14
1.4861392e-14
1.4730577e-14
1.4599042e-14
1.4466778e-14
1.4340738e-14
1.4156643e-14
1.9376764e-07
1.9172152e-07
1.9181824e-07
1.920509e-07
1.9218458e-07
1.9224625e-07
1.9227777e-07
1.9229738e-07
1.9231177e-07
1.9232361e-07
1.9233426e-07
1.9234457e-07
1.9235525e-07
1.9236697e-07
1.9238052e-07
1.9239672e-07
1.9241754e-07
1.9244188e-07
1.9248802e-07
1.9248824e-07
1.9280087e-07
1.920697e-07
1.9172508e-07
1.7080281e-09
3.8961031e-14
1.4639577e-15
7.4149052e-16
5.0660424e-16
4.1190241e-16
3.5876381e-16
3.2124563e-16
2.9220284e-16
2.6929317e-16
2.5081156e-16
2.354122e-16
2.2246107e-16
2.1178731e-16
2.030684e-16
1.9590667e-16
1.9004325e-16
1.8507766e-16
1.8079048e-16
1.7713547e-16
1.7409757e-16
1.7164797e-16
1.6975202e-16
1.6837891e-16
1.6750561e-16
1.6710896e-16
1.6718841e-16
1.6758336e-16
1.6823432e-16
1.6914901e-16
1.7034572e-16
1.7184574e-16
1.737532e-16
1.7632182e-16
1.7962983e-16
1.8353808e-16
1.8806215e-16
1.9325296e-16
1.9916779e-16
2.0587489e-16
2.1346439e-16
2.2189418e-16
2.3123681e-16
2.4165859e-16
2.5335199e-16
2.6646547e-16
2.8107363e-16
2.9722122e-16
3.1594017e-16
3.3834202e-16
3.6416507e-16
3.9399406e-16
4.2857873e-16
4.6883438e-16
5.1590666e-16
5.7118674e-16
6.3619602e-16
7.1216649e-16
7.9968365e-16
9.0788654e-16
1.0378789e-15
1.1945208e-15
1.3847563e-15
1.6176617e-15
1.905166e-15
2.2616056e-15
2.6999126e-15
3.2419034e-15
3.9364445e-15
4.8035791e-15
5.8824927e-15
7.2163361e-15
8.8452817e-15
1.0793027e-14
1.3066305e-14
1.5642751e-14
1.8403932e-14
2.1131907e-14
2.3609612e-14
2.5705872e-14
2.7408929e-14
2.8785875e-14
2.9911499e-14
3.084814e-14
3.1636277e-14
3.2293243e-14
3.2832612e-14
3.3267931e-14
3.3603946e-14
3.3837366e-14
3.3962354e-14
3.3982839e-14
3.3914523e-14
3.3775924e-14
3.3584181e-14
3.3353671e-14
3.3096089e-14
3.2820722e-14
3.2534418e-14
3.2242258e-14
3.1947965e-14
3.1654343e-14
3.1363252e-14
3.1075956e-14
3.0793081e-14
3.051497e-14
3.024218e-14
2.9973283e-14
2.9709449e-14
2.944416e-14
2.9177403e-14
2.8923199e-14
2.8551904e-14
1.9372655e-07
1.9163447e-07
1.9173409e-07
1.9197101e-07
1.9210712e-07
1.9216998e-07
1.9220214e-07
1.9222213e-07
1.922368e-07
1.9224886e-07
1.9225968e-07
1.9227015e-07
1.9228097e-07
1.9229283e-07
1.9230652e-07
1.9232285e-07
1.9234383e-07
1.923683e-07
1.9241474e-07
1.9241459e-07
1.9272918e-07
1.9199431e-07
1.9169967e-07
1.8066331e-09
7.1817855e-14
2.8674162e-15
1.4525115e-15
9.9253072e-16
8.0747623e-16
7.037652e-16
6.3051393e-16
5.737794e-16
5.2901885e-16
4.9290952e-16
4.6286147e-16
4.3762497e-16
4.1680488e-16
3.9976689e-16
3.8575818e-16
3.7429097e-16
3.6458341e-16
3.5620539e-16
3.4906771e-16
3.4314234e-16
3.3837371e-16
3.3469452e-16
3.3204485e-16
3.3038004e-16
3.2965521e-16
3.2987379e-16
3.3072555e-16
3.3209136e-16
3.3399236e-16
3.364725e-16
3.3957839e-16