/*--------------------------------*- C++ -*----------------------------------*\
| =========                 |                                                 |
| \\      /  F ield         | OpenFOAM: The Open Source CFD Toolbox           |
|  \\    /   O peration     | Version:  2206                                  |
|   \\  /    A nd           | Website:  www.openfoam.com                      |
|    \\/     M anipulation  |                                                 |
\*---------------------------------------------------------------------------*/
FoamFile
{
    version     2.0;
    format      ascii;
    arch        "LSB;label=32;scalar=64";
    class       volScalarField;
    location    "1200";
    object      omega;
}
// * * * * * * * * * * * * * * * * * * * * * * * * * * * * * * * * * * * * * //

dimensions      [0 0 -1 0 0 0 0];

internalField   nonuniform List<scalar> 
13056
(
500.21967
419.64011
413.80299
413.28293
413.30127
413.27341
413.23721
413.21237
413.19824
413.19222
413.19288
413.19966
413.21253
413.23202
413.25904
413.29567
413.34357
413.41175
413.49189
413.66542
413.71059
414.18911
424.41565
19550.66
1.1944345e+09
1.1944345e+09
1.1944345e+09
1.1944345e+09
1.1944345e+09
1.1944345e+09
1.1944345e+09
1.1944345e+09
1.1944345e+09
1.1944345e+09
1.1944345e+09
1.1944345e+09
1.1944345e+09
1.1944345e+09
1.1944345e+09
1.1944345e+09
1.1944345e+09
1.1944345e+09
1.1944345e+09
1.1944345e+09
1.1944345e+09
1.1944345e+09
1.1944345e+09
1.1944345e+09
1.1944345e+09
1.1944345e+09
1.1944345e+09
1.1944345e+09
1.1944345e+09
1.1944345e+09
1.1944345e+09
1.1944345e+09
1.1944345e+09
1.1944345e+09
1.1944345e+09
1.1944345e+09
1.1944345e+09
1.1944345e+09
1.1944345e+09
1.1944345e+09
1.1944345e+09
1.1944345e+09
1.1944345e+09
1.1944345e+09
1.1944345e+09
1.1944345e+09
1.1944345e+09
1.1944345e+09
1.1944345e+09
1.1944345e+09
1.1944345e+09
1.1944345e+09
1.1944345e+09
1.1944345e+09
1.1944345e+09
1.1944345e+09
1.1944345e+09
1.1944345e+09
1.1944345e+09
1.1944345e+09
1.1944345e+09
1.1944345e+09
1.1944345e+09
1.1944345e+09
1.1944345e+09
1.1944345e+09
1.1944345e+09
1.1944345e+09
1.1944345e+09
1.1944345e+09
1.1944345e+09
1.1944345e+09
1.1944345e+09
1.1944345e+09
1.1944345e+09
1.1944345e+09
1.1944345e+09
1.1944345e+09
1.1944345e+09
1.1944345e+09
1.1944345e+09
1.1944345e+09
1.1944345e+09
1.1944345e+09
1.1944345e+09
1.1944345e+09
1.1944345e+09
1.1944345e+09
1.1944345e+09
1.1944345e+09
1.1944345e+09
1.1944345e+09
1.1944345e+09
1.1944345e+09
1.1944345e+09
1.1944345e+09
1.1944345e+09
1.1944345e+09
1.1944345e+09
1.1944345e+09
1.1944345e+09
1.1944345e+09
1.1944345e+09
1.1944345e+09
1.1944345e+09
1.1944345e+09
1.1944345e+09
1.1944345e+09
1.1944345e+09
1.1944345e+09
1.1944345e+09
1.1944345e+09
500.19646
419.59959
413.7617
413.24124
413.25948
413.2316
413.19538
413.17054
413.15639
413.15037
413.15103
413.1578
413.17067
413.19016
413.21718
413.25382
413.30172
413.3699
413.45004
413.62358
413.66876
414.14708
424.37209
19260.475
1.9586941e+08
1.9626968e+08
1.9626967e+08
1.9626967e+08
1.9626968e+08
1.9626969e+08
1.962697e+08
1.9626971e+08
1.9626972e+08
1.9626973e+08
1.9626974e+08
1.9626975e+08
1.9626976e+08
1.9626977e+08
1.9626978e+08
1.9626979e+08
1.962698e+08
1.9626981e+08
1.9626982e+08
1.9626983e+08
1.9626984e+08
1.9626986e+08
1.9626987e+08
1.9626989e+08
1.962699e+08
1.9626992e+08
1.9626994e+08
1.9626996e+08
1.9626999e+08
1.9627002e+08
1.9627005e+08
1.9627009e+08
1.9627012e+08
1.9627015e+08
1.9627019e+08
1.9627022e+08
1.9627026e+08
1.9627031e+08
1.9627036e+08
1.9627042e+08
1.9627048e+08
1.9627055e+08
1.9627063e+08
1.9627073e+08
1.9627084e+08
1.9627099e+08
1.9627119e+08
1.9627139e+08
1.9627155e+08
1.9627173e+08
1.9627194e+08
1.9627219e+08
1.962725e+08
1.9627286e+08
1.9627332e+08
1.9627393e+08
1.9627488e+08
1.9627632e+08
1.9627723e+08
1.9627823e+08
1.9627946e+08
1.9628099e+08
1.9628293e+08
1.9628552e+08
1.9628935e+08
1.9629718e+08
1.9630783e+08
1.9631303e+08
1.9631949e+08
1.9632747e+08
1.963373e+08
1.9634937e+08
1.9636421e+08
1.9638287e+08
1.9640714e+08
1.9643879e+08
1.9647722e+08
1.9651747e+08
1.9655198e+08
1.965795e+08
1.9659923e+08
1.9661346e+08
1.9662318e+08
1.966296e+08
1.9663379e+08
1.9663667e+08
1.9663887e+08
1.9664066e+08
1.9664213e+08
1.9664331e+08
1.9664419e+08
1.9664481e+08
1.9664525e+08
1.9664553e+08
1.966457e+08
1.9664579e+08
1.9664583e+08
1.9664581e+08
1.9664577e+08
1.966457e+08
1.9664562e+08
1.9664551e+08
1.966454e+08
1.9664529e+08
1.9664518e+08
1.9664506e+08
1.9664494e+08
1.9664489e+08
1.9664474e+08
1.9664495e+08
1.9664487e+08
1.9664474e+08
500.12253
419.47243
413.63228
413.11061
413.12856
413.10059
413.06433
413.03946
413.02529
413.01926
413.01991
413.02667
413.03954
413.05903
413.08605
413.12269
413.17059
413.23878
413.31893
413.49248
413.53771
414.01535
424.23898
18923.212
64128292
64221409
64221397
64221399
64221416
64221440
64221464
64221488
64221514
64221540
64221581
64221633
64221673
64221696
64221710
64221722
64221734
64221747
64221760
64221775
64221791
64221809
64221829
64221851
64221876
64221910
64221966
64222040
64222141
64222280
64222466
64222667
64222797
64222839
64222870
64222905
64222945
64222990
64223042
64223102
64223171
64223271
64223432
64223676
64224080
64224814
64226086
64227132
64227295
64227442
64227618
64227863
64228240
64228804
64229799
64231834
64237140
64247877
64249675
64250607
64251883
64253743
64256741
64262461
64276956
64331712
64412210
64417307
64424532
64435144
64451326
64477057
64519599
64592758
64720725
64932326
65232238
65572970
65874841
66116099
66285483
66401766
66474213
66514434
66533746
66541981
66545262
66546573
66547177
66547518
66547736
66547882
66547981
66548045
66548083
66548105
66548112
66548109
66548099
66548085
66548065
66548042
66548017
66547991
66547965
66547940
66547912
66547900
66547866
66547914
66547896
66547865
499.99558
419.25454
413.41056
412.88681
412.90426
412.87616
412.83983
412.8149
412.80071
412.79465
412.79528
412.80203
412.81489
412.83438
412.8614
412.89804
412.94596
413.01416
413.09431
413.26789
413.31321
413.78965
424.01192
18566.582
29321411
29342842
29342826
29342837
29342904
29342998
29343098
29343201
29343310
29343427
29343619
29343867
29344052
29344149
29344198
29344234
29344270
29344308
29344349
29344395
29344446
29344503
29344568
29344643
29344730
29344862
29345103
29345435
29345904
29346572
29347471
29348451
29349050
29349185
29349258
29349343
29349440
29349555
29349690
29349853
29350048
29350380
29351014
29352046
29353880
29357391
29363644
29368680
29369096
29369359
29369688
29370271
29371409
29373363
29377342
29386444
29412100
29465395
29472263
29474124
29477040
29482008
29491538
29513266
29577499
29844408
30238741
30240517
30242956
30246538
30251976
30260682
30275035
30299710
30342845
30414101
30514946
30629306
30730435
30811134
30867724
30906543
30930714
30944130
30950570
30953316
30954410
30954847
30955048
30955162
30955235
30955284
30955317
30955338
30955350
30955358
30955360
30955359
30955356
30955351
30955344
30955337
30955328
30955320
30955311
30955303
30955293
30955289
30955278
30955294
30955288
30955278
499.81198
418.93951
413.08998
412.56324
412.57997
412.55166
412.51523
412.49024
412.47599
412.4699
412.4705
412.47724
412.49009
412.50957
412.53659
412.57325
412.62117
412.68939
412.76955
412.94318
412.98861
413.46333
423.68403
18194.568
16076486
16058456
16058432
16058470
16058690
16058999
16059329
16059670
16060035
16060425
16061076
16061920
16062545
16062867
16063024
16063134
16063242
16063358
16063484
16063625
16063782
16063961
16064166
16064403
16064680
16065109
16065912
16067028
16068615
16070882
16073945
16077284
16079307
16079726
16079931
16080168
16080446
16080775
16081169
16081648
16082233
16083276
16085346
16088773
16094940
16106860
16128196
16145320
16146509
16147131
16147929
16149535
16152975
16159119
16171598
16201352
16287621
16468532
16488390
16489187
16490437
16492566
16496649
16505958
16533465
16647557
16815477
16816231
16817268
16818790
16821101
16824800
16830898
16841378
16859693
16889929
16932681
16981105
17023878
17057976
17081870
17098252
17108449
17114108
17116824
17117982
17118443
17118627
17118712
17118760
17118791
17118812
17118825
17118834
17118840
17118843
17118844
17118843
17118842
17118840
17118837
17118834
17118831
17118827
17118823
17118820
17118816
17118814
17118809
17118816
17118814
17118809
499.56687
418.51862
412.66168
412.13094
412.1467
412.11812
412.08155
412.05646
412.04215
412.03601
412.03658
412.04329
412.05613
412.07561
412.10263
412.1393
412.18723
412.25548
412.33565
412.50933
412.55491
413.02732
423.24591
17806.132
9860970.5
9790414.3
9790377
9790476.9
9791046.7
9791854.4
9792720.3
9793620.5
9794587.4
9795625.7
9797377.9
9799655.9
9801336.7
9802186
9802581.6
9802846.5
9803105.3
9803383.1
9803688.6
9804029.9
9804415.7
9804856.3
9805364.4
9805956
9806651.8
9807758.4
9809883.2
9812857.5
9817114.2
9823226.2
9831505
9840530.9
9845950.2
9846972.7
9847393
9847884.9
9848469.4
9849171.4
9850025
9851078.7
9852387.8
9854909.5
9860184.1
9869102.7
9885432.7
9917384
9974968.1
10020905
10023052
10023361
10023756
10024553
10026258
10029304
10035490
10050234
10092939
10182261
10192037
10192430
10193046
10194095
10196107
10200694
10214245
10270381
10352769
10353139
10353647
10354392
10355525
10357337
10360325
10365459
10374429
10389230
10410145
10433816
10454708
10471352
10483010
10490999
10495971
10498730
10500054
10500619
10500843
10500933
10500975
10500998
10501013
10501023
10501030
10501034
10501037
10501038
10501039
10501039
10501038
10501037
10501036
10501034
10501032
10501031
10501029
10501027
10501025
10501024
10501022
10501025
10501024
10501022
499.25412
417.98094
412.11449
411.57862
411.59314
411.56421
411.52746
411.50225
411.48785
411.48165
411.48218
411.48887
411.50169
411.52116
411.54819
411.58486
411.63281
411.7011
411.78128
411.95503
412.00081
412.47027
422.68568
17398.803
6540586.3
6405353.2
6405295.6
6405516.2
6406769.8
6408563.5
6410503.7
6412534.1
6414726
6417088.8
6421143.3
6426440.7
6430321.1
6432227.7
6433053
6433559.8
6434045
6434569.2
6435151
6435807.2
6436556.5
6437420.8
6438427.9
6439613.2
6441022.4
6443375.2
6448108.3
6454821.8
6464534
6478593.6
6497732.4
6518588.1
6530848
6532615.6
6532848.6
6533116.7
6533435.3
6533817.9
6534283.2
6534857.5
6535571.1
6536946.2
6539821.1
6544681.5
6553578.1
6570974.5
6602285.9
6627212.9
6628374.9
6628542.2
6628756.9
6629189.3
6630114.8
6631767.6
6635123.7
6643121.7
6666270.7
6714590.8
6719864.8
6720077.2
6720409.9
6720976.8
6722064
6724542.2
6731861.4
6762157.9
6806522.4
6806721.3
6806994.6
6807395.9
6808005.2
6808980.3
6810587.6
6813349.5
6818173.8
6826132.3
6837372.5
6850086.5
6861301.5
6870231.4
6876484
6880768.2
6883434
6884912.8
6885622.6
6885925.2
6886045.8
6886094
6886116.2
6886128.7
6886136.7
6886142.1
6886145.7
6886148
6886149.5
6886150.2
6886150.5
6886150.4
6886150
6886149.5
6886148.8
6886147.9
6886147
6886146.1
6886145.1
6886144.2
6886143.2
6886142.7
6886141.5
6886143.2
6886142.6
6886141.4
498.86646
417.31331
411.43497
410.89271
410.90567
410.87631
410.83934
410.81398
410.79947
410.7932
410.79367
410.80032
410.81312
410.83259
410.85961
410.8963
410.94428
411.0126
411.09281
411.26664
411.31265
411.77848
421.98894
16969.714
4526207
4408929
4408843.1
4409253.1
4411593.4
4414993
4418720.8
4422662.8
4426951.1
4431598.6
4439869.1
4450783
4458621.6
4462175
4463347.6
4463760.3
4464055.7
4464361.4
4464699.7
4465081.2
4465516.9
4466019.5
4466605.1
4467294.3
4468113.6
4469482.9
4472234.8
4476137.3
4481781.4
4489948
4501056.6
4513148.1
4520245.1
4521266.3
4521401.3
4521556.6
4521741.2
4521962.9
4522232.5
4522565.3
4522978.7
4523775.8
4525441.6
4528257.5
4533410.7
4543482.5
4561591.4
4575980.9
4576649.8
4576746.4
4576870.4
4577120.2
4577654.6
4578609
4580546.9
4585164.4
4598522.2
4626357.3
4629387.1
4629509.4
4629700.9
4630027.1
4630652.9
4632079.2
4636291.3
4653715.3
4679181.3
4679295.4
4679452.2
4679682.5
4680032.1
4680591.5
4681513.6
4683098
4685865.2
4690428.9
4696872.2
4704157
4710580.2
4715692.6
4719271.4
4721723.1
4723248.4
4724094.5
4724500.6
4724673.7
4724742.7
4724770.3
4724783
4724790.1
4724794.7
4724797.8
4724799.9
4724801.2
4724802
4724802.5
4724802.6
4724802.5
4724802.3
4724802
4724801.6
4724801.1
4724800.6
4724800.1
4724799.5
4724799
4724798.4
4724798.1
4724797.4
4724798.4
4724798.1
4724797.4
498.39544
416.50034
410.60744
410.05735
410.06841
410.03851
410.00126
409.97572
409.96109
409.95472
409.95513
409.96174
409.97451
409.99396
410.02099
410.0577
410.1057
410.17407
410.2543
410.42824
410.47454
410.93599
421.13876
16516.034
3227671.4
3156247.5
3156171.8
3156419
3157842.4
3159910.6
3162178.3
3164575.9
3167183.7
3170009.1
3175029.5
3181658.2
3186416.8
3188573.4
3189285
3189535.4
3189714.6
3189900.1
3190105.4
3190337
3190601.4
3190906.4
3191261.7
3191679.9
3192177.1
3193008.9
3194679
3197046.9
3200470.8
3205423
3212155
3219475.3
3223765.2
3224381.2
3224462.8
3224556.8
3224668.5
3224802.7
3224965.9
3225167.2
3225417.4
3225900.1
3226908.3
3228612.4
3231730.5
3237822.4
3248765.8
3257446.4
3257848.7
3257907
3257981.8
3258132.6
3258455.2
3259031.3
3260200.9
3262987.7
3271046.1
3287813.8
3289633.8
3289707.5
3289822.7
3290019.1
3290395.9
3291254.5
3293790.2
3304274.4
3319571.3
3319639.8
3319733.9
3319872.2
3320082.1
3320418.1
3320971.9
3321923.2
3323584.6
3326324.2
3330190.8
3334560.9
3338412.8
3341477.7
3343622.8
3345092.1
3346006.1
3346513.1
3346756.4
3346860.2
3346901.5
3346918
3346925.6
3346929.9
3346932.6
3346934.5
3346935.7
3346936.5
3346937
3346937.3
3346937.4
3346937.3
3346937.2
3346937
3346936.8
3346936.5
3346936.2
3346935.9
3346935.5
3346935.2
3346934.9
3346934.7
3346934.3
3346934.9
3346934.6
3346934.3
497.83154
415.52449
409.61393
409.0544
409.06315
409.03261
408.99503
408.96926
408.95447
408.94799
408.94832
408.95488
408.96762
408.98706
409.01409
409.05082
409.09885
409.16728
409.24754
409.4216
409.46825
409.92453
420.11558
16035.165
2352461.6
2307504.5
2307431.1
2307583.6
2308475.8
2309773.1
2311195.6
2312699.4
2314334.8
2316106.4
2319249.2
2323402
2326382.1
2327732.4
2328177.8
2328334.6
2328446.8
2328562.9
2328691.4
2328836.4
2329001.9
2329192.9
2329415.3
2329677.2
2329988.4
2330509.9
2331555.5
2333038.1
2335181.3
2338280.3
2342490.5
2347064.5
2349740.9
2350124.2
2350175.2
2350234
2350303.7
2350387.6
2350489.5
2350615.3
2350771.5
2351073.3
2351703.1
2352767.8
2354715.5
2358519.9
2365348.6
2370756.1
2371006
2371042.3
2371088.9
2371183
2371384
2371743.2
2372472.4
2374209.5
2379231.4
2389666.8
2390796.3
2390842.1
2390913.8
2391036
2391270.4
2391804.6
2393382
2399901.7
2409399.5
2409442
2409500.5
2409586.3
2409716.6
2409925.2
2410269
2410859.6
2411890.9
2413591.1
2415990.3
2418701.1
2421089.7
2422989.8
2424319.6
2425230.2
2425796.7
2426110.9
2426261.7
2426325.9
2426351.6
2426361.8
2426366.5
2426369.2
2426370.9
2426372
2426372.8
2426373.3
2426373.6
2426373.7
2426373.8
2426373.8
2426373.7
2426373.6
2426373.4
2426373.3
2426373.1
2426372.9
2426372.7
2426372.5
2426372.2
2426372.1
2426371.9
2426372.2
2426372.1
2426371.9
497.16417
414.36598
408.43421
407.86342
407.8694
407.83807
407.8001
407.77406
407.75908
407.75247
407.75271
407.7592
407.7719
407.79133
407.81836
407.85511
407.90318
407.97169
408.05197
408.2262
408.27323
408.72353
418.89713
15524.871
1742565.6
1713532.1
1713456.3
1713551.3
1714123.1
1714955.4
1715868.2
1716833.2
1717882.5
1719019.1
1721032.1
1723694.5
1725604.5
1726469.7
1726755.1
1726855.5
1726927.4
1727001.8
1727084.1
1727177
1727283.1
1727405.4
1727548
1727715.7
1727915.2
1728249.7
1728919.9
1729870
1731243.3
1733228.4
1735924
1738849.9
1740559.3
1740803.6
1740836.2
1740873.8
1740918.4
1740972
1741037.2
1741117.6
1741217.6
1741410.7
1741813.7
1742494.7
1743740.6
1746173.5
1750537.5
1753987.6
1754146.4
1754169.6
1754199.4
1754259.5
1754387.9
1754617.2
1755082.8
1756192.1
1759398.1
1766052
1766770.2
1766799.4
1766845.1
1766923
1767072.4
1767412.9
1768418.5
1772573.5
1778617.5
1778644.5
1778681.7
1778736.4
1778819.3
1778952
1779170.8
1779546.6
1780202.8
1781284.6
1782810.6
1784534.4
1786053.1
1787260.8
1788106
1788684.7
1789044.6
1789244.3
1789340.1
1789380.9
1789397.2
1789403.7
1789406.7
1789408.4
1789409.5
1789410.2
1789410.7
1789411
1789411.2
1789411.3
1789411.3
1789411.3
1789411.3
1789411.2
1789411.1
1789411
1789410.9
1789410.7
1789410.6
1789410.5
1789410.3
1789410.3
1789410.1
1789410.4
1789410.3
1789410.1
496.38173
413.00279
407.04574
406.46164
406.4643
406.43203
406.39359
406.36723
406.35202
406.34525
406.34538
406.35179
406.36445
406.38385
406.4109
406.44767
406.49578
406.56438
406.64471
406.81912
406.8666
407.31007
417.45835
14983.397
1306649.7
1287504.3
1287423.1
1287481.8
1287854
1288397.1
1288992.9
1289622.8
1290307.8
1291049.6
1292361.5
1294098.4
1295344.1
1295908.2
1296094.3
1296159.7
1296206.6
1296255.1
1296308.7
1296369.3
1296438.4
1296518.2
1296611.2
1296720.6
1296850.6
1297069.1
1297506.2
1298125.9
1299021.5
1300315.7
1302072.4
1303977.6
1305088.9
1305247.3
1305268.6
1305293
1305322.1
1305357
1305399.4
1305451.8
1305516.9
1305642.7
1305905.1
1306348.7
1307160
1308744
1311583.5
1313824.8
1313927.7
1313942.7
1313962.1
1314001.2
1314084.7
1314233.8
1314536.6
1315257.9
1317342.2
1321663.4
1322128.5
1322147.4
1322177.1
1322227.7
1322324.7
1322545.8
1323198.8
1325896.2
1329814.5
1329832
1329856.1
1329891.5
1329945.3
1330031.4
1330173.2
1330416.9
1330842.3
1331543.5
1332532.6
1333649.5
1334633.4
1335415.7
1335963
1336337.8
1336570.9
1336700.2
1336762.3
1336788.7
1336799.2
1336803.4
1336805.4
1336806.5
1336807.2
1336807.7
1336808
1336808.2
1336808.3
1336808.4
1336808.4
1336808.4
1336808.3
1336808.3
1336808.2
1336808.2
1336808.1
1336808
1336807.9
1336807.8
1336807.7
1336807.7
1336807.6
1336807.7
1336807.7
1336807.6
495.47171
411.41065
405.42363
404.82387
404.82258
404.78921
404.7502
404.72347
404.70799
404.70103
404.70102
404.70735
404.71995
404.73934
404.76638
404.80319
404.85135
404.92006
405.00042
405.17507
405.22305
405.65891
415.77117
14409.587
988963.66
976110.8
976022
976057.04
976301.93
976660.61
977054.47
977471.02
977924.01
978414.63
979280.9
980429.09
981252.41
981625.2
981748.1
981791.3
981822.22
981854.24
981889.69
981929.68
981975.37
982028.07
982089.49
982161.78
982247.73
982392.32
982681.29
983090.91
983682.86
984538.15
985698.57
986956.01
987688.37
987792.5
987806.49
987822.63
987841.8
987864.83
987892.84
987927.41
987970.37
988053.5
988226.75
988519.56
989055.19
990100.73
991973.93
993450.13
993517.65
993527.58
993540.34
993566.11
993621.15
993719.47
993919.12
994394.74
995768.86
998614.63
998920.03
998932.5
998952.04
998985.34
999049.22
999194.84
999624.88
1001401
1003977.5
1003989.1
1004004.9
1004028.2
1004063.6
1004120.2
1004213.5
1004373.7
1004653.5
1005114.6
1005764.9
1006499.1
1007145.7
1007659.8
1008019.5
1008265.7
1008418.9
1008503.8
1008544.6
1008561.9
1008568.9
1008571.6
1008572.9
1008573.6
1008574.1
1008574.4
1008574.6
1008574.7
1008574.8
1008574.9
1008574.9
1008574.9
1008574.8
1008574.8
1008574.8
1008574.7
1008574.7
1008574.6
1008574.5
1008574.5
1008574.4
1008574.4
1008574.3
1008574.4
1008574.4
1008574.3
494.42072
409.56301
403.54059
402.92254
402.91657
402.88188
402.84222
402.81504
402.79926
402.79207
402.7919
402.79812
402.81066
402.83002
402.85707
402.89392
402.94214
403.01096
403.09138
403.26631
403.31484
403.7424
413.80441
13802.987
753928.49
745158.05
745059.63
745078.69
745240.75
745479.73
745742.54
746020.66
746323.21
746650.92
747228.73
747995.54
748545.28
748794.14
748876.13
748904.93
748925.53
748946.87
748970.51
748997.19
749027.67
749062.84
749103.83
749152.09
749209.47
749306.15
749499.16
749772.75
750168.09
750739.19
751513.75
752352.4
752840.08
752909.23
752918.56
752929.31
752942.09
752957.45
752976.12
752999.18
753027.83
753083.33
753198.91
753394.27
753751.63
754449.09
755698
756680.69
756725.47
756732.09
756740.58
756757.76
756794.44
756859.96
756993.01
757310
758225.69
760120.18
760322.89
760331.2
760344.2
760366.36
760408.89
760505.83
760792.14
761974.44
763687.42
763695.08
763705.63
763721.11
763744.63
763782.27
763844.3
763950.87
764136.91
764443.49
764875.8
765363.83
765793.58
766135.15
766374.14
766537.75
766639.5
766695.93
766723.01
766734.55
766739.15
766740.99
766741.84
766742.32
766742.62
766742.83
766742.97
766743.05
766743.11
766743.14
766743.15
766743.14
766743.12
766743.1
766743.07
766743.04
766743
766742.97
766742.93
766742.89
766742.85
766742.83
766742.78
766742.85
766742.82
766742.77
493.21463
407.43103
401.36696
400.72762
400.71614
400.6799
400.63946
400.61176
400.5956
400.58815
400.5878
400.5939
400.60636
400.62569
400.65274
400.68964
400.73793
400.80689
400.88738
401.06263
401.11176
401.53055
411.52363
13163.96
577989.74
571909.29
571799.5
571807.32
571914.59
572074.67
572251.17
572438.17
572641.72
572862.27
573250.65
573766.8
574136.77
574304.18
574359.3
574378.61
574392.43
574406.75
574422.61
574440.54
574461.02
574484.67
574512.24
574544.7
574583.3
574648.47
574778.41
574962.61
575228.77
575613.21
576134.4
576698.29
577025.69
577071.98
577078.24
577085.46
577094.05
577104.37
577116.92
577132.42
577151.68
577189.03
577266.77
577398.18
577638.56
578107.66
578947.24
579606.84
579636.79
579641.23
579646.93
579658.47
579683.11
579727.14
579816.56
580029.59
580644.92
581916.76
582052.45
582058.02
582066.75
582081.62
582110.17
582175.26
582367.5
583161.25
584309.86
584315
584322.07
584332.45
584348.22
584373.47
584415.07
584486.55
584611.33
584816.94
585106.83
585434.04
585722.14
585951.09
586111.28
586220.93
586289.12
586326.94
586345.09
586352.83
586355.91
586357.15
586357.71
586358.04
586358.24
586358.38
586358.47
586358.53
586358.56
586358.58
586358.59
586358.58
586358.57
586358.55
586358.53
586358.51
586358.48
586358.46
586358.43
586358.41
586358.38
586358.36
586358.33
586358.37
586358.36
586358.32
491.83877
404.98363
398.87066
398.20665
398.18868
398.15061
398.10927
398.08096
398.06437
398.05661
398.05605
398.062
398.07437
398.09366
398.12072
398.15766
398.20603
398.27517
398.35572
398.53138
398.58114
398.99109
408.89096
12493.779
445073.45
440788.5
440665.62
440665.13
440735.63
440843.03
440962.01
441088.32
441225.97
441375.21
441637.8
441987.32
442237.81
442351.1
442388.34
442401.34
442410.63
442420.27
442430.97
442443.07
442456.9
442472.88
442491.53
442513.49
442539.61
442583.8
442671.83
442796.62
442976.93
443237.35
443590.28
443971.83
444193.02
444224.2
444228.42
444233.3
444239.1
444246.07
444254.55
444265.03
444278.06
444303.35
444355.98
444444.94
444607.67
444925.21
445493.28
445938.88
445959.04
445962.04
445965.89
445973.69
445990.35
446020.13
446080.61
446224.71
446640.92
447500.4
447591.83
447595.59
447601.48
447611.53
447630.82
447674.81
447804.75
448341.21
449116.57
449120.04
449124.8
449131.81
449142.46
449159.51
449187.6
449235.87
449320.13
449458.96
449654.68
449875.55
450070.01
450224.53
450332.64
450406.64
450452.66
450478.18
450490.43
450495.65
450497.73
450498.56
450498.95
450499.16
450499.3
450499.39
450499.46
450499.49
450499.52
450499.53
450499.53
450499.52
450499.52
450499.5
450499.49
450499.47
450499.45
450499.43
450499.42
450499.4
450499.38
450499.37
450499.34
450499.37
450499.36
450499.33
490.2781
402.18756
396.01732
395.32479
395.29922
395.259
395.2166
395.18758
395.17049
395.16237
395.16155
395.16733
395.1796
395.19883
395.2259
395.26291
395.31137
395.38069
395.46134
395.63748
395.68787
396.08933
405.86521
11794.708
343931.7
340858.84
340721.12
340714.08
340759.5
340831.35
340911.59
340997.1
341090.47
341191.81
341370.12
341607.88
341778.24
341855.22
341880.46
341889.22
341895.46
341901.96
341909.18
341917.35
341926.72
341937.56
341950.21
341965.13
341982.88
342012.97
342072.89
342157.84
342280.6
342457.86
342698.04
342957.51
343107.67
343128.77
343131.63
343134.93
343138.86
343143.59
343149.35
343156.47
343165.32
343182.53
343218.33
343278.85
343389.57
343605.61
343991.92
344294.5
344308.13
344310.16
344312.77
344318.07
344329.39
344349.63
344390.75
344488.72
344771.7
345355.55
345417.47
345420.01
345424.01
345430.83
345443.93
345473.82
345562.11
345926.59
346452.76
346455.11
346458.35
346463.1
346470.33
346481.9
346500.97
346533.74
346590.95
346685.19
346818.04
346967.95
347099.92
347204.77
347278.13
347328.34
347359.56
347376.88
347385.19
347388.74
347390.15
347390.72
347390.98
347391.12
347391.22
347391.28
347391.32
347391.34
347391.36
347391.36
347391.36
347391.36
347391.35
347391.34
347391.33
347391.32
347391.3
347391.29
347391.27
347391.26
347391.25
347391.24
347391.22
347391.24
347391.23
347391.21
488.51755
399.00756
392.77032
392.04493
392.01046
391.96773
391.92409
391.89424
391.87657
391.86803
391.86691
391.87249
391.88464
391.90382
391.93088
391.96796
392.01652
392.08608
392.16682
392.34354
392.39456
392.78836
402.40185
11070.053
266528.93
264283.1
264128.72
264116.11
264144.14
264191.7
264245.62
264303.45
264366.82
264435.75
264557.16
264719.43
264835.66
264888.11
264905.23
264911.1
264915.27
264919.62
264924.48
264930
264936.35
264943.7
264952.3
264962.44
264974.54
264995.1
265036.03
265094.07
265177.95
265299.09
265463.16
265640.29
265742.64
265756.97
265758.9
265761.13
265763.8
265767.02
265770.93
265775.78
265781.81
265793.56
265818
265859.34
265934.97
266082.54
266346.31
266552.59
266561.84
266563.22
266564.99
266568.6
266576.32
266590.13
266618.19
266685.08
266878.26
267276.5
267318.6
267320.34
267323.06
267327.71
267336.64
267357.02
267417.26
267665.93
268024.5
268026.1
268028.3
268031.54
268036.46
268044.35
268057.35
268079.7
268118.7
268182.96
268273.52
268375.71
268465.66
268537.12
268587.11
268621.33
268642.61
268654.42
268660.09
268662.5
268663.47
268663.85
268664.03
268664.13
268664.19
268664.24
268664.26
268664.28
268664.28
268664.29
268664.28
268664.28
268664.27
268664.26
268664.25
268664.24
268664.23
268664.22
268664.21
268664.2
268664.18
268664.18
268664.16
268664.17
268664.16
268664.15
486.54238
395.40663
389.09107
388.32792
388.28306
388.23737
388.19229
388.16148
388.14312
388.13409
388.13263
388.13797
388.14997
388.16908
388.19615
388.2333
388.28199
388.3518
388.43266
388.61007
388.66167
389.04935
398.45305
10324.175
207025.72
205350.62
205177.64
205159.89
205175.56
205206.34
205242.18
205281.07
205323.97
205370.81
205453.59
205564.55
205644.01
205679.77
205691.34
205695.23
205697.97
205700.85
205704.09
205707.79
205712.07
205717.04
205722.88
205729.78
205738.02
205752.1
205780.12
205819.88
205877.37
205960.38
206072.81
206194.1
206264.07
206273.81
206275.11
206276.62
206278.43
206280.61
206283.27
206286.58
206290.69
206298.74
206315.47
206343.78
206395.6
206496.71
206677.38
206818.47
206824.76
206825.69
206826.9
206829.36
206834.64
206844.09
206863.3
206909.1
207041.41
207313.93
207342.66
207343.84
207345.69
207348.87
207354.97
207368.92
207410.15
207580.37
207825.55
207826.64
207828.14
207830.35
207833.72
207839.11
207848.01
207863.3
207889.99
207933.95
207995.91
208065.81
208127.33
208176.21
208210.41
208233.81
208248.37
208256.45
208260.32
208261.98
208262.64
208262.91
208263.03
208263.1
208263.14
208263.17
208263.18
208263.19
208263.19
208263.19
208263.19
208263.18
208263.17
208263.17
208263.16
208263.15
208263.14
208263.13
208263.11
208263.1
208263.09
208263.09
208263.08
208263.08
208263.07
208263.05
484.33872
391.34636
384.93929
384.13285
384.07585
384.0267
383.97994
383.94801
383.92885
383.91926
383.91739
383.92245
383.93429
383.95332
383.98038
384.01762
384.06644
384.13656
384.21755
384.39579
384.44784
384.83183
393.9679
9562.4549
161118.84
159842.92
159649.29
159626.44
159633.02
159651.99
159675.28
159701.09
159729.91
159761.59
159817.99
159893.91
159948.24
159972.59
159980.35
159982.85
159984.59
159986.44
159988.56
159991
159993.85
159997.19
160001.13
160005.81
160011.41
160021.04
160040.25
160067.54
160107.01
160164.03
160241.24
160324.49
160372.42
160379.05
160379.92
160380.93
160382.14
160383.62
160385.42
160387.67
160390.48
160395.98
160407.46
160426.9
160462.48
160531.94
160656
160752.73
160757.02
160757.64
160758.46
160760.14
160763.75
160770.22
160783.4
160814.85
160905.7
161092.68
161112.32
161113.12
161114.39
161116.56
161120.74
161130.3
161158.59
161275.42
161443.51
161444.26
161445.28
161446.79
161449.1
161452.8
161458.91
161469.4
161487.72
161517.89
161560.4
161608.35
161650.57
161684.1
161707.56
161723.62
161733.61
161739.15
161741.82
161742.95
161743.41
161743.59
161743.68
161743.72
161743.75
161743.77
161743.78
161743.78
161743.78
161743.77
161743.77
161743.76
161743.75
161743.74
161743.73
161743.72
161743.71
161743.7
161743.69
161743.68
161743.67
161743.66
161743.65
161743.65
161743.64
161743.63
481.89418
386.7875
380.27352
379.41751
379.34636
379.29315
379.24443
379.2112
379.19113
379.18087
379.17853
379.18327
379.1949
379.21383
379.24089
379.27822
379.3272
379.39766
379.47881
379.65805
379.71036
380.09424
388.89274
8791.2021
125600.56
124608.92
124392.47
124364.22
124363.82
124374.28
124388.69
124405.36
124424.4
124445.6
124483.87
124535.75
124572.83
124589.32
124594.43
124595.95
124596.97
124598.09
124599.41
124600.97
124602.83
124605.03
124607.65
124610.79
124614.57
124621.14
124634.31
124653.05
124680.18
124719.4
124772.51
124829.74
124862.63
124867.14
124867.7
124868.36
124869.16
124870.15
124871.36
124872.88
124874.78
124878.56
124886.43
124899.79
124924.27
124972.06
125057.42
125123.87
125126.79
125127.21
125127.75
125128.89
125131.36
125135.8
125144.86
125166.48
125228.99
125357.54
125371
125371.54
125372.4
125373.88
125376.74
125383.31
125402.77
125483.12
125598.6
125599.11
125599.81
125600.85
125602.43
125604.97
125609.18
125616.4
125629.01
125649.76
125679.01
125712
125741.04
125764.1
125780.24
125791.29
125798.17
125801.98
125803.82
125804.6
125804.92
125805.05
125805.1
125805.14
125805.15
125805.16
125805.17
125805.16
125805.16
125805.15
125805.15
125805.14
125805.13
125805.11
125805.1
125805.09
125805.08
125805.07
125805.06
125805.05
125805.04
125805.03
125805.02
125805.01
125805
125804.98
479.19866
381.69067
375.05169
374.13906
374.0514
373.99342
373.94243
373.90769
373.88654
373.8755
373.87262
373.87698
373.88837
373.90719
373.93423
373.97166
374.02081
374.09167
374.17301
374.35343
374.4057
374.79455
383.17168
8017.5103
98057.287
97273.427
97031.949
96997.696
96991.588
96995.69
97003.681
97013.842
97025.985
97039.852
97065.61
97100.899
97126.069
97137.106