/*--------------------------------*- C++ -*----------------------------------*\
| =========                 |                                                 |
| \\      /  F ield         | OpenFOAM: The Open Source CFD Toolbox           |
|  \\    /   O peration     | Version:  2206                                  |
|   \\  /    A nd           | Website:  www.openfoam.com                      |
|    \\/     M anipulation  |                                                 |
\*---------------------------------------------------------------------------*/
FoamFile
{
    version     2.0;
    format      ascii;
    arch        "LSB;label=32;scalar=64";
    class       volScalarField;
    location    "1200";
    object      p;
}
// * * * * * * * * * * * * * * * * * * * * * * * * * * * * * * * * * * * * * //

dimensions      [0 2 -2 0 0 0 0];

internalField   nonuniform List<scalar> 
13056
(
0.012027533
0.012131386
0.012351274
0.012631893
0.012971916
0.013371601
0.013829075
0.014343543
0.014916341
0.015550701
0.016251638
0.017026294
0.017884541
0.018840347
0.019912666
0.021130847
0.022531604
0.024191214
0.026169706
0.028760561
0.031880778
0.037330927
0.042414132
0.08086588
0.05120631
0.0023462965
0.0010199146
0.0018934387
0.0024439983
0.0028881753
0.0031588772
0.0033487382
0.0034931836
0.0035975502
0.0036712061
0.0037239787
0.0037621392
0.0037892962
0.0038077916
0.0038196417
0.0038262753
0.0038285698
0.0038273381
0.003823247
0.0038167
0.0038080245
0.0037975038
0.0037853559
0.0037717648
0.0037568583
0.003740719
0.0037234296
0.0037050512
0.0036856334
0.0036652195
0.0036438147
0.0036214116
0.0035980133
0.0035736099
0.0035481829
0.003521709
0.003494162
0.0034654863
0.0034356097
0.0034044609
0.0033719637
0.0033380428
0.0033026143
0.0032655879
0.0032268816
0.0031863971
0.0031440136
0.0030996144
0.00305309
0.0030043286
0.0029532571
0.0028998247
0.0028440686
0.002786047
0.0027257676
0.0026634514
0.0025993515
0.0025338121
0.0024676763
0.0024022262
0.0023392948
0.0022816002
0.0022331566
0.0021985085
0.0021809141
0.0021916398
0.0022351915
0.0023134656
0.0024377155
0.0026125836
0.0028389748
0.0031113043
0.0034228106
0.0037641484
0.0040910868
0.0043530149
0.0045141594
0.0045793422
0.0045535185
0.0044557056
0.0043310309
0.0041888602
0.0040390334
0.0038868147
0.0037313684
0.0035758487
0.0034183946
0.0032552698
0.0030906463
0.0029262264
0.002763306
0.0026039336
0.002447035
0.0022914515
0.0021400499
0.001992675
0.0018477033
0.0017055649
0.0015678931
0.0014346268
0.0013042196
0.0011774365
0.0010549284
0.00093887808
0.00082889189
0.00072746645
0.00063109761
0.00056883746
0.00048201409
0.00066739203
-0.00051334528
0.012027533
0.012131386
0.012351274
0.012631893
0.012971916
0.013371601
0.013829075
0.014343544
0.014916341
0.015550702
0.016251639
0.017026295
0.017884542
0.018840348
0.019912668
0.021130849
0.022531606
0.024191217
0.02616971
0.028760567
0.031880786
0.037330943
0.042414169
0.080861081
0.051217614
0.0023535239
0.0010217645
0.001894276
0.0024445113
0.002888536
0.0031591499
0.003348955
0.0034933611
0.0035976989
0.0036713329
0.0037240885
0.0037622354
0.0037893813
0.0038078675
0.0038197099
0.003826337
0.0038286258
0.0038273892
0.0038232938
0.0038167432
0.0038080644
0.0037975407
0.0037853902
0.0037717967
0.003756888
0.0037407468
0.0037234556
0.0037050756
0.0036856564
0.0036652411
0.0036438351
0.0036214308
0.0035980314
0.0035736271
0.0035481991
0.0035217244
0.0034941766
0.0034655001
0.0034356228
0.0034044733
0.0033719755
0.003338054
0.0033026249
0.0032655981
0.0032268912
0.0031864062
0.0031440223
0.0030996226
0.0030530978
0.003004336
0.0029532641
0.0028998313
0.0028440748
0.0027860529
0.0027257731
0.0026634565
0.0025993562
0.0025338164
0.0024676803
0.0024022297
0.0023392979
0.0022816028
0.0022331587
0.0021985101
0.002180915
0.00219164
0.0022351909
0.0023134643
0.0024377134
0.0026125805
0.0028389708
0.0031112995
0.0034228051
0.0037641423
0.0040910807
0.0043530091
0.0045141544
0.004579338
0.0045535156
0.0044557035
0.0043310295
0.0041888592
0.0040390327
0.0038868142
0.0037313682
0.0035758486
0.0034183946
0.0032552699
0.0030906465
0.0029262267
0.0027633064
0.002603934
0.0024470354
0.002291452
0.0021400504
0.0019926755
0.0018477038
0.0017055654
0.0015678936
0.0014346273
0.0013042201
0.001177437
0.0010549289
0.00093887854
0.00082889235
0.00072746691
0.00063109807
0.00056883796
0.00048201462
0.00066739258
-0.00051334493
0.012027533
0.012131386
0.012351274
0.012631893
0.012971917
0.013371601
0.013829076
0.014343544
0.014916341
0.015550702
0.016251639
0.017026295
0.017884543
0.018840349
0.019912669
0.021130851
0.022531609
0.024191221
0.026169715
0.028760574
0.031880794
0.037330962
0.042414196
0.080856231
0.051233157
0.0023605344
0.0010239584
0.0018952773
0.0024451247
0.0028889674
0.003159476
0.0033492142
0.0034935734
0.0035978766
0.0036714845
0.0037242198
0.0037623505
0.0037894831
0.0038079583
0.0038197914
0.0038264107
0.0038286928
0.0038274504
0.0038233499
0.0038167947
0.003808112
0.0037975848
0.0037854311
0.0037718348
0.0037569236
0.0037407801
0.0037234868
0.0037051048
0.0036856839
0.003665267
0.0036438594
0.0036214538
0.0035980531
0.0035736476
0.0035482185
0.0035217428
0.003494194
0.0034655166
0.0034356385
0.0034044882
0.0033719897
0.0033380674
0.0033026377
0.0032656102
0.0032269027
0.0031864172
0.0031440326
0.0030996324
0.0030531071
0.0030043448
0.0029532725
0.0028998392
0.0028440822
0.0027860599
0.0027257796
0.0026634626
0.0025993618
0.0025338216
0.0024676849
0.0024022339
0.0023393016
0.0022816059
0.0022331612
0.002198512
0.0021809162
0.0021916402
0.0022351903
0.0023134627
0.0024377107
0.0026125768
0.002838966
0.0031112937
0.0034227985
0.0037641351
0.0040910733
0.0043530021
0.0045141484
0.0045793331
0.0045535121
0.0044557011
0.0043310278
0.004188858
0.0040390319
0.0038868137
0.0037313679
0.0035758485
0.0034183946
0.0032552701
0.0030906468
0.002926227
0.0027633068
0.0026039345
0.0024470359
0.0022914525
0.002140051
0.0019926761
0.0018477044
0.001705566
0.0015678942
0.0014346279
0.0013042207
0.0011774375
0.0010549295
0.00093887911
0.0008288929
0.00072746747
0.00063109862
0.00056883856
0.00048201526
0.00066739325
-0.00051334452
0.012027533
0.012131387
0.012351274
0.012631893
0.012971917
0.013371602
0.013829076
0.014343544
0.014916342
0.015550702
0.01625164
0.017026296
0.017884543
0.01884035
0.019912671
0.021130853
0.022531611
0.024191225
0.026169719
0.028760581
0.031880803
0.037330978
0.042414222
0.080851497
0.051250497
0.0023657191
0.0010260225
0.0018962581
0.0024457257
0.00288939
0.0031597955
0.0033494682
0.0034937813
0.0035980507
0.0036716331
0.0037243485
0.0037624632
0.0037895828
0.0038080472
0.0038198713
0.0038264829
0.0038287584
0.0038275103
0.0038234048
0.0038168453
0.0038081586
0.003797628
0.0037854712
0.0037718721
0.0037569584
0.0037408126
0.0037235173
0.0037051335
0.0036857108
0.0036652923
0.0036438833
0.0036214763
0.0035980744
0.0035736677
0.0035482375
0.0035217608
0.003494211
0.0034655328
0.0034356539
0.0034045028
0.0033720035
0.0033380806
0.0033026502
0.0032656221
0.003226914
0.0031864279
0.0031440428
0.0030996421
0.0030531163
0.0030043535
0.0029532807
0.002899847
0.0028440895
0.0027860667
0.002725786
0.0026634685
0.0025993673
0.0025338266
0.0024676895
0.002402238
0.0023393052
0.0022816089
0.0022331636
0.0021985138
0.0021809172
0.0021916405
0.0022351897
0.0023134612
0.0024377082
0.0026125732
0.0028389613
0.0031112881
0.003422792
0.0037641281
0.004091066
0.0043529953
0.0045141426
0.0045793284
0.0045535088
0.0044556986
0.0043310261
0.0041888569
0.0040390312
0.0038868133
0.0037313676
0.0035758484
0.0034183947
0.0032552702
0.003090647
0.0029262274
0.0027633072
0.0026039349
0.0024470365
0.0022914531
0.0021400515
0.0019926767
0.001847705
0.0017055666
0.0015678948
0.0014346285
0.0013042213
0.0011774381
0.00105493
0.00093887965
0.00082889344
0.00072746801
0.00063109915
0.00056883915
0.00048201585
0.0006673939
-0.00051334413
0.012027533
0.012131387
0.012351274
0.012631893
0.012971917
0.013371602
0.013829076
0.014343545
0.014916342
0.015550703
0.01625164
0.017026297
0.017884544
0.018840352
0.019912672
0.021130855
0.022531614
0.024191228
0.026169724
0.028760588
0.031880812
0.037330994
0.042414253
0.080846426
0.051268936
0.0023714822
0.00102811
0.0018972622
0.0024463411
0.0028898227
0.0031601227
0.0033497282
0.0034939942
0.003598229
0.0036717852
0.0037244802
0.0037625786
0.0037896849
0.0038081383
0.0038199531
0.0038265568
0.0038288256
0.0038275716
0.003823461
0.003816897
0.0038082064
0.0037976722
0.0037855123
0.0037719103
0.0037569941
0.003740846
0.0037235485
0.0037051628
0.0036857383
0.0036653182
0.0036439077
0.0036214994
0.0035980961
0.0035736883
0.003548257
0.0035217792
0.0034942285
0.0034655494
0.0034356696
0.0034045177
0.0033720177
0.0033380941
0.003302663
0.0032656342
0.0032269256
0.0031864388
0.0031440532
0.003099652
0.0030531257
0.0030043624
0.002953289
0.0028998549
0.002844097
0.0027860737
0.0027257926
0.0026634746
0.0025993729
0.0025338318
0.0024676942
0.0024022422
0.0023393088
0.0022816121
0.0022331662
0.0021985156
0.0021809183
0.0021916407
0.0022351891
0.0023134596
0.0024377055
0.0026125694
0.0028389565
0.0031112823
0.0034227854
0.0037641209
0.0040910586
0.0043529884
0.0045141366
0.0045793237
0.0045535053
0.0044556962
0.0043310244
0.0041888557
0.0040390304
0.0038868128
0.0037313673
0.0035758483
0.0034183947
0.0032552704
0.0030906472
0.0029262277
0.0027633076
0.0026039354
0.002447037
0.0022914536
0.0021400521
0.0019926773
0.0018477056
0.0017055672
0.0015678954
0.0014346291
0.0013042219
0.0011774387
0.0010549306
0.00093888022
0.000828894
0.00072746857
0.00063109971
0.00056883976
0.00048201646
0.00066739456
-0.00051334373
0.012027533
0.012131387
0.012351274
0.012631893
0.012971917
0.013371602
0.013829076
0.014343545
0.014916342
0.015550704
0.016251641
0.017026298
0.017884546
0.018840353
0.019912674
0.021130857
0.022531617
0.024191232
0.026169729
0.028760595
0.031880821
0.037331011
0.042414289
0.080840797
0.051288158
0.0023786634
0.0010303298
0.0018983286
0.0024469948
0.0028902824
0.0031604703
0.0033500044
0.0034942204
0.0035984184
0.0036719468
0.0037246202
0.0037627012
0.0037897934
0.003808235
0.00382004
0.0038266353
0.0038288969
0.0038276367
0.0038235207
0.0038169519
0.0038082571
0.0037977192
0.0037855559
0.003771951
0.003757032
0.0037408814
0.0037235817
0.0037051939
0.0036857676
0.0036653457
0.0036439336
0.0036215238
0.0035981193
0.0035737101
0.0035482777
0.0035217988
0.0034942471
0.003465567
0.0034356863
0.0034045336
0.0033720327
0.0033381084
0.0033026766
0.0032656471
0.0032269378
0.0031864505
0.0031440643
0.0030996625
0.0030531356
0.0030043718
0.002953298
0.0028998633
0.0028441049
0.0027860812
0.0027257995
0.0026634811
0.0025993789
0.0025338373
0.0024676992
0.0024022467
0.0023393128
0.0022816154
0.0022331688
0.0021985176
0.0021809195
0.002191641
0.0022351885
0.0023134579
0.0024377027
0.0026125655
0.0028389514
0.0031112762
0.0034227784
0.0037641132
0.0040910507
0.004352981
0.0045141302
0.0045793188
0.0045535017
0.0044556935
0.0043310226
0.0041888545
0.0040390296
0.0038868122
0.003731367
0.0035758481
0.0034183947
0.0032552705
0.0030906475
0.0029262281
0.0027633081
0.0026039359
0.0024470375
0.0022914542
0.0021400527
0.0019926779
0.0018477062
0.0017055678
0.001567896
0.0014346297
0.0013042225
0.0011774393
0.0010549312
0.00093888081
0.00082889459
0.00072746916
0.00063110029
0.0005688404
0.0004820171
0.00066739527
-0.00051334331
0.012027533
0.012131387
0.012351275
0.012631894
0.012971917
0.013371602
0.013829077
0.014343545
0.014916343
0.015550704
0.016251642
0.017026299
0.017884547
0.018840355
0.019912676
0.02113086
0.02253162
0.024191236
0.026169734
0.028760603
0.031880832
0.037331028
0.042414331
0.080834498
0.051308389
0.002386596
0.0010327219
0.0018994764
0.0024476984
0.0028907772
0.0031608444
0.0033503017
0.0034944638
0.0035986222
0.0036721207
0.0037247708
0.0037628332
0.0037899101
0.0038083391
0.0038201335
0.0038267198
0.0038289737
0.0038277068
0.003823585
0.0038170111
0.0038083117
0.0037977697
0.0037856029
0.0037719947
0.0037570728
0.0037409195
0.0037236174
0.0037052274
0.003685799
0.0036653754
0.0036439616
0.0036215502
0.0035981441
0.0035737336
0.0035482999
0.0035218199
0.0034942671
0.0034655859
0.0034357043
0.0034045506
0.0033720489
0.0033381237
0.0033026912
0.003265661
0.003226951
0.003186463
0.0031440762
0.0030996738
0.0030531463
0.0030043819
0.0029533075
0.0028998724
0.0028441134
0.0027860892
0.002725807
0.0026634881
0.0025993854
0.0025338432
0.0024677046
0.0024022515
0.002339317
0.002281619
0.0022331717
0.0021985197
0.0021809207
0.0021916413
0.0022351878
0.0023134561
0.0024376997
0.0026125612
0.0028389459
0.0031112696
0.0034227709
0.0037641049
0.0040910423
0.004352973
0.0045141233
0.0045793134
0.0045534977
0.0044556907
0.0043310207
0.0041888532
0.0040390287
0.0038868117
0.0037313667
0.003575848
0.0034183947
0.0032552707
0.0030906478
0.0029262284
0.0027633085
0.0026039365
0.0024470381
0.0022914549
0.0021400534
0.0019926786
0.0018477069
0.0017055685
0.0015678967
0.0014346304
0.0013042232
0.0011774399
0.0010549318
0.00093888146
0.00082889522
0.0007274698
0.00063110092
0.00056884109
0.00048201779
0.00066739603
-0.00051334286
0.012027533
0.012131387
0.012351275
0.012631894
0.012971917
0.013371602
0.013829077
0.014343546
0.014916343
0.015550705
0.016251643
0.0170263
0.017884548
0.018840356
0.019912678
0.021130863
0.022531624
0.024191241
0.026169741
0.028760612
0.031880843
0.037331047
0.04241438
0.080827394
0.051329903
0.0023951137
0.0010353153
0.0019007209
0.0024484616
0.0028913138
0.0031612501
0.0033506241
0.0034947278
0.0035988433
0.0036723094
0.0037249341
0.0037629763
0.0037900367
0.003808452
0.0038202349
0.0038268115
0.003829057
0.0038277829
0.0038236547
0.0038170752
0.0038083709
0.0037978246
0.0037856538
0.0037720421
0.003757117
0.0037409609
0.0037236561
0.0037052637
0.0036858332
0.0036654075
0.0036439918
0.0036215787
0.0035981711
0.0035737591
0.0035483241
0.0035218428
0.0034942887
0.0034656065
0.0034357237
0.0034045691
0.0033720665
0.0033381404
0.003302707
0.0032656761
0.0032269653
0.0031864766
0.0031440891
0.003099686
0.0030531579
0.0030043929
0.0029533179
0.0028998822
0.0028441227
0.0027860978
0.0027258151
0.0026634956
0.0025993924
0.0025338496
0.0024677104
0.0024022567
0.0023393215
0.0022816229
0.0022331748
0.0021985221
0.002180922
0.0021916416
0.002235187
0.0023134541
0.0024376965
0.0026125566
0.0028389399
0.0031112624
0.0034227627
0.003764096
0.0040910331
0.0043529644
0.0045141159
0.0045793075
0.0045534934
0.0044556877
0.0043310186
0.0041888517
0.0040390277
0.0038868111
0.0037313664
0.0035758479
0.0034183948
0.0032552708
0.0030906481
0.0029262289
0.0027633091
0.0026039371
0.0024470388
0.0022914556
0.0021400541
0.0019926793
0.0018477077
0.0017055692
0.0015678974
0.0014346311
0.0013042239
0.0011774407
0.0010549326
0.00093888215
0.00082889591
0.00072747049
0.00063110161
0.00056884184
0.00048201855
0.00066739686
-0.00051334237
0.012027533
0.012131387
0.012351275
0.012631894
0.012971918
0.013371603
0.013829077
0.014343546
0.014916344
0.015550706
0.016251644
0.017026301
0.01788455
0.018840359
0.019912681
0.021130866
0.022531628
0.024191247
0.026169748
0.028760622
0.031880857
0.037331068
0.042414439
0.08081931
0.05135293
0.0024043501
0.0010381465
0.0019020799
0.0024492951
0.0028918999
0.0031616932
0.0033509763
0.0034950161
0.0035990847
0.0036725154
0.0037251125
0.0037631326
0.003790175
0.0038085753
0.0038203457
0.0038269116
0.003829148
0.0038278659
0.0038237308
0.0038171452
0.0038084356
0.0037978844
0.0037857094
0.0037720938
0.0037571653
0.003741006
0.0037236984
0.0037053034
0.0036858705
0.0036654426
0.0036440249
0.0036216099
0.0035982006
0.003573787
0.0035483504
0.0035218677
0.0034943124
0.0034656289
0.003435745
0.0034045893
0.0033720857
0.0033381587
0.0033027243
0.0032656925
0.003226981
0.0031864915
0.0031441032
0.0030996994
0.0030531706
0.003004405
0.0029533293
0.0028998929
0.0028441328
0.0027861073
0.002725824
0.0026635039
0.0025994
0.0025338566
0.0024677168
0.0024022624
0.0023393265
0.0022816271
0.0022331782
0.0021985246
0.0021809235
0.002191642
0.0022351862
0.0023134519
0.0024376929
0.0026125515
0.0028389334
0.0031112546
0.0034227538
0.0037640862
0.0040910231
0.004352955
0.0045141078
0.0045793012
0.0045534888
0.0044556843
0.0043310163
0.0041888501
0.0040390266
0.0038868104
0.003731366
0.0035758477
0.0034183948
0.003255271
0.0030906484
0.0029262293
0.0027633096
0.0026039377
0.0024470395
0.0022914563
0.0021400549
0.0019926801
0.0018477085
0.0017055701
0.0015678983
0.0014346319
0.0013042247
0.0011774414
0.0010549333
0.00093888291
0.00082889666
0.00072747124
0.00063110235
0.00056884265
0.00048201937
0.00066739776
-0.00051334183
0.012027533
0.012131387
0.012351275
0.012631894
0.012971918
0.013371603
0.013829078
0.014343547
0.014916345
0.015550707
0.016251645
0.017026303
0.017884552
0.018840361
0.019912684
0.02113087
0.022531633
0.024191253
0.026169755
0.028760633
0.031880872
0.037331091
0.042414509
0.080810037
0.051377676
0.0024144683
0.0010412575
0.0019035737
0.0024502114
0.0028925443
0.0031621804
0.0033513634
0.0034953331
0.0035993501
0.0036727418
0.0037253086
0.0037633044
0.0037903269
0.0038087109
0.0038204674
0.0038270216
0.003829248
0.0038279572
0.0038238145
0.0038172222
0.0038085067
0.0037979503
0.0037857705
0.0037721507
0.0037572184
0.0037410556
0.0037237449
0.003705347
0.0036859115
0.0036654812
0.0036440612
0.0036216442
0.003598233
0.0035738176
0.0035483794
0.0035218952
0.0034943384
0.0034656536
0.0034357684
0.0034046115
0.0033721068
0.0033381787
0.0033027434
0.0032657106
0.0032269981
0.0031865078
0.0031441187
0.0030997141
0.0030531845
0.0030044182
0.0029533418
0.0028999047
0.0028441439
0.0027861178
0.0027258337
0.0026635129
0.0025994084
0.0025338643
0.0024677238
0.0024022686
0.002339332
0.0022816318
0.002233182
0.0021985273
0.0021809251
0.0021916423
0.0022351853
0.0023134495
0.002437689
0.002612546
0.0028389263
0.003111246
0.0034227439
0.0037640754
0.004091012
0.0043529447
0.0045140989
0.0045792942
0.0045534836
0.0044556806
0.0043310137
0.0041888484
0.0040390255
0.0038868096
0.0037313656
0.0035758475
0.0034183948
0.0032552712
0.0030906488
0.0029262298
0.0027633102
0.0026039384
0.0024470403
0.0022914572
0.0021400558
0.001992681
0.0018477094
0.001705571
0.0015678992
0.0014346328
0.0013042255
0.0011774423
0.0010549342
0.00093888375
0.00082889748
0.00072747207
0.00063110317
0.00056884355
0.00048202027
0.00066739876
-0.00051334124
0.012027533
0.012131387
0.012351275
0.012631894
0.012971918
0.013371604
0.013829078
0.014343548
0.014916346
0.015550708
0.016251646
0.017026304
0.017884554
0.018840364
0.019912687
0.021130874
0.022531639
0.024191261
0.026169765
0.028760646
0.031880889
0.037331115
0.042414593
0.080799323
0.051404343
0.0024256197
0.0010446944
0.0019052244
0.0024512244
0.0028932567
0.0031627189
0.0033517913
0.0034956835
0.0035996435
0.0036729921
0.0037255254
0.0037634943
0.0037904949
0.0038088607
0.003820602
0.0038271433
0.0038293585
0.0038280581
0.003823907
0.0038173073
0.0038085852
0.003798023
0.0037858381
0.0037722136
0.003757277
0.0037411105
0.0037237963
0.0037053952
0.0036859568
0.0036655238
0.0036441014
0.0036216821
0.0035982688
0.0035738515
0.0035484114
0.0035219255
0.0034943671
0.0034656808
0.0034357943
0.0034046361
0.0033721301
0.0033382008
0.0033027644
0.0032657306
0.0032270171
0.0031865258
0.0031441358
0.0030997303
0.0030532
0.0030044327
0.0029533556
0.0028999177
0.0028441562
0.0027861293
0.0027258445
0.002663523
0.0025994177
0.0025338728
0.0024677315
0.0024022756
0.0023393381
0.0022816369
0.0022331861
0.0021985304
0.0021809269
0.0021916428
0.0022351843
0.0023134469
0.0024376846
0.0026125398
0.0028389183
0.0031112365
0.0034227331
0.0037640635
0.0040909998
0.0043529332
0.004514089
0.0045792864
0.004553478
0.0044556766
0.0043310109
0.0041888465
0.0040390242
0.0038868088
0.0037313651
0.0035758474
0.0034183949
0.0032552715
0.0030906492
0.0029262304
0.0027633109
0.0026039392
0.0024470412
0.0022914581
0.0021400567
0.001992682
0.0018477104
0.0017055719
0.0015679001
0.0014346338
0.0013042265
0.0011774433
0.0010549351
0.00093888468
0.00082889839
0.00072747299
0.00063110408
0.00056884454
0.00048202126
0.00066739985
-0.00051334059
0.012027533
0.012131387
0.012351275
0.012631895
0.012971919
0.013371604
0.013829079
0.014343548
0.014916347
0.015550709
0.016251648
0.017026306
0.017884556
0.018840367
0.019912691
0.021130879
0.022531645
0.024191269
0.026169775
0.028760661
0.031880908
0.037331142
0.042414692
0.080786866
0.051433113
0.0024379638
0.0010485081
0.0019070568
0.0024523491
0.0028940475
0.0031633169
0.0033522664
0.0034960725
0.0035999692
0.00367327
0.003725766
0.0037637051
0.0037906814
0.003809027
0.0038207514
0.0038272783
0.0038294812
0.0038281701
0.0038240097
0.0038174018
0.0038086725
0.0037981038
0.0037859131
0.0037722834
0.0037573422
0.0037411714
0.0037238533
0.0037054488
0.0036860071
0.0036655711
0.003644146
0.0036217242
0.0035983085
0.003573889
0.003548447
0.0035219592
0.003494399
0.0034657111
0.003435823
0.0034046633
0.003372156
0.0033382254
0.0033027878
0.0032657528
0.0032270382
0.0031865458
0.0031441548
0.0030997484
0.0030532171
0.0030044489
0.0029533709
0.0028999322
0.0028441698
0.0027861421
0.0027258565
0.0026635341
0.002599428
0.0025338823
0.0024677401
0.0024022832
0.0023393448
0.0022816426
0.0022331907
0.0021985338
0.0021809289
0.0021916432
0.0022351832
0.002313444
0.0024376798
0.002612533
0.0028389096
0.003111226
0.003422721
0.0037640503
0.0040909863
0.0043529206
0.0045140781
0.0045792779
0.0045534717
0.0044556721
0.0043310078
0.0041888443
0.0040390228
0.0038868079
0.0037313646
0.0035758471
0.0034183949
0.0032552717
0.0030906497
0.002926231
0.0027633117
0.0026039401
0.0024470421
0.0022914591
0.0021400578
0.0019926831
0.0018477115
0.001705573
0.0015679012
0.0014346348
0.0013042276
0.0011774443
0.0010549361
0.0009388857
0.0008288994
0.000727474
0.00063110509
0.00056884564
0.00048202237
0.00066740107
-0.00051333986
0.012027533
0.012131387
0.012351276
0.012631895
0.012971919
0.013371605
0.01382908
0.014343549
0.014916348
0.01555071
0.01625165
0.017026309
0.017884559
0.01884037
0.019912696
0.021130885
0.022531652
0.024191279
0.026169787
0.028760677
0.03188093
0.03733117
0.042414809
0.080772306
0.051464147
0.0024516794
0.0010527549
0.001909098
0.0024536023
0.0028949288
0.0031639831
0.0033527958
0.0034965059
0.0036003321
0.0036735796
0.0037260342
0.00376394
0.0037908892
0.0038092124
0.0038209178
0.0038274287
0.0038296179
0.0038282949
0.0038241241
0.0038175071
0.0038087696
0.0037981938
0.0037859967
0.0037723612
0.0037574147
0.0037412392
0.0037239169
0.0037055084
0.0036860631
0.0036656239
0.0036441957
0.0036217711
0.0035983528
0.0035739309
0.0035484866
0.0035219967
0.0034944346
0.0034657448
0.003435855
0.0034046937
0.0033721848
0.0033382528
0.0033028138
0.0032657775
0.0032270617
0.0031865682
0.003144176
0.0030997685
0.0030532361
0.003004467
0.002953388
0.0028999483
0.002844185
0.0027861563
0.0027258698
0.0026635465
0.0025994394
0.0025338928
0.0024677496
0.0024022918
0.0023393523
0.002281649
0.0022331958
0.0021985376
0.0021809311
0.0021916437
0.0022351819
0.0023134407
0.0024376744
0.0026125254
0.0028388998
0.0031112142
0.0034227076
0.0037640357
0.0040909713
0.0043529064
0.0045140659
0.0045792683
0.0045534647
0.004455667
0.0043310043
0.004188842
0.0040390212
0.0038868069
0.003731364
0.0035758469
0.0034183949
0.003255272
0.0030906502
0.0029262317
0.0027633125
0.0026039411
0.0024470432
0.0022914603
0.002140059
0.0019926843
0.0018477127
0.0017055743
0.0015679025
0.0014346361
0.0013042288
0.0011774455
0.0010549373
0.00093888685
0.00082890053
0.00072747513
0.00063110621
0.00056884687
0.0004820236
0.00066740242
-0.00051333906
0.012027533
0.012131387
0.012351276
0.012631895
0.01297192
0.013371605
0.013829081
0.01434355
0.014916349
0.015550712
0.016251652
0.017026311
0.017884563
0.018840375
0.019912701
0.021130892
0.022531661
0.024191289
0.0261698
0.028760695
0.031880954
0.037331199
0.042414948
0.080755208
0.051497569
0.0024669685
0.0010574973
0.0019113783
0.0024550028
0.0028959137
0.0031647277
0.0033533873
0.0034969902
0.0036007376
0.0036739256
0.0037263337
0.0037642025
0.0037911213
0.0038094194
0.0038211038
0.0038275968
0.0038297706
0.0038284343
0.0038242519
0.0038176247
0.0038088782
0.0037982943
0.00378609
0.0037724481
0.0037574958
0.0037413151
0.0037239879
0.003705575
0.0036861257
0.0036656828
0.0036442512
0.0036218235
0.0035984023
0.0035739777
0.0035485308
0.0035220386
0.0034944743
0.0034657825
0.0034358907
0.0034047276
0.003372217
0.0033382834
0.0033028429
0.0032658052
0.003227088
0.0031865931
0.0031441997
0.0030997909
0.0030532574
0.0030044872
0.0029534071
0.0028999663
0.002844202
0.0027861723
0.0027258847
0.0026635604
0.0025994522
0.0025339046
0.0024677603
0.0024023014
0.0023393607
0.0022816561
0.0022332016
0.0021985418
0.0021809336
0.0021916443
0.0022351805
0.0023134371
0.0024376684
0.0026125169
0.0028388888
0.0031112011
0.0034226926
0.0037640192
0.0040909544
0.0043528906
0.0045140523
0.0045792576
0.0045534568
0.0044556614
0.0043310005
0.0041888393
0.0040390194
0.0038868058
0.0037313634
0.0035758467
0.003418395
0.0032552723
0.0030906507
0.0029262325
0.0027633135
0.0026039422
0.0024470444
0.0022914615
0.0021400603
0.0019926856
0.001847714
0.0017055756
0.0015679038
0.0014346374
0.0013042301
0.0011774468
0.0010549386
0.00093888812
0.00082890179
0.0007274764
0.00063110746
0.00056884824
0.00048202498
0.00066740394
-0.00051333815
0.012027533
0.012131388
0.012351276
0.012631896
0.01297192
0.013371606
0.013829082
0.014343552
0.014916351
0.015550714
0.016251654
0.017026314
0.017884566
0.018840379
0.019912707
0.021130899
0.02253167
0.024191302
0.026169815
0.028760714
0.031880981
0.037331227
0.042415112
0.080735049
0.051533452
0.0024840609
0.0010628054
0.0019139316
0.0024565715
0.0028970169
0.0031655617
0.0033540499
0.0034975327
0.0036011918
0.0036743131
0.0037266693
0.0037644964
0.0037913814
0.0038096513
0.0038213121
0.003827785
0.0038299416
0.0038285904
0.003824395
0.0038177564
0.0038089998
0.003798407
0.0037861946
0.0037725455
0.0037575866
0.0037414
0.0037240674
0.0037056496
0.0036861958
0.0036657488
0.0036443134
0.0036218821
0.0035984577
0.0035740301
0.0035485804
0.0035220855
0.0034945188
0.0034658247
0.0034359308
0.0034047656
0.0033722531
0.0033383177
0.0033028754
0.0032658361
0.0032271174
0.003186621
0.0031442262
0.0030998161
0.0030532813
0.0030045098
0.0029534284
0.0028999865
0.002844221
0.0027861901
0.0027259014
0.0026635759
0.0025994666
0.0025339177
0.0024677723
0.0024023121
0.0023393701
0.0022816641
0.002233208
0.0021985465
0.0021809363
0.0021916449
0.0022351789
0.002313433
0.0024376617
0.0026125074
0.0028388766
0.0031111864
0.0034226758
0.0037640009
0.0040909356
0.004352873
0.0045140371
0.0045792457
0.004553448
0.0044556551
0.0043309961
0.0041888363
0.0040390174
0.0038868045
0.0037313627
0.0035758464
0.0034183951
0.0032552727
0.0030906513
0.0029262333
0.0027633146
0.0026039434
0.0024470457
0.002291463
0.0021400618
0.0019926872
0.0018477156
0.0017055772
0.0015679053
0.0014346389
0.0013042316
0.0011774483
0.0010549401
0.00093888955
0.00082890319
0.00072747782
0.00063110887
0.00056884977
0.00048202652
0.00066740563
-0.00051333714
0.012027533
0.012131388
0.012351277
0.012631896
0.012971921
0.013371607
0.013829083
0.014343553
0.014916353
0.015550716
0.016251657
0.017026318
0.017884571
0.018840385
0.019912714
0.021130908
0.022531681
0.024191315
0.026169831
0.028760735
0.03188101
0.037331253
0.042415307
0.0807112
0.051571798
0.0025032199
0.0010687573
0.0019167959
0.002458332
0.0028982549
0.0031664976
0.0033547933
0.0034981414
0.0036017015
0.0036747479
0.0037270458
0.0037648263
0.0037916731
0.0038099115
0.0038215458
0.0038279962
0.0038301336
0.0038287656
0.0038245556
0.0038179042
0.0038091363
0.0037985333
0.0037863119
0.0037726547
0.0037576885
0.0037414952
0.0037241566
0.0037057333
0.0036862745
0.0036658228
0.0036443832
0.003621948
0.0035985198
0.0035740888
0.003548636
0.0035221382
0.0034945687
0.003465872
0.0034359757
0.0034048083
0.0033722936
0.0033383562
0.003302912
0.0032658708
0.0032271503
0.0031866523
0.0031442559
0.0030998443
0.003053308
0.0030045351
0.0029534524
0.0029000091
0.0028442423
0.0027862101
0.0027259201
0.0026635933
0.0025994827
0.0025339325
0.0024677857
0.0024023241
0.0023393806
0.002281673
0.0022332151
0.0021985518
0.0021809394
0.0021916457
0.0022351772
0.0023134284
0.0024376542
0.0026124967
0.0028388628
0.0031111699
0.0034226569
0.0037639802
0.0040909145
0.0043528531
0.00451402
0.0045792322
0.0045534382
0.0044556481
0.0043309913
0.004188833
0.0040390152
0.0038868031
0.0037313619
0.003575846
0.0034183951
0.0032552731
0.003090652
0.0029262343
0.0027633157
0.0026039448
0.0024470472
0.0022914646
0.0021400635
0.0019926889
0.0018477173
0.0017055789
0.0015679071
0.0014346406
0.0013042332
0.0011774499
0.0010549417
0.00093889116
0.00082890478
0.0007274794
0.00063111044
0.00056885149
0.00048202824
0.00066740754
-0.00051333601
0.012027533
0.012131388
0.012351277
0.012631897
0.012971922
0.013371608
0.013829084
0.014343555
0.014916355
0.015550719
0.01625166
0.017026322
0.017884576
0.018840391
0.019912722
0.021130918
0.022531693
0.02419133
0.026169849
0.028760757
0.031881041
0.037331275
0.042415537
0.080682905
0.051612514
0.0025247506
0.0010754407
0.0019200137
0.0024603106
0.0028996464
0.0031675495
0.0033556289
0.0034988254
0.0036022742
0.0036752365
0.0037274688
0.0037651969
0.0037920009
0.0038102039
0.0038218084
0.0038282336
0.0038303492
0.0038289625
0.0038247361
0.0038180702
0.0038092896
0.0037986753
0.0037864438
0.0037727774
0.003757803
0.0037416022
0.0037242569
0.0037058274
0.0036863629
0.003665906
0.0036444616
0.0036220219
0.0035985897
0.0035741549
0.0035486985
0.0035221974
0.0034946248
0.0034659252
0.0034360261
0.0034048562
0.0033723391
0.0033383994
0.003302953
0.0032659098
0.0032271874
0.0031866875
0.0031442893
0.003099876
0.0030533381
0.0030045636
0.0029534793
0.0029000346
0.0028442662
0.0027862326
0.0027259411
0.0026636129
0.0025995008
0.0025339491
0.0024678008
0.0024023376
0.0023393924
0.0022816831
0.0022332232
0.0021985578
0.0021809429
0.0021916464
0.0022351752
0.0023134233
0.0024376457
0.0026124847
0.0028388473
0.0031111513
0.0034226357
0.0037639571
0.0040908907
0.0043528309
0.0045140008