/*--------------------------------*- C++ -*----------------------------------*\
| =========                 |                                                 |
| \\      /  F ield         | OpenFOAM: The Open Source CFD Toolbox           |
|  \\    /   O peration     | Version:  2206                                  |
|   \\  /    A nd           | Website:  www.openfoam.com                      |
|    \\/     M anipulation  |                                                 |
\*---------------------------------------------------------------------------*/
FoamFile
{
    version     2.0;
    format      ascii;
    arch        "LSB;label=32;scalar=64";
    class       surfaceScalarField;
    location    "1200";
    object      phi;
}
// * * * * * * * * * * * * * * * * * * * * * * * * * * * * * * * * * * * * * //

dimensions      [0 3 -1 0 0 0 0];

oriented        oriented;

internalField   nonuniform List<scalar> 
25880
(
2.0045959e-06
5.8250856e-11
2.0044471e-06
1.488303e-10
2.0042496e-06
1.9751039e-10
2.0040237e-06
2.25894e-10
2.0037648e-06
2.5888648e-10
2.0034686e-06
2.9618768e-10
2.0031313e-06
3.3725633e-10
2.0027478e-06
3.8350912e-10
2.0023111e-06
4.3675249e-10
2.0018122e-06
4.9883354e-10
2.0012403e-06
5.7195682e-10
2.0005809e-06
6.5933851e-10
1.9998158e-06
7.6514571e-10
1.9989187e-06
8.9710484e-10
1.9978563e-06
1.0623495e-09
1.9965694e-06
1.2869886e-09
1.9949998e-06
1.5695303e-09
1.9929539e-06
2.0458985e-09
1.9904024e-06
2.5515603e-09
1.9864221e-06
3.9802314e-09
1.9814915e-06
4.9306667e-09
1.9696622e-06
1.1829259e-08
1.962438e-06
7.2242334e-09
9.8552417e-07
9.769138e-07
4.3488533e-09
9.8117532e-07
2.1023768e-09
2.2464765e-09
1.5920568e-09
5.1032002e-10
1.3454402e-09
2.4661664e-10
1.1930369e-09
1.5240332e-10
1.084898e-09
1.081389e-10
1.0023693e-09
8.252869e-11
9.3614196e-10
6.6227302e-11
8.8137699e-10
5.4764972e-11
8.3505282e-10
4.6324166e-11
7.9511295e-10
3.9939875e-11
7.6015343e-10
3.4959524e-11
7.2918756e-10
3.0965869e-11
7.0148707e-10
2.7700483e-11
6.7649515e-10
2.4991925e-11
6.537817e-10
2.2713447e-11
6.3300484e-10
2.0776862e-11
6.1389065e-10
1.9114195e-11
5.9621986e-10
1.7670781e-11
5.7980993e-10
1.6409932e-11
5.6450933e-10
1.5300598e-11
5.5019074e-10
1.4318593e-11
5.3674631e-10
1.3444433e-11
5.2408415e-10
1.2662159e-11
5.1212557e-10
1.1958582e-11
5.0080252e-10
1.1323044e-11
4.9005559e-10
1.074693e-11
4.798328e-10
1.022279e-11
4.7008854e-10
9.7442679e-12
4.6078262e-10
9.3059153e-12
4.5187967e-10
8.9029484e-12
4.4334817e-10
8.5315017e-12
4.3515979e-10
8.1883835e-12
4.2728917e-10
7.8706167e-12
4.1971362e-10
7.575555e-12
4.1241267e-10
7.3009495e-12
4.0536796e-10
7.044704e-12
3.9856314e-10
6.8048238e-12
3.9198344e-10
6.5797001e-12
3.8561529e-10
6.3681492e-12
3.7944631e-10
6.1689779e-12
3.7346545e-10
5.9808659e-12
3.6766285e-10
5.8025914e-12
3.6202973e-10
5.6331286e-12
3.5655822e-10
5.4715027e-12
3.5124168e-10
5.3165426e-12
3.4607459e-10
5.1670863e-12
3.410524e-10
5.0221896e-12
3.3617151e-10
4.8808924e-12
3.3142931e-10
4.7422065e-12
3.2682416e-10
4.605148e-12
3.2235556e-10
4.4685927e-12
3.180246e-10
4.3309684e-12
3.13835e-10
4.1895939e-12
3.0979309e-10
4.0419137e-12
3.0590692e-10
3.8861719e-12
3.0218671e-10
3.7202041e-12
2.9864495e-10
3.5417609e-12
2.9529673e-10
3.3482229e-12
2.9216207e-10
3.1346558e-12
2.8926776e-10
2.8943134e-12
2.8664775e-10
2.6200096e-12
2.8434806e-10
2.2996862e-12
2.8243583e-10
1.9122348e-12
2.8097154e-10
1.4642835e-12
2.8008576e-10
8.857877e-13
2.7986605e-10
2.1970753e-13
2.8039561e-10
-5.2956028e-13
2.8183711e-10
-1.4415068e-12
2.8431504e-10
-2.4779298e-12
2.8796841e-10
-3.6533679e-12
2.9287497e-10
-4.9065544e-12
2.9901584e-10
-6.1408776e-12
3.0634123e-10
-7.3253923e-12
3.1472193e-10
-8.3806978e-12
3.2371426e-10
-8.9923311e-12
3.3255123e-10
-8.8369707e-12
3.4053705e-10
-7.9858133e-12
3.471175e-10
-6.5804507e-12
3.5219053e-10
-5.0730241e-12
3.5601449e-10
-3.8239634e-12
3.58795e-10
-2.780506e-12
3.6080644e-10
-2.0114414e-12
3.6223074e-10
-1.4242986e-12
3.6318996e-10
-9.5922304e-13
3.6376409e-10
-5.7412774e-13
3.6401101e-10
-2.4692211e-13
3.639576e-10
5.341053e-14
3.6360223e-10
3.5537122e-13
3.6296925e-10
6.3297692e-13
3.6210055e-10
8.6869829e-13
3.610293e-10
1.0712515e-12
3.5979972e-10
1.2295824e-12
3.5845138e-10
1.3483358e-12
3.5701317e-10
1.4382152e-12
3.5551616e-10
1.4970046e-12
3.5398889e-10
1.5272698e-12
3.5244675e-10
1.542144e-12
3.508992e-10
1.5475515e-12
3.4935915e-10
1.5400496e-12
3.4783765e-10
1.5215031e-12
3.463376e-10
1.5000428e-12
3.448572e-10
1.4804022e-12
3.4339563e-10
1.4615697e-12
3.4195334e-10
1.4422903e-12
3.4053284e-10
1.4204961e-12
3.3910445e-10
1.4283905e-12
3.3768894e-10
1.4155098e-12
3.3613944e-10
1.5494995e-12
3.3458275e-10
1.5566922e-12
3.3287688e-10
1.7058752e-12
1.0221367e-12
2.0344689e-06
1.1744906e-10
2.0343176e-06
3.0011349e-10
2.0341168e-06
3.9830938e-10
2.0338871e-06
4.5555899e-10
2.0336239e-06
5.2209323e-10
2.0333228e-06
5.9731413e-10
2.0329799e-06
6.8013043e-10
2.03259e-06
7.7339807e-10
2.032146e-06
8.8075916e-10
2.0316389e-06
1.0059378e-09
2.0310575e-06
1.1533786e-09
2.0303873e-06
1.3295652e-09
2.0296095e-06
1.5428983e-09
2.0286977e-06
1.8089546e-09
2.0276179e-06
2.1421132e-09
2.0263099e-06
2.5950114e-09
2.0247148e-06
3.1646295e-09
2.0226357e-06
4.124997e-09
2.0200429e-06
5.1443751e-09
2.0159987e-06
8.0244116e-09
2.010989e-06
9.9403823e-09
1.9989705e-06
2.3847676e-08
1.9916227e-06
1.4572054e-08
1.0065079e-06
1.9620287e-06
1.3269009e-08
1.9744142e-06
6.4326902e-09
9.0827955e-09
4.8714989e-09
2.0715112e-09
4.1168941e-09
1.0012215e-09
3.6505462e-09
6.1875118e-10
3.3196395e-09
4.3904555e-10
3.0671041e-09
3.3506411e-10
2.8644534e-09
2.6887804e-10
2.6968768e-09
2.2234156e-10
2.5551288e-09
1.8807213e-10
2.4329169e-09
1.6215178e-10
2.3259449e-09
1.4193157e-10
2.2311932e-09
1.2571752e-10
2.1464334e-09
1.1246029e-10
2.0699616e-09
1.0146376e-10
2.0004617e-09
9.2213343e-11
1.9368875e-09
8.4351027e-11
1.878401e-09
7.7600763e-11
1.8243311e-09
7.1740661e-11
1.7741192e-09
6.6621791e-11
1.7273018e-09
6.2118038e-11
1.6834891e-09
5.8131227e-11
1.6423513e-09
5.458226e-11
1.6036071e-09
5.1406336e-11
1.5670158e-09
4.854992e-11
1.5323691e-09
4.5969728e-11
1.4994853e-09
4.3630792e-11
1.4682052e-09
4.1502866e-11
1.4383893e-09
3.9560139e-11
1.4099147e-09
3.7780496e-11
1.3826732e-09
3.6144516e-11
1.3565682e-09
3.4636503e-11
1.331513e-09
3.3243499e-11
1.3074302e-09
3.1953418e-11
1.2842503e-09
3.0755516e-11
1.2619106e-09
2.9640663e-11
1.2403549e-09
2.860035e-11
1.2195333e-09
2.7626478e-11
1.1994004e-09
2.6712517e-11
1.1799149e-09
2.5853659e-11
1.1610389e-09
2.504506e-11
1.1427384e-09
2.4281359e-11
1.1249834e-09
2.3557597e-11
1.1077469e-09
2.2869609e-11
1.0910049e-09
2.2213437e-11
1.0747372e-09
2.1584328e-11
1.0589267e-09
2.0977564e-11
1.0435596e-09
2.0389311e-11
1.0286248e-09
1.981567e-11
1.0141144e-09
1.9252631e-11
1.0000233e-09
1.8696196e-11
9.863501e-10
1.8141802e-11
9.7309801e-10
1.7583064e-11
9.602785e-10
1.70091e-11
9.4791088e-10
1.6409537e-11
9.3601981e-10
1.5777238e-11
9.2463659e-10
1.5103421e-11
9.137994e-10
1.4378951e-11
9.0355445e-10
1.359318e-11
8.9396302e-10
1.2726077e-11
8.8510709e-10
1.1750249e-11
8.7709058e-10
1.0636514e-11
8.7005436e-10
9.3359121e-12
8.6420382e-10
7.7627759e-12
8.5972407e-10
5.9440307e-12
8.5701465e-10
3.5952091e-12
8.5634346e-10
8.9089683e-13
8.5796499e-10
-2.1510977e-12
8.6237709e-10
-5.8536036e-12
8.699605e-10
-1.0061341e-11
8.8114044e-10
-1.4833305e-11
8.9615465e-10
-1.9920767e-11
9.1494539e-10
-2.493162e-11
9.3736009e-10
-2.9740092e-11
9.6300275e-10
-3.4023355e-11
9.905158e-10
-3.6505385e-11
1.0175529e-09
-3.5874098e-11
1.0419858e-09
-3.2418731e-11
1.0621191e-09
-2.671372e-11
1.0776406e-09
-2.0594508e-11
1.0893409e-09
-1.5524254e-11
1.0978487e-09
-1.128833e-11
1.1040035e-09
-8.1662323e-12
1.1083618e-09
-5.7826085e-12
1.1112971e-09
-3.8944719e-12
1.113054e-09
-2.3310673e-12
1.1138097e-09
-1.0026362e-12
1.1136464e-09
2.1671079e-13
1.1125592e-09
1.4426321e-12
1.1106224e-09
2.5697073e-12
1.1079644e-09
3.5267133e-12
1.1046866e-09
4.349035e-12
1.1009244e-09
4.9918449e-12
1.0967987e-09
5.4739747e-12
1.0923981e-09
5.8388492e-12
1.0878176e-09
6.0775261e-12
1.0831444e-09
6.2004147e-12
1.0784258e-09
6.2607991e-12
1.0736906e-09
6.2827386e-12
1.0689784e-09
6.2522839e-12
1.0643229e-09
6.1770026e-12
1.059733e-09
6.0898724e-12
1.0552033e-09
6.0101239e-12
1.0507312e-09
5.9336476e-12
1.0463181e-09
5.8553722e-12
1.0419718e-09
5.7668754e-12
1.0376013e-09
5.7989013e-12
1.0332703e-09
5.7464524e-12
1.0285293e-09
6.2905597e-12
1.0237678e-09
6.318116e-12
1.0185405e-09
6.9332194e-12
4.1373365e-12
2.09466e-06
1.784893e-10
2.094504e-06
4.5614168e-10
2.0942969e-06
6.054452e-10
2.09406e-06
6.9248313e-10
2.0937884e-06
7.936176e-10
2.0934778e-06
9.0795191e-10
2.0931241e-06
1.0338278e-09
2.0927219e-06
1.1755847e-09
2.0922639e-06
1.3387573e-09
2.0917408e-06
1.5290051e-09
2.0911411e-06
1.7530815e-09
2.0904499e-06
2.020839e-09
2.0896477e-06
2.3450416e-09
2.0887073e-06
2.7493586e-09
2.0875938e-06
3.2556354e-09
2.086245e-06
3.9438573e-09
2.0846002e-06
4.8094154e-09
2.0824565e-06
6.2687103e-09
2.0797832e-06
7.8175923e-09
2.0756141e-06
1.2193549e-08
2.0704498e-06
1.5104645e-08
2.0580611e-06
3.623642e-08
2.0504788e-06
2.215431e-08
1.0428732e-06
2.9696343e-06
2.2943374e-08
2.994344e-06
1.1147623e-08
2.0878547e-08
8.4424622e-09
4.7766718e-09
7.1347468e-09
2.308937e-09
6.3265286e-09
1.4269694e-09
5.7530361e-09
1.012538e-09
5.3153715e-09
7.7272868e-10
4.9641655e-09
6.2008408e-10
4.6737457e-09
5.1276131e-10
4.428089e-09
4.3372888e-10
4.2162902e-09
3.7395059e-10
4.0309034e-09
3.2731831e-10
3.8666955e-09
2.8992544e-10
3.7198041e-09
2.5935173e-10
3.5872762e-09
2.3399166e-10
3.466831e-09
2.1265853e-10
3.3566553e-09
1.9452669e-10
3.2552967e-09
1.7895937e-10
3.1615924e-09
1.6544495e-10
3.0745742e-09
1.5364004e-10
2.9934386e-09
1.4325364e-10
2.9175104e-09
1.3405941e-10
2.8462177e-09
1.2587492e-10
2.7790733e-09
1.1855074e-10
2.7156599e-09
1.119634e-10
2.6556165e-09
1.0601308e-10
2.5986282e-09
1.0061913e-10
2.5444192e-09
9.5711803e-11
2.4927478e-09
9.1231579e-11
2.4434008e-09
8.7127451e-11
2.3961907e-09
8.3354635e-11
2.3509503e-09
7.9876934e-11
2.3075293e-09
7.6664459e-11
2.2657934e-09
7.3689341e-11
2.2256221e-09
7.0926802e-11
2.186907e-09
6.8355789e-11
2.1495507e-09
6.5956674e-11
2.1134664e-09
6.3710787e-11
2.0785758e-09
6.1603064e-11
2.0448071e-09
5.9622417e-11
2.0120944e-09
5.7757674e-11
1.9803793e-09
5.5996473e-11
1.9496095e-09
5.4327377e-11
1.9197384e-09
5.2740781e-11
1.8907243e-09
5.1227557e-11
1.8625318e-09
4.9776745e-11
1.8351319e-09
4.8377465e-11
1.8085004e-09
4.7020874e-11
1.7826181e-09
4.569798e-11
1.7574712e-09
4.4399533e-11
1.733051e-09
4.3116313e-11
1.709355e-09
4.1837796e-11
1.6863889e-09
4.0549254e-11
1.6641724e-09
3.9225599e-11
1.642739e-09
3.7842909e-11
1.6221315e-09
3.6384713e-11
1.6024042e-09
3.4830767e-11
1.5836231e-09
3.3159999e-11
1.5658685e-09
3.1347829e-11
1.5492465e-09
2.9348061e-11
1.5338992e-09
2.7097523e-11
1.5200068e-09
2.4528895e-11
1.5078135e-09
2.1529266e-11
1.4976751e-09
1.790112e-11
1.4899126e-09
1.3706571e-11
1.4852183e-09
8.2895092e-12
1.4840565e-09
2.0526833e-12
1.4868682e-09
-4.9628113e-12
1.4945162e-09
-1.3501543e-11
1.5076601e-09
-2.320526e-11
1.5270367e-09
-3.4209886e-11
1.5530578e-09
-4.5941869e-11
1.5856233e-09
-5.7497122e-11
1.6244685e-09
-6.8585282e-11
1.6689063e-09
-7.8461227e-11
1.7165842e-09
-8.4183288e-11
1.7634367e-09
-8.2726585e-11
1.8057763e-09
-7.4758306e-11
1.8406653e-09
-6.1602752e-11
1.867563e-09
-4.7492233e-11
1.8878394e-09
-3.5800627e-11
1.9025837e-09
-2.6032597e-11
1.9132503e-09
-1.8832869e-11
1.9208037e-09
-1.3335997e-11
1.9258909e-09
-8.9816552e-12
1.9289361e-09
-5.3762217e-12
1.930246e-09
-2.3126024e-12
1.9299632e-09
4.9947868e-13
1.9280792e-09
3.3266704e-12
1.924723e-09
5.925949e-12
1.9201167e-09
8.1329831e-12
1.9144364e-09
1.0029371e-11
1.9079164e-09
1.1511811e-11
1.9007667e-09
1.2623693e-11
1.8931404e-09
1.3465119e-11
1.8852024e-09
1.4015548e-11
1.8771038e-09
1.4298977e-11
1.8689264e-09
1.4438231e-11
1.8607203e-09
1.4488805e-11
1.852554e-09
1.4418577e-11
1.844486e-09
1.424499e-11
1.8365319e-09
1.4044049e-11
1.8286819e-09
1.3860117e-11
1.8209318e-09
1.3683719e-11
1.813284e-09
1.3503192e-11
1.8057518e-09
1.3299086e-11
1.7981778e-09
1.3372857e-11
1.7906725e-09
1.3251741e-11
1.7824567e-09
1.4506418e-11
1.7742066e-09
1.4568175e-11
1.7651424e-09
1.5997467e-11
9.5276658e-12
2.1860664e-06
2.4229877e-10
2.1859033e-06
6.1929268e-10
2.1856866e-06
8.220826e-10
2.1854388e-06
9.4028876e-10
2.1851548e-06
1.0776106e-09
2.1848299e-06
1.2328491e-09
2.18446e-06
1.4037533e-09
2.1840394e-06
1.5962127e-09
2.1835604e-06
1.8177404e-09
2.1830134e-06
2.0760189e-09
2.1823862e-06
2.3802147e-09
2.1816634e-06
2.7437005e-09
2.1808246e-06
3.1838e-09
2.1798413e-06
3.7326395e-09
2.1786771e-06
4.4198641e-09
2.1772669e-06
5.3540413e-09
2.1755475e-06
6.5288844e-09
2.1733066e-06
8.509587e-09
2.1705124e-06
1.0611764e-08
2.1661552e-06
1.6550796e-08
2.1607582e-06
2.0501633e-08
2.1478117e-06
4.9182898e-08
2.1398788e-06
3.0087241e-08
1.0954639e-06
4.0140492e-06
3.3944666e-08
4.0558632e-06
1.652922e-08
3.8293993e-08
1.2518593e-08
8.7872987e-09
1.0579571e-08
4.2479588e-09
9.3810973e-09
2.6254432e-09
8.5306847e-09
1.8629507e-09
7.8816898e-09
1.4217235e-09
7.3609073e-09
1.1408666e-09
6.9302623e-09
9.4340629e-10
6.5659943e-09
7.9799688e-10
6.2519333e-09
6.8801159e-10
5.9770379e-09
6.0221376e-10
5.7335475e-09
5.3341585e-10
5.5157346e-09
4.771646e-10
5.3192205e-09
4.3050575e-10
5.140623e-09
3.91256e-10
4.9772535e-09
3.5789628e-10
4.8269581e-09
3.2925474e-10
4.6880127e-09
3.0439034e-10
4.5589814e-09
2.826713e-10
4.4386731e-09
2.6356201e-10
4.3260863e-09
2.4664614e-10
4.2203732e-09
2.3158805e-10
4.1208112e-09
2.1811277e-10
4.0267814e-09
2.0599318e-10
3.9377489e-09
1.950456e-10
3.8532463e-09
1.8512166e-10
3.7728651e-09
1.7609302e-10
3.6962465e-09
1.6785018e-10
3.6230747e-09
1.602993e-10
3.5530713e-09
1.5335797e-10
3.4859887e-09
1.4695961e-10
3.4216039e-09
1.4104922e-10
3.3597177e-09
1.3557552e-10
3.3001516e-09
1.3049294e-10
3.2427446e-09
1.2576273e-10
3.1873525e-09
1.2134878e-10
3.1338466e-09
1.1721675e-10
3.0821107e-09
1.1333893e-10
3.0320382e-09
1.096949e-10
2.9835318e-09
1.0626411e-10
2.9365044e-09
1.0302382e-10
2.8908788e-09
9.9952988e-11
2.8465857e-09
9.7033942e-11
2.8035633e-09
9.4249886e-11
2.7617594e-09
9.1580659e-11
2.7211306e-09
8.9006245e-11
2.6816412e-09
8.6510371e-11
2.6432626e-09
8.4076492e-11
2.6059746e-09
8.1687587e-11
2.5697642e-09
7.9326694e-11
2.5346276e-09
7.6974444e-11
2.5005731e-09
7.4603742e-11
2.4676302e-09
7.2168434e-11
2.4358486e-09
6.9624514e-11
2.4052917e-09
6.6941662e-11
2.3760398e-09
6.4082638e-11
2.3481911e-09
6.1008663e-11
2.3218645e-09
5.767448e-11
2.2972175e-09
5.3995094e-11
2.2744607e-09
4.985427e-11
2.2538615e-09
4.512812e-11
2.2357818e-09
3.9608912e-11
2.2207497e-09
3.2933311e-11
2.2092406e-09
2.5215657e-11
2.2022814e-09
1.5248714e-11
2.2005605e-09
3.7735054e-12
2.2047319e-09
-9.1341477e-12
2.2160745e-09
-2.4844187e-11
2.2355667e-09
-4.2697393e-11
2.2643003e-09
-6.2943556e-11
2.302886e-09
-8.4527586e-11
2.3511753e-09
-1.0578637e-10
2.408775e-09
-1.2618504e-10
2.4746657e-09
-1.4435188e-10
2.5453588e-09
-1.5487642e-10
2.6148273e-09
-1.5219508e-10
2.6776045e-09
-1.3753544e-10
2.7293352e-09
-1.1333345e-10
2.7692178e-09
-8.7374839e-11
2.7992833e-09
-6.5866166e-11
2.8211465e-09
-4.7895795e-11
2.8369636e-09
-3.4650006e-11
2.8481645e-09
-2.4536879e-11
2.8557085e-09
-1.6525595e-11
2.8602244e-09
-9.8922045e-12
2.8621674e-09
-4.2555607e-12
2.8617485e-09
9.1833708e-13
2.8589553e-09
6.1199614e-12
2.8539789e-09
1.0902318e-11
2.8471489e-09
1.4962952e-11
2.8387263e-09
1.8451977e-11
2.8290587e-09
2.117946e-11
2.8184572e-09
2.3225163e-11
2.8071491e-09
2.4773203e-11
2.7953787e-09
2.5785911e-11
2.7833703e-09
2.6307424e-11
2.7712449e-09
2.6563627e-11
2.7590771e-09
2.6656642e-11
2.7469682e-09
2.6527446e-11
2.7350051e-09
2.6208117e-11
2.7232107e-09
2.5838415e-11
2.7115708e-09
2.5499973e-11
2.7000792e-09
2.5175382e-11
2.6887392e-09
2.4843215e-11
2.6775706e-09
2.4467671e-11
2.6663402e-09
2.4603201e-11
2.6552117e-09
2.4380225e-11
2.6430302e-09
2.6687994e-11
2.6307985e-09
2.6799863e-11
2.6173549e-09
2.9441006e-11
1.7515536e-11
2.3100501e-06
3.098523e-10
2.3098774e-06
7.9206957e-10
2.3096479e-06
1.0515562e-09
2.3093854e-06
1.2027937e-09
2.3090845e-06
1.3784472e-09
2.3087404e-06
1.5770093e-09
2.3083485e-06
1.7956021e-09
2.307903e-06
2.0417552e-09
2.3073956e-06
2.3250761e-09
2.3068163e-06
2.6553884e-09
2.3061521e-06
3.0444128e-09
2.3053865e-06
3.5092477e-09
2.3044983e-06
4.0720414e-09
2.3034571e-06
4.7738709e-09
2.3022243e-06
5.6526318e-09
2.3007312e-06
6.8471432e-09
2.2989108e-06
8.3493223e-09
2.2965385e-06
1.0881842e-08
2.2935808e-06
1.3569506e-08
2.2889691e-06
2.1162477e-08
2.2832573e-06
2.6213437e-08
2.2695563e-06
6.2883841e-08
2.2611501e-06
3.8493495e-08
1.1654025e-06
5.1097967e-06
4.6920001e-08
5.1743457e-06
2.2899383e-08
6.2314612e-08
1.7343776e-08
1.4342906e-08
1.4657494e-08
6.9342409e-09
1.2997023e-08
4.2859139e-09
1.1818783e-08
3.0411909e-09
1.0919609e-08
2.3208971e-09
1.0198081e-08
1.8623945e-09
9.6014378e-09
1.5400496e-09
9.0967585e-09
1.3026762e-09
8.6616409e-09
1.1231292e-09
8.280787e-09
9.830677e-10
7.943444e-09
8.7075884e-10
7.6416764e-09
7.7893216e-10
7.3694175e-09
7.0276464e-10
7.1219814e-09
6.3869214e-10
6.8956427e-09
5.8423494e-10
6.6874179e-09
5.374796e-10
6.4949179e-09
4.9689032e-10
6.3161533e-09
4.6143588e-10
6.1494738e-09
4.3024149e-10
5.9934922e-09
4.0262773e-10
5.8470336e-09
3.7804666e-10
5.709097e-09
3.5604942e-10
5.5788249e-09
3.3626523e-10
5.4554763e-09
3.1839427e-10
5.3384036e-09
3.0219431e-10
5.2270408e-09
2.8745586e-10
5.1208908e-09
2.7400015e-10
5.0195161e-09
2.61674e-10
4.9225311e-09
2.5034292e-10
4.8295926e-09
2.3989819e-10
4.7403918e-09
2.3025001e-10
4.6546526e-09
2.2131471e-10
4.5721277e-09
2.1301786e-10
4.4925942e-09
2.0529623e-10
4.4158521e-09
1.9809088e-10
4.3417231e-09
1.9134574e-10
4.2700464e-09
1.8501556e-10
4.2006743e-09
1.7906704e-10
4.1334718e-09
1.7346662e-10
4.0683184e-09
1.6817717e-10
4.0051071e-09
1.6316434e-10
3.9437417e-09
1.5839929e-10
3.884137e-09
1.5385459e-10
3.8262203e-09
1.4949735e-10
3.7699317e-09
1.4529488e-10
3.7152215e-09
1.4122062e-10
3.6620504e-09
1.3724756e-10
3.61039e-09
1.3334792e-10
3.5602227e-09
1.2949399e-10
3.511543e-09
1.2565416e-10
3.4643626e-09
1.2178419e-10
3.4187222e-09
1.1780876e-10
3.3746907e-09
1.1365603e-10
3.3323559e-09
1.0927648e-10
3.2918292e-09
1.0460934e-10
3.2532466e-09
9.959128e-11
3.2167727e-09
9.4148369e-11
3.1826259e-09
8.8141854e-11
3.1510982e-09
8.1381975e-11
3.1225599e-09
7.3666451e-11
3.0975126e-09
6.465619e-11
3.0766878e-09
5.3758156e-11
3.0607442e-09
4.1159192e-11
3.0511047e-09
2.4888295e-11
3.0487231e-09
6.1551142e-12
3.0545049e-09
-1.4916003e-11
3.0702223e-09
-4.0561565e-11
3.0972303e-09
-6.9705357e-11
3.1370413e-09
-1.0275465e-10
3.1905012e-09
-1.379874e-10
3.2574039e-09
-1.7268908e-10
3.3372042e-09
-2.0598538e-10
3.4284884e-09
-2.3563606e-10
3.5264237e-09
-2.5281175e-10
3.6226616e-09
-2.4843299e-10
3.7096299e-09
-2.2450367e-10
3.7812957e-09
-1.8499934e-10
3.8365489e-09
-1.4262798e-10
3.8782027e-09
-1.0751995e-10
3.9084935e-09
-7.8186629e-11
3.9304082e-09
-5.6564741e-11
3.9459275e-09
-4.0056159e-11
3.9563802e-09
-2.697832e-11
3.9626379e-09
-1.6149821e-11
3.9653306e-09
-6.9482879e-12
3.964751e-09
1.4979133e-12
3.9608817e-09
9.9892629e-12
3.9539878e-09
1.7796269e-11
3.9445257e-09
2.4425033e-11
3.9328571e-09
3.0120576e-11
3.9194635e-09
3.457304e-11
3.9047761e-09
3.7912534e-11
3.8891098e-09
4.0439523e-11
3.872803e-09
4.2092708e-11
3.8561663e-09
4.2944124e-11
3.8393676e-09
4.336236e-11
3.8225101e-09
4.3514151e-11
3.8057342e-09
4.3303275e-11
3.7891603e-09
4.2782065e-11
3.7728202e-09
4.2178554e-11
3.7566941e-09
4.1626014e-11
3.7407734e-09
4.1096072e-11
3.7250629e-09
4.0553787e-11
3.7095898e-09
3.9940717e-11
3.6940314e-09
4.0161588e-11
3.6786142e-09
3.9797487e-11
3.6617388e-09
4.3563317e-11
3.6447944e-09
4.3744256e-11
3.6261673e-09
4.806819e-11
2.8578871e-11
2.4684588e-06
3.8218865e-10
2.4682738e-06
9.7714332e-10
2.4680279e-06
1.2974284e-09
2.4677466e-06
1.4840773e-09
2.4674242e-06
1.7008018e-09
2.4670555e-06
1.9457787e-09
2.4666356e-06
2.2154587e-09
2.4661583e-06
2.5191266e-09
2.4656147e-06
2.8686326e-09
2.464994e-06
3.2760928e-09
2.4642824e-06
3.7559619e-09
2.4634624e-06
4.3293261e-09
2.4625109e-06
5.0234973e-09
2.4613956e-06
5.8891334e-09
2.4600753e-06
6.972957e-09
2.4584763e-06
8.4461705e-09
2.4565269e-06
1.0298745e-08
2.4539868e-06
1.3421928e-08
2.4508201e-06
1.6736202e-08
2.4458834e-06
2.6099185e-08
2.4397694e-06
3.2327403e-08
2.4251047e-06
7.7548514e-08
2.416094e-06
4.7504243e-08
1.2541261e-06
6.2717646e-06
6.2628762e-08
6.3658431e-06
3.0639119e-08
9.4304256e-08
2.3206716e-08
2.1775308e-08
1.961253e-08
1.0528427e-08
1.739067e-08
6.5077742e-09
1.5814073e-08
4.6177882e-09
1.4610898e-08
3.5240719e-09
1.3645442e-08
2.82785e-09
1.2847094e-08
2.3383982e-09
1.2171801e-08
1.9779693e-09
1.1589588e-08
1.7053416e-09
1.1079986e-08
1.4926702e-09
1.0628604e-08
1.3221402e-09
1.0224826e-08
1.1827111e-09
9.8605311e-09
1.067059e-09
9.5294511e-09
9.6977216e-10
9.2266006e-09
8.8708541e-10
8.9479876e-09
8.160927e-10
8.6904152e-09
7.5446267e-10
8.4512213e-09
7.0062976e-10
8.2281979e-09
6.5326488e-10
8.0194888e-09
6.1133688e-10
7.8235218e-09
5.7401364e-10
7.6389576e-09
5.4061365e-10
7.4646489e-09
5.1057391e-10
7.299604e-09
4.834392e-10
7.1429566e-09
4.5884168e-10
6.9939492e-09
4.3646328e-10
6.8519168e-09
4.1603257e-10
6.7162738e-09
3.9731694e-10
6.5865045e-09
3.8011222e-10
6.4621494e-09
3.6425329e-10
6.3427956e-09
3.4960384e-10
6.2280735e-09
3.3603679e-10
6.1176522e-09
3.2343915e-10
6.0112335e-09
3.1171491e-10
5.9085499e-09
3.0077457e-10
5.8093626e-09
2.9053301e-10
5.7134566e-09
2.8092153e-10
5.6206341e-09
2.7188954e-10
5.5307147e-09
2.6338609e-10
5.443537e-09
2.553548e-10
5.3589578e-09
2.4774354e-10
5.2768486e-09
2.4050848e-10
5.1970952e-09
2.3360801e-10
5.1196004e-09
2.2699216e-10
5.0442839e-09
2.2061133e-10
4.9710794e-09
2.1442517e-10
4.8999343e-09
2.0839266e-10
4.8308106e-09
2.0247162e-10
4.7636846e-09
1.9661997e-10
4.6985491e-09
1.9078972e-10
4.6354196e-09
1.8491368e-10
4.5743508e-09
1.7887751e-10
4.5154347e-09
1.7257213e-10
4.4587889e-09
1.6592233e-10
4.4045624e-09
1.5883584e-10
4.3529372e-09
1.5121648e-10
4.3041336e-09
1.4295192e-10
4.258444e-09
1.3383145e-10
4.2162591e-09
1.2356693e-10
4.1780744e-09
1.1185116e-10
4.1445613e-09
9.8169286e-11
4.1166985e-09
8.1620955e-11
4.0953673e-09
6.2490331e-11
4.0824717e-09
3.7783947e-11
4.0792882e-09
9.3385537e-12
4.0870281e-09
-2.2655846e-11
4.1080622e-09
-6.1595686e-11
4.1442035e-09
-1.0584665e-10
4.1974753e-09
-1.5602639e-10
4.2690086e-09
-2.0952078e-10
4.3585282e-09
-2.6220863e-10
4.4653032e-09
-3.1276043e-10
4.5874405e-09
-3.5777333e-10
4.7184742e-09
-3.8384542e-10
4.8472359e-09
-3.7719467e-10
4.9635957e-09
-3.4086355e-10
5.0594829e-09
-2.8088653e-10
5.133412e-09
-2.1655705e-10
5.1891468e-09
-1.6325476e-10
5.2296786e-09
-1.1871842e-10
5.2590032e-09
-8.5889381e-11
5.2797705e-09
-6.0823462e-11
5.2937584e-09
-4.0966196e-11
5.302133e-09
-2.4524349e-11
5.3057373e-09
-1.0552651e-11
5.304963e-09
2.2722578e-12
5.2997867e-09
1.5165546e-11
5.2905631e-09
2.7019853e-11
5.2779031e-09
3.708501e-11
5.2622907e-09
4.5733005e-11
5.2443701e-09
5.2493653e-11
5.2247183e-09
5.7564349e-11
5.2037566e-09
6.1401194e-11
5.1819379e-09
6.3911397e-11
5.1596777e-09
6.5204314e-11
5.1372007e-09
6.5839372e-11
5.1146451e-09
6.606978e-11
5.0921987e-09
6.5749637e-11
5.0700224e-09
6.4958357e-11
5.048159e-09
6.4042003e-11
5.026582e-09
6.3202942e-11
5.0052799e-09
6.2398179e-11
4.984259e-09
6.1574706e-11
4.9635559e-09
6.0643803e-11
4.942739e-09
6.0978542e-11
4.9221108e-09
6.0425638e-11
4.8995331e-09
6.6141e-11
4.8768632e-09
6.6414186e-11
4.851938e-09
7.299342e-11
4.3379753e-11
2.6636531e-06
4.6042828e-10
2.6634529e-06
1.1773995e-09
2.6631868e-06
1.5635523e-09
2.6628823e-06
1.788554e-09
2.6625334e-06
2.0497327e-09
2.6621342e-06
2.3449413e-09
2.6616797e-06
2.6699049e-09
2.6611631e-06
3.0358057e-09
2.6605748e-06
3.4569189e-09
2.659903e-06
3.9478401e-09
2.659133e-06
4.5259801e-09
2.6582456e-06
5.2167363e-09
2.6572161e-06
6.0530026e-09
2.6560094e-06
7.095795e-09
2.654581e-06
8.4013738e-09
2.6528512e-06
1.0175956e-08
2.6507426e-06
1.2407379e-08
2.6479954e-06
1.6169155e-08
2.6445708e-06
2.0160776e-08
2.639233e-06
3.1436958e-08
2.6326228e-06
3.8937592e-08
2.6167692e-06
9.3402176e-08
2.6070119e-06
5.7261525e-08
1.3634297e-06
7.5153468e-06
8.1985927e-08
7.6472868e-06
4.0211317e-08
1.3607887e-07
3.0458216e-08
3.152841e-08
2.5741191e-08
1.5245452e-08
2.2824945e-08
9.4240204e-09
2.0755616e-08
6.6871168e-09
1.9176421e-08
5.1032664e-09
1.7909257e-08
4.095014e-09
1.6861425e-08
3.3862301e-09
1.5975106e-08
2.8642889e-09
1.5210958e-08
2.4694896e-09
1.4542113e-08
2.1615154e-09
1.3949683e-08
1.9145693e-09
1.3419733e-08
1.712662e-09
1.2941605e-08
1.5451864e-09
1.2507071e-08
1.404306e-09
1.2109588e-08
1.2845684e-09
1.1743917e-08
1.1817643e-09
1.1405861e-08
1.0925186e-09
1.1091926e-08
1.0145644e-09
1.0799215e-08
9.4597612e-10
1.0525291e-08
8.8526101e-10
1.026809e-08
8.31214e-10
1.0025856e-08
7.8284819e-10
9.7970815e-09
7.3934834e-10
9.5804655e-09
7.0005523e-10
9.374871e-09
6.6443618e-10
9.1793037e-09
6.3203058e-10
8.9928908e-09
6.0244538e-10
8.814864e-09
5.7534378e-10
8.6445461e-09
5.5043009e-10
8.4813342e-09
5.2746524e-10
8.3246862e-09
5.0625179e-10
8.1741173e-09
4.8660573e-10
8.029193e-09
4.6836346e-10
7.889522e-09
4.5138594e-10
7.754753e-09
4.3554356e-10
7.6245729e-09
4.207131e-10
7.4986994e-09
4.0679505e-10
7.3768728e-09
3.9371614e-10
7.2588563e-09
3.8140259e-10
7.1444383e-09
3.6977277e-10
7.0334306e-09
3.5875117e-10
6.9256648e-09
3.4827436e-10
6.8209907e-09
3.3828204e-10
6.719281e-09
3.2870189e-10
6.6204303e-09
3.1946207e-10
6.5243513e-09
3.1050414e-10
6.4309753e-09
3.0176871e-10
6.3402522e-09
2.9319468e-10
6.252151e-09
2.8472114e-10
6.1666622e-09
2.7627853e-10
6.0838063e-09
2.6776959e-10
6.003655e-09
2.5902877e-10
5.926329e-09
2.4989813e-10
5.8519827e-09
2.4026869e-10
5.7808116e-09
2.3000687e-10
5.7130548e-09
2.1897336e-10
5.6490013e-09
2.0700534e-10
5.5890351e-09
1.9379769e-10
5.5336689e-09
1.7893311e-10
5.4835534e-09
1.6196666e-10
5.4395699e-09
1.4215284e-10
5.4030029e-09
1.1818794e-10
5.3750088e-09
9.048445e-11
5.3580868e-09
5.4705941e-11
5.3539129e-09
1.3512455e-11
5.3640757e-09
-3.281865e-11
5.391687e-09
-8.9207047e-11
5.439126e-09
-1.5328559e-10
5.5090472e-09
-2.2594765e-10
5.6029351e-09
-3.0340869e-10
5.7204281e-09
-3.7970163e-10
5.8605657e-09
-4.5289795e-10
6.0208608e-09
-5.1806844e-10
6.1928282e-09
-5.5581281e-10
6.3618129e-09
-5.461794e-10
6.5145229e-09
-4.9357353e-10
6.6403664e-09
-4.0673006e-10
6.7373943e-09
-3.1358492e-10
6.8105458e-09
-2.3640633e-10
6.8637451e-09
-1.7191772e-10
6.9022359e-09
-1.243801e-10
6.9294953e-09
-8.8082897e-11
6.9478566e-09
-5.9327521e-11
6.9588504e-09
-3.5518096e-11
6.9635831e-09
-1.5285386e-11
6.9625686e-09
3.2868042e-12
6.9557764e-09
2.1957748e-11
6.9436719e-09
3.912432e-11
6.927057e-09
5.3699849e-11
6.9065671e-09
6.6222933e-11
6.8830476e-09
7.6013146e-11
6.8572559e-09
8.335609e-11
6.829745e-09
8.8912068e-11
6.8011093e-09
9.2547138e-11
6.771894e-09
9.4419632e-11
6.742394e-09
9.5339285e-11
6.712791e-09
9.5672842e-11
6.6833313e-09
9.5209331e-11
6.654226e-09
9.4063669e-11
6.6255313e-09
9.2736721e-11
6.5972127e-09
9.1521542e-11
6.5692548e-09
9.0356015e-11
6.5416661e-09
8.9163431e-11
6.5144945e-09
8.7815366e-11
6.487174e-09
8.8299092e-11
6.4601012e-09
8.7498452e-11
6.4304717e-09
9.5770464e-11
6.4007212e-09
9.6164735e-11
6.3680068e-09
1.0570778e-10
6.2804116e-11
2.8985419e-06
5.4579293e-10
2.8983233e-06
1.3959903e-09
2.8980327e-06
1.8541429e-09
2.8977002e-06
2.1210542e-09
2.8973192e-06
2.4307744e-09
2.8968833e-06
2.7808255e-09
2.8963871e-06
3.1661411e-09
2.8958229e-06
3.5999722e-09
2.8951806e-06
4.0992397e-09
2.8944472e-06
4.681244e-09
2.8936065e-06
5.3666196e-09
2.8926378e-06
6.1854657e-09
2.891514e-06
7.1767622e-09
2.890197e-06
8.4128213e-09
2.8886381e-06
9.9602979e-09
2.8867505e-06
1.2063597e-08
2.8844496e-06
1.4708195e-08
2.8814524e-06
1.916638e-08
2.8777167e-06
2.3896536e-08
2.871895e-06
3.7258585e-08
2.8646862e-06
4.6146381e-08
2.8473985e-06
1.1068989e-07
2.8367391e-06
6.7920917e-08
1.4955185e-06
8.8565674e-06
1.0611373e-07
9.0366916e-06
5.2188426e-08
1.9000417e-07
3.9532162e-08
4.4184673e-08
3.3410224e-08
2.1367389e-08
2.9625029e-08
1.3209216e-08
2.6939098e-08
9.3730482e-09
2.4889355e-08
7.1530085e-09
2.3244645e-08
5.7397248e-09
2.188462e-08
4.7462546e-09
2.0734232e-08
4.014677e-09
1.974242e-08
3.4613013e-09
1.8874309e-08
3.0296266e-09
1.8105383e-08
2.6834958e-09
1.741755e-08
2.4004951e-09
1.679698e-08
2.1657558e-09
1.6232993e-08
1.9682937e-09
1.5717094e-08
1.8004668e-09
1.5242485e-08
1.6563735e-09
1.4803719e-08
1.5312846e-09
1.439626e-08
1.4220232e-09
1.4016348e-08
1.3258887e-09
1.3660819e-08
1.2407895e-09
1.3326997e-08
1.1650364e-09
1.3012599e-08
1.0972463e-09
1.2715671e-08
1.0362764e-09
1.2434523e-08
9.8120274e-10
1.216768e-08
9.3127874e-10
1.1913852e-08
8.8585874e-10
1.1671906e-08
8.4439187e-10
1.1440844e-08
8.0640604e-10
1.1219787e-08
7.7148684e-10
1.1007953e-08
7.3929916e-10
1.0804638e-08
7.0956627e-10
1.0609214e-08
6.8203024e-10
1.0421116e-08
6.564618e-10
1.0239835e-08
6.3266602e-10
1.0064918e-08
6.1046129e-10
9.895956e-09
5.8967489e-10
9.7325837e-09
5.7016735e-10
9.5744638e-09
5.5183597e-10
9.4212891e-09
5.3457732e-10
9.2727849e-09
5.1827698e-10
9.1287069e-09
5.0282914e-10
8.9888364e-09
4.8814487e-10
8.8529788e-09
4.7413967e-10
8.7209685e-09
4.6071217e-10
8.5926689e-09
4.4776171e-10
8.4679667e-09
4.3520635e-10
8.3467725e-09
4.2296284e-10
8.2290217e-09
4.1094554e-10
8.1146737e-09
3.9906906e-10
8.0037164e-09
3.872359e-10
7.8961763e-09
3.7530971e-10
7.7921465e-09
3.6305853e-10
7.6917837e-09
3.5026097e-10
7.5952881e-09
3.3676423e-10
7.5029139e-09
3.2238112e-10
7.4149709e-09
3.0691629e-10
7.3318349e-09
2.9014136e-10
7.254004e-09
2.7162864e-10
7.1821439e-09
2.5079317e-10
7.1170994e-09
2.2701115e-10
7.0600145e-09
1.9923781e-10
7.0125565e-09
1.6564589e-10
6.9762256e-09
1.2681535e-10
6.9542665e-09
7.6665066e-11
6.9488548e-09
1.8924121e-11
6.9620511e-09
-4.6014923e-11