/*--------------------------------*- C++ -*----------------------------------*\
| =========                 |                                                 |
| \\      /  F ield         | OpenFOAM: The Open Source CFD Toolbox           |
|  \\    /   O peration     | Version:  2206                                  |
|   \\  /    A nd           | Website:  www.openfoam.com                      |
|    \\/     M anipulation  |                                                 |
\*---------------------------------------------------------------------------*/
FoamFile
{
    version     2.0;
    format      ascii;
    arch        "LSB;label=32;scalar=64";
    class       volVectorField;
    location    "1200";
    object      U;
}
// * * * * * * * * * * * * * * * * * * * * * * * * * * * * * * * * * * * * * //

dimensions      [0 1 -1 0 0 0 0];

internalField   nonuniform List<vector> 
13056
(
(0.99999999 7.2657717e-10 5.0598475e-25)
(0.99994535 2.1068407e-09 0)
(0.99985383 3.1727376e-09 0)
(0.99974912 4.1167691e-09 0)
(0.99962939 5.3508883e-09 0)
(0.99949192 6.9399317e-09 0)
(0.99933506 8.9530496e-09 0)
(0.99915672 1.1526293e-08 0)
(0.99895386 1.484713e-08 0)
(0.99872259 1.9157163e-08 0)
(0.99845801 2.4776357e-08 0)
(0.99815403 3.2153572e-08 0)
(0.99780258 4.1901719e-08 0)
(0.99739337 5.4996705e-08 0)
(0.99691075 7.2620905e-08 0)
(0.99633704 9.762268e-08 0)
(0.99563148 1.3131671e-07 0)
(0.99477541 1.8743e-07 0)
(0.99359969 2.5372665e-07 0)
(0.99223065 4.2521411e-07 0)
(0.98965657 5.5921288e-07 0)
(0.98728946 1.4053596e-06 0)
(0.97794802 8.8638846e-07 -5.1896138e-21)
(0.97991903 0.00012204724 8.8355296e-18)
(0.0031057561 0.00012247744 0)
(0.0012243146 7.3030159e-08 -1.2324673e-20)
(0.00087171844 4.7810165e-08 4.0875204e-18)
(0.00071599691 6.0698746e-09 0)
(0.00062592098 3.7194183e-09 0)
(0.00056406653 2.6150298e-09 0)
(0.00051809764 1.9773533e-09 0)
(0.0004817702 1.5716829e-09 0)
(0.00045205213 1.2869467e-09 0)
(0.00042715274 1.0776639e-09 0)
(0.00040585084 9.1957227e-10 0)
(0.00038731748 7.9639792e-10 0)
(0.00037098197 6.9777201e-10 0)
(0.00035643125 6.1725258e-10 0)
(0.0003433522 5.5055357e-10 0)
(0.00033150273 4.9452037e-10 0)
(0.00032069608 4.4694169e-10 0)
(0.00031077802 4.0613922e-10 1.6975777e-25)
(0.00030162966 3.7076784e-10 0)
(0.00029315123 3.3989705e-10 0)
(0.00028526044 3.1276281e-10 0)
(0.00027788846 2.8876195e-10 0)
(0.00027097714 2.67412e-10 0)
(0.00026447707 2.4831842e-10 0)
(0.00025834602 2.3115627e-10 0)
(0.00025254773 2.1566224e-10 0)
(0.00024705059 2.0162226e-10 0)
(0.00024182695 1.8885243e-10 0)
(0.00023685262 1.7719652e-10 0)
(0.00023210629 1.6652112e-10 0)
(0.00022756921 1.5671015e-10 0)
(0.00022322483 1.476687e-10 0)
(0.00021905826 1.3931726e-10 0)
(0.00021505614 1.3158322e-10 0)
(0.00021120654 1.2440265e-10 0)
(0.00020749874 1.177209e-10 0)
(0.00020392306 1.1148811e-10 0)
(0.00020047086 1.0565827e-10 0)
(0.00019713447 1.0019355e-10 0)
(0.00019390684 9.5064167e-11 0)
(0.00019078147 9.0241441e-11 0)
(0.00018775252 8.5696217e-11 0)
(0.00018481479 8.1402209e-11 0)
(0.00018196368 7.7337188e-11 0)
(0.00017919501 7.3480746e-11 0)
(0.00017650513 6.9810983e-11 0)
(0.00017389104 6.6307497e-11 0)
(0.00017135026 6.2953959e-11 0)
(0.00016888074 5.9734877e-11 0)
(0.00016648093 5.66355e-11 0)
(0.00016414977 5.3642274e-11 0)
(0.00016188672 5.0741107e-11 0)
(0.00015969182 4.791427e-11 0)
(0.00015756611 4.5133777e-11 0)
(0.00015551232 4.2376024e-11 0)
(0.00015353402 3.9628575e-11 0)
(0.0001516357 3.6876495e-11 0)
(0.0001498231 3.4106463e-11 0)
(0.00014810295 3.1304159e-11 0)
(0.00014648361 2.8436802e-11 0)
(0.00014497676 2.5460807e-11 0)
(0.00014359751 2.2336346e-11 0)
(0.00014236471 1.8990886e-11 0)
(0.00014130558 1.528653e-11 0)
(0.00014046014 1.1351198e-11 0)
(0.00013984838 2.4919305e-11 0)
(0.00013958237 1.9576245e-12 -2.4235796e-25)
(0.00013963492 -3.7598421e-12 0)
(0.00014011874 -9.5373135e-12 0)
(0.00014108253 -1.5820029e-11 0)
(0.00014260233 -2.2459255e-11 0)
(0.00014474067 -2.9003986e-11 0)
(0.00014751171 -3.4857433e-11 0)
(0.00015088153 -3.9871362e-11 0)
(0.00015483481 -4.3697627e-11 0)
(0.0001592556 -4.4875068e-11 0)
(0.0001638121 -4.2153405e-11 0)
(0.00016806782 -3.6375764e-11 0)
(0.00017176884 -1.0747373e-10 9.1822042e-21)
(0.00017461414 -2.0939818e-11 0)
(0.00017681549 -1.50059e-11 0)
(0.00017841505 -1.0339645e-11 0)
(0.00017957891 -7.0823084e-12 0)
(0.00018041352 -4.7400261e-12 0)
(0.00018099323 -3.0128177e-12 0)
(0.00018136478 -1.7005216e-12 0)
(0.00018156092 -7.0748227e-13 0)
(0.00018160646 1.7982904e-13 0)
(0.00018150265 8.5287567e-13 0)
(0.00018125221 1.4867048e-12 0)
(0.00018087435 2.0434098e-12 0)
(0.00018038552 2.5219145e-12 0)
(0.00017980559 2.8959805e-12 0)
(0.00017915879 3.1765162e-12 0)
(0.00017846038 3.3890238e-12 0)
(0.00017772392 3.5281252e-12 0)
(0.00017696685 3.5998113e-12 0)
(0.0001762002 3.6351623e-12 0)
(0.00017542829 3.6482005e-12 0)
(0.00017465624 3.6307539e-12 0)
(0.00017389182 3.5871585e-12 0)
(0.00017313827 3.5366808e-12 0)
(0.00017239526 3.4904792e-12 0)
(0.0001716613 3.4462607e-12 0)
(0.00017093708 3.4008792e-12 0)
(0.00017022235 3.3496092e-12 0)
(0.00016951989 3.3681698e-12 0)
(0.00016879725 3.3387829e-12 0)
(0.00016810775 3.6529353e-12 0)
(0.00016725111 1.3850451e-11 0)
(0.00016655555 3.9765246e-12 4.8247282e-24)
(0.00016554407 9.1312974e-12 0)
(0.99999999 2.1921004e-09 0)
(0.99994528 6.3576605e-09 0)
(0.99985361 9.5750562e-09 0)
(0.99974871 1.2424366e-08 0)
(0.99962877 1.614887e-08 0)
(0.99949105 2.0944411e-08 0)
(0.99933392 2.7019651e-08 0)
(0.99915527 3.4785082e-08 0)
(0.99895207 4.480634e-08 0)
(0.99872041 5.7812399e-08 0)
(0.9984554 7.4768628e-08 0)
(0.99815093 9.7029255e-08 0)
(0.99779893 1.2644339e-07 0)
(0.99738909 1.6595526e-07 0)
(0.99690575 2.1913168e-07 0)
(0.99633121 2.9456581e-07 0)
(0.99562467 3.9622196e-07 0)
(0.99476744 5.6551238e-07 0)
(0.99359021 7.6551596e-07 0)
(0.99221951 1.282836e-06 0)
(0.98964256 1.6870611e-06 0)
(0.98727285 4.239697e-06 0)
(0.97792135 2.6730676e-06 1.9263007e-20)
(0.97988766 0.0003668208 -7.2902636e-21)
(0.0093284389 0.00036858452 0)
(0.0036909675 1.2028123e-06 0)
(0.0026281437 2.6938461e-07 3.8379906e-22)
(0.0021587058 1.2722148e-07 0)
(0.0018871216 7.7930046e-08 0)
(0.0017006274 5.4797618e-08 0)
(0.0015620275 4.1432189e-08 0)
(0.0014524998 3.2931499e-08 0)
(0.0013629001 2.6965323e-08 0)
(0.0012878286 2.257998e-08 0)
(0.0012236039 1.9267244e-08 0)
(0.0011677266 1.6686227e-08 0)
(0.0011184758 1.4619657e-08 0)
(0.0010746063 1.2932507e-08 0)
(0.0010351738 1.153494e-08 0)
(0.00099944848 1.0360873e-08 0)
(0.00096686724 9.3641218e-09 0)
(0.00093696505 8.5092508e-09 -2.5533428e-25)
(0.00090938351 7.7680498e-09 -2.3708485e-25)
(0.00088382173 7.121236e-09 0)
(0.00086003167 6.5526793e-09 0)
(0.00083780579 6.0497947e-09 0)
(0.00081696875 5.6024591e-09 0)
(0.00079737162 5.2024037e-09 0)
(0.00077888704 4.8428206e-09 0)
(0.00076140571 4.5181904e-09 0)
(0.00074483235 4.2240261e-09 0)
(0.00072908354 3.9564759e-09 0)
(0.0007140864 3.7122649e-09 0)
(0.00069977665 3.4885986e-09 0)
(0.00068609777 3.2830459e-09 0)
(0.00067299987 3.0936155e-09 0)
(0.00066043805 2.9186413e-09 0)
(0.00064837202 2.7566031e-09 0)
(0.00063676583 2.6061613e-09 0)
(0.00062558716 2.4661703e-09 0)
(0.00061480681 2.3355857e-09 0)
(0.00060439876 2.2134444e-09 0)
(0.00059433984 2.0989521e-09 0)
(0.00058460883 1.9914846e-09 0)
(0.00057518612 1.8904415e-09 0)
(0.0005660541 1.7952121e-09 0)
(0.00055719713 1.705245e-09 0)
(0.00054860127 1.6200745e-09 0)
(0.00054025396 1.5392732e-09 0)
(0.00053214421 1.4623824e-09 0)
(0.00052426296 1.3889743e-09 0)
(0.00051660273 1.3187056e-09 0)
(0.00050915731 1.2512517e-09 0)
(0.0005019221 1.1863034e-09 0)
(0.00049489385 1.1235762e-09 0)
(0.00048807093 1.0627748e-09 0)
(0.0004814535 1.0035269e-09 0)
(0.00047504466 9.452465e-10 0)
(0.00046885265 8.8743869e-10 0)
(0.00046288825 8.2983827e-10 0)
(0.000457165 7.7213462e-10 0)
(0.00045170017 7.1404778e-10 0)
(0.0004465141 6.5527388e-10 0)
(0.00044163197 5.951259e-10 0)
(0.00043708904 5.3269163e-10 0)
(0.00043293083 4.6712713e-10 0)
(0.00042921423 3.9690044e-10 0)
(0.00042602131 3.1923113e-10 0)
(0.0004234727 2.3624514e-10 0)
(0.00042162876 1.4001471e-10 2.8833888e-25)
(0.00042082716 3.2720958e-11 7.7123688e-25)
(0.00042098622 -7.6697827e-11 0)
(0.0004224455 -2.0138977e-10 0)
(0.0004253519 -3.3312136e-10 0)
(0.0004299346 -4.721695e-10 0)
(0.00043638205 -6.0903278e-10 0)
(0.00044473686 -7.3131323e-10 0)
(0.00045489681 -8.3606993e-10 0)
(0.00046681542 -9.156535e-10 0)
(0.00048014296 -9.3937758e-10 0)
(0.0004938792 -8.8155098e-10 0)
(0.0005067086 -7.5974624e-10 0)
(0.00051786561 -6.0496018e-10 -1.0673416e-24)
(0.00052644343 -4.3716365e-10 -8.7181691e-25)
(0.00053307982 -3.1291118e-10 0)
(0.00053790226 -2.1572164e-10 0)
(0.00054141122 -1.4770561e-10 0)
(0.00054392757 -9.8818753e-11 0)
(0.00054567542 -6.2760146e-11 0)
(0.00054679572 -3.5352151e-11 0)
(0.00054738715 -1.4262749e-11 0)
(0.00054752453 2.8587852e-12 0)
(0.00054721161 1.8012731e-11 0)
(0.00054645659 3.1267258e-11 0)
(0.00054531742 4.2908955e-11 0)
(0.00054384368 5.2912447e-11 0)
(0.00054209527 6.0731891e-11 0)
(0.00054014527 6.6596822e-11 0)
(0.00053803964 7.1035555e-11 0)
(0.00053581932 7.3938825e-11 0)
(0.00053353686 7.5433405e-11 0)
(0.00053122548 7.616784e-11 0)
(0.00052889828 7.6434697e-11 0)
(0.00052657066 7.6063996e-11 0)
(0.00052426602 7.5147891e-11 0)
(0.00052199416 7.4087857e-11 0)
(0.00051975409 7.3117721e-11 0)
(0.00051754131 7.2187434e-11 0)
(0.00051535791 7.1235172e-11 0)
(0.00051320312 7.0158635e-11 0)
(0.0005110853 7.0548677e-11 0)
(0.00050890674 6.9911471e-11 0)
(0.00050682799 7.6531396e-11 0)
(0.00050424576 7.7999055e-11 0)
(0.00050214873 8.4301077e-11 -7.4629322e-24)
(0.00049909921 5.1141053e-11 1.1550302e-24)
(0.99999999 3.692428e-09 0)
(0.99994519 1.0710053e-08 0)
(0.99985335 1.6131466e-08 0)
(0.99974825 2.093228e-08 0)
(0.99962807 2.7207157e-08 0)
(0.99949009 3.5286302e-08 0)
(0.99933265 4.5521215e-08 0)
(0.99915366 5.8603317e-08 0)
(0.99895008 7.5485367e-08 0)
(0.99871799 9.7395232e-08 0)
(0.9984525 1.2595892e-07 0)
(0.99814748 1.6345733e-07 0)
(0.99779486 2.1300481e-07 0)
(0.99738432 2.7956011e-07 0)
(0.99690018 3.6913007e-07 0)
(0.99632472 4.9618735e-07 0)
(0.99561708 6.6740573e-07 0)
(0.99475857 9.5253136e-07 0)
(0.99357967 1.2893711e-06 0)
(0.99220711 2.1605891e-06 0)
(0.98962698 2.8413391e-06 0)
(0.98725438 7.1403608e-06 0)
(0.97789178 4.5046938e-06 -1.0205594e-20)
(0.97985291 0.00061532467 6.7750512e-55)
(0.015653681 0.00061943894 -6.7727763e-55)
(0.0062123883 3.3722074e-06 0)
(0.0044237293 7.6951147e-07 -2.0543022e-22)
(0.0036336298 3.6934484e-07 0)
(0.0031764757 2.262551e-07 0)
(0.0028625533 1.5909624e-07 0)
(0.0026292485 1.2029068e-07 0)
(0.0024448844 9.5609372e-08 0)
(0.002294065 7.8287795e-08 0)
(0.0021677006 6.5555796e-08 0)
(0.0020595943 5.5937791e-08 0)
(0.0019655393 4.844426e-08 0)
(0.0018826386 4.2444402e-08 0)
(0.0018087959 3.7546141e-08 0)
(0.001742422 3.3488628e-08 0)
(0.0016822881 3.0080008e-08 0)
(0.0016274465 2.7186188e-08 0)
(0.0015771143 2.4704273e-08 0)
(0.0015306885 2.2552389e-08 0)
(0.0014876623 2.0674542e-08 0)
(0.0014476183 1.902389e-08 0)
(0.0014102073 1.75639e-08 0)
(0.0013751339 1.6265183e-08 0)
(0.0013421476 1.5103731e-08 0)
(0.001311034 1.4059781e-08 0)
(0.0012816091 1.3117308e-08 0)
(0.0012537125 1.2263284e-08 0)
(0.0012272038 1.1486527e-08 0)
(0.0012019604 1.0777529e-08 0)
(0.0011778739 1.0128177e-08 0)
(0.0011548494 9.5314129e-09 0)
(0.0011328028 8.9814558e-09 0)
(0.0011116585 8.473468e-09 0)
(0.0010913487 8.0030364e-09 0)
(0.001071813 7.5662718e-09 0)
(0.0010529968 7.1598479e-09 0)
(0.0010348511 6.7807332e-09 0)
(0.0010173321 6.4261314e-09 0)
(0.0010004007 6.0937366e-09 0)
(0.0009840213 5.7817364e-09 0)
(0.0009681608 5.4883879e-09 0)
(0.00095278961 5.2119171e-09 0)
(0.00093788137 4.9507245e-09 0)
(0.00092341265 4.7034574e-09 0)
(0.00090936228 4.4688747e-09 0)
(0.00089571176 4.2456455e-09 0)
(0.00088244588 4.0325272e-09 0)
(0.00086955201 3.8285237e-09 0)
(0.0008570197 3.632692e-09 0)
(0.00084484121 3.444135e-09 0)
(0.0008330111 3.2620256e-09 0)
(0.0008215266 3.0855076e-09 0)
(0.00081038797 2.913499e-09 0)
(0.00079960046 2.7442997e-09 0)
(0.00078917794 2.5764731e-09 0)
(0.00077913852 2.4092482e-09 0)
(0.00076950501 2.241724e-09 0)
(0.00076030652 2.0730873e-09 0)
(0.00075157722 1.9024541e-09 0)
(0.00074335957 1.7278302e-09 0)
(0.0007357129 1.546567e-09 0)
(0.00072871386 1.3562142e-09 0)
(0.00072245823 1.1523252e-09 0)
(0.00071708417 9.2682104e-10 0)
(0.0007127947 6.859349e-10 0)
(0.00070969149 4.0005233e-10 6.1125142e-25)
(0.00070834275 9.586102e-11 -4.0875682e-25)
(0.00070861125 -2.2309116e-10 0)
(0.0007110683 -5.8466004e-10 0)
(0.00071596126 -9.6709184e-10 0)
(0.00072367574 -1.3707653e-09 0)
(0.00073452887 -1.7681038e-09 0)
(0.00074859233 -2.1231155e-09 0)
(0.00076569403 -2.4272319e-09 0)
(0.0007857554 -2.658243e-09 0)
(0.00080818755 -2.7271299e-09 0)
(0.00083130711 -2.5592961e-09 0)
(0.00085290022 -2.2057721e-09 0)
(0.00087167844 -1.7284494e-09 0)
(0.00088611613 -1.2692598e-09 0)
(0.00089728617 -9.0857683e-10 0)
(0.00090540335 -6.2637903e-10 0)
(0.00091130978 -4.2890121e-10 0)
(0.00091554552 -2.8695664e-10 0)
(0.0009184877 -1.8225602e-10 0)
(0.00092037358 -1.0267579e-10 0)
(0.00092136924 -4.1482371e-11 0)
(0.0009216006 8.408115e-12 0)
(0.000921074 5.2274021e-11 0)
(0.00091980322 9.0759383e-11 0)
(0.0009178858 1.2456081e-10 0)
(0.00091540523 1.5360498e-10 0)
(0.00091246233 1.763089e-10 0)
(0.00090918009 1.933379e-10 0)
(0.00090563591 2.0622505e-10 0)
(0.00090189868 2.1465514e-10 0)
(0.00089805684 2.1899573e-10 0)
(0.00089416632 2.2112852e-10 0)
(0.00089024918 2.2190333e-10 0)
(0.00088633133 2.2082775e-10 0)
(0.00088245216 2.18169e-10 0)
(0.00087862816 2.1509157e-10 0)
(0.00087485767 2.122748e-10 0)
(0.00087113314 2.0957354e-10 0)
(0.00086745805 2.0680886e-10 0)
(0.00086383114 2.0368306e-10 0)
(0.00086026645 2.0481398e-10 0)
(0.00085659962 2.029602e-10 0)
(0.00085310067 2.2217894e-10 0)
(0.00084875488 2.2279347e-10 0)
(0.00084522512 2.449434e-10 0)
(0.00084009211 1.4579941e-10 0)
(0.99999999 5.2503455e-09 1.0843589e-24)
(0.9999451 1.5230767e-08 0)
(0.99985307 2.294283e-08 0)
(0.99974774 2.97715e-08 0)
(0.9996273 3.8695985e-08 0)
(0.99948901 5.0186335e-08 0)
(0.99933124 6.4742407e-08 0)
(0.99915186 8.3347319e-08 0)
(0.99894785 1.0735582e-07 0)
(0.99871528 1.3851383e-07 0)
(0.99844925 1.7913327e-07 0)
(0.99814362 2.324572e-07 0)
(0.99779031 3.0291343e-07 0)
(0.99737899 3.9755214e-07 0)
(0.99689395 5.2491283e-07 0)
(0.99631746 7.0557179e-07 0)
(0.99560859 9.4901273e-07 0)
(0.99474865 1.3543954e-06 0)
(0.99356789 1.8332804e-06 0)
(0.99219326 3.0718363e-06 0)
(0.98960957 4.0396061e-06 0)
(0.98723376 1.0151422e-05 0)
(0.97785882 6.4081461e-06 0)
(0.97981424 0.0008712088 -3.5346196e-55)
(0.022172731 0.00087886791 3.5334423e-55)
(0.0088261256 6.9535733e-06 0)
(0.0062852301 1.5864611e-06 0)
(0.0051627502 7.6076748e-07 0)
(0.0045131986 4.6605597e-07 0)
(0.0040671599 3.2771945e-07 0)
(0.0037356647 2.4778327e-07 0)
(0.0034737123 1.969411e-07 0)
(0.0032594229 1.6126093e-07 0)
(0.0030798801 1.3503472e-07 0)
(0.0029262797 1.1522275e-07 0)
(0.0027926443 9.9787e-08 0)
(0.0026748575 8.7428137e-08 0)
(0.0025699407 7.7338462e-08 0)
(0.0024756358 6.8980613e-08 0)
(0.0023901969 6.19594e-08 0)
(0.0023122774 5.599862e-08 0)
(0.002240765 5.0886279e-08 0)
(0.0021748029 4.6453758e-08 0)
(0.0021136711 4.2585735e-08 0)
(0.0020567764 3.9185681e-08 0)
(0.0020036226 3.6178362e-08 0)
(0.0019537902 3.3503237e-08 0)
(0.0019069232 3.1110857e-08 0)
(0.0018627168 2.8960511e-08 0)
(0.0018209098 2.701919e-08 0)
(0.0017812742 2.5260058e-08 0)
(0.0017436106 2.3660082e-08 0)
(0.0017077446 2.2199678e-08 0)
(0.0016735225 2.0862133e-08 0)
(0.0016408092 1.9632912e-08 0)
(0.0016094853 1.8500104e-08 0)
(0.0015794434 1.7453745e-08 0)
(0.0015505872 1.6484745e-08 0)
(0.0015228308 1.5585092e-08 0)
(0.0014960967 1.4747936e-08 0)
(0.0014703153 1.3967032e-08 0)
(0.0014454242 1.323662e-08 0)
(0.001421368 1.2551951e-08 0)
(0.0013980961 1.1909291e-08 0)
(0.0013755614 1.130505e-08 0)
(0.001353722 1.0735573e-08 0)
(0.0013325403 1.0197567e-08 0)
(0.0013119831 9.6882444e-09 0)
(0.0012920202 9.205049e-09 0)
(0.0012726255 8.7452399e-09 0)
(0.0012537772 8.3062577e-09 0)
(0.0012354575 7.8860499e-09 0)
(0.0012176515 7.4826742e-09 0)
(0.0012003482 7.0942826e-09 0)
(0.0011835399 6.7191716e-09 0)
(0.0011672226 6.3555768e-09 0)
(0.0011513968 6.0012697e-09 0)
(0.0011360698 5.652749e-09 0)
(0.0011212614 5.3070559e-09 0)
(0.0011069973 4.9626008e-09 0)
(0.0010933099 4.6175288e-09 0)
(0.0010802407 4.270164e-09 0)
(0.001067838 3.9186828e-09 0)
(0.0010561624 3.5589779e-09 0)
(0.0010452981 3.1855935e-09 0)
(0.001035354 2.7934806e-09 0)
(0.0010264662 2.3734806e-09 0)
(0.0010188311 1.9089586e-09 0)
(0.0010127371 1.4127484e-09 0)
(0.0010083287 8.2468911e-10 -3.3286814e-25)
(0.0010064131 1.971536e-10 0)
(0.0010067956 -4.5968541e-10 0)
(0.0010102876 -1.2045131e-09 0)
(0.0010172406 -1.9922482e-09 0)
(0.0010282023 -2.8237107e-09 0)
(0.0010436233 -3.6421062e-09 0)
(0.0010636053 -4.3733134e-09 0)
(0.0010879038 -4.9996595e-09 0)
(0.0011164066 -5.4753574e-09 0)
(0.0011482768 -5.6171196e-09 0)
(0.0011811231 -5.2713616e-09 0)
(0.0012118006 -4.5431917e-09 0)
(0.001238479 -3.5636639e-09 1.2318306e-24)
(0.0012589913 -2.6143253e-09 0)
(0.0012748613 -1.8714487e-09 0)
(0.0012863943 -1.2902162e-09 0)
(0.0012947864 -8.8346503e-10 0)
(0.0013008049 -5.9109221e-10 0)
(0.0013049854 -3.7542818e-10 0)
(0.0013076652 -2.1150778e-10 0)
(0.0013090801 -8.5452963e-11 0)
(0.001309409 1.7293771e-11 0)
(0.001308661 1.0766749e-10 0)
(0.0013068556 1.8694241e-10 0)
(0.0013041315 2.5656795e-10 0)
(0.0013006072 3.1639308e-10 0)
(0.001296426 3.6315996e-10 0)
(0.0012917626 3.9823645e-10 0)
(0.0012867271 4.2478059e-10 0)
(0.0012814173 4.4214503e-10 0)
(0.0012759589 4.5108669e-10 0)
(0.0012704313 4.5547973e-10 0)
(0.0012648659 4.5707497e-10 0)
(0.0012592995 4.5485958e-10 0)
(0.001253788 4.4938375e-10 0)
(0.0012483549 4.4304465e-10 0)
(0.0012429978 4.3724192e-10 0)
(0.0012377061 4.3167684e-10 0)
(0.0012324846 4.259816e-10 0)
(0.0012273315 4.1954251e-10 0)
(0.0012222669 4.2186873e-10 0)
(0.0012170573 4.1804658e-10 0)
(0.0012120861 4.5762524e-10 0)
(0.0012059125 4.5931019e-10 0)
(0.0012008974 5.0474176e-10 0)
(0.0011936044 3.0028967e-10 0)
(0.99999999 6.8895129e-09 0)
(0.999945 1.998865e-08 0)
(0.99985276 3.0113145e-08 0)
(0.99974716 3.9077077e-08 0)
(0.99962643 5.0790875e-08 0)
(0.9994878 6.5872103e-08 0)
(0.99932964 8.4976745e-08 0)
(0.99914984 1.0939482e-07 0)
(0.99894535 1.4090405e-07 0)
(0.99871223 1.8179537e-07 0)
(0.99844559 2.3510239e-07 0)
(0.99813928 3.0508028e-07 0)
(0.9977852 3.9753854e-07 0)
(0.997373 5.2172727e-07 0)
(0.99688696 6.8884952e-07 0)
(0.9963093 9.2590176e-07 0)
(0.99559906 1.24532e-06 0)
(0.99473752 1.7772025e-06 0)
(0.99355465 2.4054902e-06 0)
(0.99217771 4.0303727e-06 0)
(0.98959004 5.2999865e-06 0)
(0.98721063 1.3318414e-05 0)
(0.97782191 8.4125701e-06 0)
(0.97977097 0.0011380978 0)
(0.028977926 0.0011505668 0)
(0.011571093 1.210149e-05 0)
(0.0082403826 2.7526002e-06 0)
(0.0067688586 1.3194136e-06 0)
(0.005917213 8.0832968e-07 0)
(0.0053324003 5.6840052e-07 0)
(0.0048977647 4.2975651e-07 0)
(0.0045543159 3.4157248e-07 0)
(0.00427336 2.7968864e-07 0)
(0.0040379607 2.3420192e-07 0)
(0.0038365753 1.9983975e-07 0)
(0.0036613668 1.7306785e-07 0)
(0.003506938 1.516327e-07 0)
(0.0033693829 1.341333e-07 0)
(0.0032457412 1.1963758e-07 0)
(0.0031337238 1.0746014e-07 0)
(0.003031565 9.7121926e-08 0)
(0.0029378066 8.8255191e-08 0)
(0.0028513251 8.0567545e-08 0)
(0.0027711765 7.3858997e-08 0)
(0.0026965832 6.796205e-08 0)
(0.0026268944 6.2746262e-08 0)
(0.0025615604 5.8106622e-08 0)
(0.0025001141 5.3957367e-08 0)
(0.0024421563 5.0227889e-08 0)
(0.0023873441 4.6860938e-08 0)
(0.0023353789 4.380997e-08 0)
(0.0022859991 4.1035037e-08 0)
(0.002238976 3.8502172e-08 0)
(0.0021941083 3.6182389e-08 0)
(0.0021512187 3.405048e-08 0)
(0.0021101507 3.2085787e-08 0)
(0.0020707635 3.0271027e-08 0)
(0.0020329309 2.8590435e-08 0)
(0.0019965401 2.7030117e-08 0)
(0.0019614898 2.5578191e-08 0)
(0.0019276884 2.4223825e-08 0)
(0.0018950543 2.2957032e-08 0)
(0.0018635148 2.1769575e-08 0)
(0.0018330035 2.0654975e-08 0)
(0.0018034589 1.9607007e-08 0)
(0.0017748257 1.8619334e-08 0)
(0.0017470548 1.7686241e-08 0)
(0.0017201027 1.6802895e-08 0)
(0.0016939298 1.5964864e-08 0)
(0.0016685018 1.5167393e-08 0)
(0.0016437903 1.4406043e-08 0)
(0.0016197717 1.3677254e-08 0)
(0.0015964266 1.2977659e-08 0)
(0.0015737406 1.230405e-08 0)
(0.0015517035 1.1653474e-08 0)
(0.0015303103 1.1022869e-08 0)
(0.0015095613 1.0408372e-08 0)
(0.0014894664 9.8039101e-09 0)
(0.0014700513 9.2043523e-09 0)
(0.0014513499 8.6069397e-09 0)
(0.0014334047 8.0084565e-09 0)
(0.0014162698 7.4059946e-09 0)
(0.001400009 6.7963875e-09 0)
(0.0013847013 6.1725117e-09 0)
(0.0013704575 5.5249042e-09 0)
(0.0013574201 4.8448059e-09 0)
(0.0013457679 4.1163338e-09 0)
(0.0013357582 3.3106448e-09 0)
(0.0013277692 2.4499997e-09 0)
(0.0013219901 1.4307913e-09 0)
(0.0013194796 3.415898e-10 0)
(0.0013199823 -7.9754709e-10 0)
(0.0013245617 -2.0893816e-09 0)
(0.0013336789 -3.4555894e-09 0)
(0.0013480518 -4.8975956e-09 0)
(0.0013682708 -6.3169154e-09 0)
(0.0013944694 -7.5850164e-09 0)
(0.0014263268 -8.6712022e-09 0)
(0.0014636956 -9.4960165e-09 0)
(0.0015054779 -9.7416922e-09 0)
(0.0015485392 -9.1419622e-09 0)
(0.0015887571 -7.8791069e-09 0)
(0.0016237324 -6.18356e-09 0)
(0.0016506246 -4.5340334e-09 0)
(0.001671431 -3.245717e-09 0)
(0.0016865519 -2.2377105e-09 0)
(0.0016975551 -1.532279e-09 0)
(0.0017054463 -1.0252054e-09 0)
(0.0017109278 -6.5116284e-10 0)
(0.0017144416 -3.6686338e-10 0)
(0.0017162971 -1.4823049e-10 0)
(0.0017167287 2.9964753e-11 0)
(0.0017157483 1.8671764e-10 0)
(0.0017133815 3.2421316e-10 0)
(0.0017098101 4.44971e-10 0)
(0.0017051897 5.4872923e-10 0)
(0.001699708 6.2984108e-10 0)
(0.0016935941 6.9067736e-10 0)
(0.0016869923 7.3671327e-10 0)
(0.0016800309 7.6682979e-10 0)
(0.0016728745 7.8233938e-10 0)
(0.0016656275 7.8995852e-10 0)
(0.0016583309 7.9272424e-10 0)
(0.001651033 7.8888231e-10 0)
(0.0016438071 7.7938643e-10 0)
(0.001636684 7.6839199e-10 0)
(0.0016296606 7.583268e-10 0)
(0.0016227228 7.4867345e-10 0)
(0.0016158771 7.3879494e-10 0)
(0.0016091212 7.2762663e-10 0)
(0.0016024812 7.3165468e-10 0)
(0.0015956514 7.2502252e-10 0)
(0.0015891338 7.9364356e-10 0)
(0.001581041 7.9693321e-10 0)
(0.0015744658 8.7560696e-10 -9.6139206e-24)
(0.0015649042 5.2074537e-10 1.4879647e-24)
(0.99999999 8.6350433e-09 0)
(0.99994489 2.5056912e-08 0)
(0.9998524 3.7753143e-08 0)
(0.99974651 4.8992856e-08 0)
(0.99962544 6.3678769e-08 0)
(0.99948644 8.258598e-08 0)
(0.99932785 1.0653678e-07 0)
(0.99914756 1.3714798e-07 0)
(0.99894252 1.766477e-07 0)
(0.99870879 2.2790731e-07 0)
(0.99844147 2.9472876e-07 0)
(0.99813439 3.8244489e-07 0)
(0.99777943 4.9833611e-07 0)
(0.99736624 6.5399451e-07 0)
(0.99687906 8.6345807e-07 0)
(0.9963001 1.1605579e-06 0)
(0.9955883 1.5608689e-06 0)
(0.99472496 2.2274239e-06 0)
(0.99353974 3.0147477e-06 0)
(0.99216018 5.0508201e-06 0)
(0.98956804 6.6416873e-06 0)
(0.98718459 1.668956e-05 0)
(0.97778042 1.0549133e-05 0)
(0.97972242 0.0014196654 0)
(0.036163791 0.0014384858 0)
(0.014488144 1.8971184e-05 0)
(0.010318319 4.3338364e-06 0)
(0.0084758961 2.0774396e-06 0)
(0.0074094461 1.2727982e-06 0)
(0.0066771319 8.9500801e-07 0)
(0.0061328677 6.7669565e-07 0)
(0.005702799 5.3783578e-07 0)
(0.0053509863 4.4039334e-07 0)
(0.0050562197 3.6877008e-07 0)
(0.0048040463 3.1466303e-07 0)
(0.0045846525 2.7250785e-07 0)
(0.0043912793 2.387562e-07 0)
(0.0042190356 2.1120191e-07 0)
(0.0040642141 1.8837721e-07 0)
(0.0039239485 1.6920287e-07 0)
(0.0037960278 1.5292462e-07 0)
(0.0036786259 1.3896325e-07 6.7013273e-25)
(0.0035703362 1.268585e-07 0)
(0.0034699763 1.1629547e-07 -8.9443147e-35)
(0.0033765727 1.0701033e-07 0)
(0.0032893104 9.8797733e-08 0)
(0.0032075011 9.1492321e-08 0)
(0.0031305599 8.4959056e-08 0)
(0.0030579868 7.9086762e-08 0)
(0.0029893527 7.3785293e-08 0)
(0.0029242834 6.898136e-08 0)
(0.0028624515 6.461206e-08 0)
(0.0028035707 6.0623912e-08 0)
(0.0027473887 5.6971276e-08 0)
(0.0026936836 5.3614462e-08 0)
(0.0026422595 5.052094e-08 0)
(0.0025929401 4.7663495e-08 0)
(0.0025455673 4.5017307e-08 0)
(0.0024999998 4.2560498e-08 0)
(0.0024561109 4.0274356e-08 0)
(0.0024137857 3.8141832e-08 0)
(0.0023729223 3.6147197e-08 0)
(0.0023334295 3.427748e-08 0)
(0.0022952242 3.2522483e-08 0)
(0.0022582292 3.08724e-08 0)
(0.0022223755 2.9317255e-08 0)
(0.0021876017 2.784805e-08 0)
(0.002153853 2.6457175e-08 0)
(0.0021210801 2.5137648e-08 0)
(0.0020892398 2.3881987e-08 0)
(0.0020582966 2.2683201e-08 0)
(0.0020282212 2.1535685e-08 0)
(0.0019989891 2.0434134e-08 0)
(0.0019705822 1.9373501e-08 0)
(0.0019429879 1.8349131e-08 0)
(0.0019161998 1.7356208e-08 0)
(0.0018902184 1.6388643e-08 0)
(0.001865056 1.5436879e-08 0)
(0.0018407449 1.4492838e-08 0)
(0.0018173275 1.3552172e-08 0)
(0.0017948569 1.2609818e-08 0)
(0.0017734009 1.1661197e-08 0)
(0.0017530395 1.0701316e-08 0)
(0.0017338717 9.7189592e-09 0)
(0.001716036 8.699225e-09 0)
(0.0016997112 7.6283182e-09 0)
(0.001685121 6.4812333e-09 0)
(0.0016725876 5.2125627e-09 0)
(0.0016625848 3.8573808e-09 0)
(0.0016553492 2.252618e-09 0)
(0.0016522068 5.3742426e-10 0)
(0.0016528376 -1.2562333e-09 0)
(0.0016585733 -3.2903164e-09 0)
(0.0016699911 -5.4414759e-09 0)
(0.0016879899 -7.7119243e-09 0)
(0.0017133086 -9.9466224e-09 0)
(0.0017461144 -1.1943217e-08 0)
(0.0017860056 -1.365329e-08 0)
(0.0018327967 -1.4951684e-08 0)
(0.0018851127 -1.5338245e-08 0)
(0.0019390294 -1.4393869e-08 0)
(0.001989386 -1.2405536e-08 0)
(0.0020331787 -9.7364367e-09 0)
(0.0020668511 -7.1389334e-09 -6.4138291e-25)
(0.0020929042 -5.1105543e-09 0)
(0.0021118387 -3.5234653e-09 0)
(0.0021256172 -2.4127466e-09 0)
(0.0021354991 -1.6143311e-09 0)
(0.0021423637 -1.0253679e-09 0)
(0.0021467643 -5.777134e-10 0)
(0.0021490883 -2.3345072e-10 0)
(0.0021496292 4.7139694e-11 0)
(0.002148402 2.9396535e-10 0)
(0.0021454388 5.1046828e-10 0)
(0.002140967 7.0061315e-10 0)
(0.0021351817 8.6398762e-10 0)
(0.0021283179 9.9170551e-10 0)
(0.0021206624 1.0874984e-09 0)
(0.002112396 1.1599834e-09 0)
(0.0021036793 1.2074047e-09 0)
(0.0020947185 1.2318282e-09 0)
(0.0020856441 1.2438253e-09 0)
(0.0020765077 1.2481788e-09 0)
(0.0020673696 1.2421302e-09 0)
(0.0020583217 1.2271803e-09 0)
(0.0020494024 1.2098688e-09 0)
(0.0020406079 1.1940187e-09 0)
(0.0020319208 1.1788167e-09 0)
(0.002023349 1.1632608e-09 0)
(0.0020148897 1.1456749e-09 0)
(0.0020065754 1.152006e-09 0)
(0.0019980237 1.141561e-09 0)
(0.0019898627 1.2495643e-09 0)
(0.0019797308 1.2547612e-09 0)
(0.0019714976 1.3788951e-09 0)
(0.0019595248 8.1965518e-10 -8.492277e-25)
(0.99999999 1.0513876e-08 0)
(0.99994476 3.0514232e-08 0)
(0.999852 4.5981975e-08 0)
(0.99974578 5.9673672e-08 0)
(0.99962433 7.7560885e-08 0)
(0.99948489 1.0058882e-07 0)
(0.99932581 1.2975884e-07 0)
(0.99914497 1.6703947e-07 0)
(0.99893932 2.1514366e-07 0)
(0.9987049 2.7756748e-07 0)
(0.9984368 3.5893983e-07 0)
(0.99812884 4.6575325e-07 0)
(0.9977729 6.0687088e-07 0)
(0.9973586 7.9640489e-07 0)
(0.99687013 1.0514429e-06 0)
(0.99628969 1.4131698e-06 0)
(0.99557614 1.9005335e-06 0)
(0.99471076 2.7120021e-06 0)
(0.99352288 3.6704327e-06 0)
(0.99214037 6.1488463e-06 0)
(0.98954319 8.0852915e-06 0)
(0.98715517 2.031649e-05 0)
(0.97773363 1.2851365e-05 0)
(0.97966779 0.001719688 0)
(0.043828074 0.001746728 0)
(0.017620682 2.8019491e-05 0)
(0.012549999 6.4253126e-06 0)
(0.010309311 3.08031e-06 0)
(0.0090121417 1.8873455e-06 0)
(0.0081213985 1.3271499e-06 0)
(0.0074593816 1.0034252e-06 0)
(0.006936278 7.9751155e-07 0)
(0.0065083617 6.5302084e-07 0)
(0.0061498317 5.4681607e-07 0)
(0.0058431101 4.6658404e-07 0)
(0.00557626 4.040749e-07 0)
(0.0053410597 3.5402723e-07 0)
(0.0051315598 3.1316935e-07 0)
(0.0049432508 2.7932464e-07 0)
(0.0047726465 2.5089281e-07 0)
(0.0046170573 2.2675541e-07 0)
(0.0044742621 2.0605341e-07 0)
(0.0043425505 1.8810446e-07 0)
(0.0042204835 1.7244171e-07 9.6482619e-35)
(0.0041068776 1.5867373e-07 0)
(0.0040007414 1.4649614e-07 0)
(0.0039012376 1.3566373e-07 0)
(0.0038076549 1.2597626e-07 0)
(0.0037193851 1.1726887e-07 0)
(0.0036359062 1.0940791e-07 0)
(0.0035567631 1.0228469e-07 0)
(0.0034815577 9.5805939e-08 0)
(0.0034099417 8.9892359e-08 0)
(0.0033416082 8.4476275e-08 0)
(0.0032762873 7.9498834e-08 0)
(0.0032137408 7.4911802e-08 0)
(0.0031537542 7.0674821e-08 0)
(0.0030961352 6.675109e-08 0)
(0.003040712 6.3108168e-08 0)
(0.0029873303 5.9718311e-08 0)
(0.0029358508 5.6556235e-08 0)
(0.0028861491 5.3598622e-08 0)
(0.0028381144 5.0826238e-08 0)
(0.0027916456 4.8223958e-08 0)
(0.002746649 4.5777244e-08 0)
(0.0027030405 4.3471301e-08 0)
(0.0026607454 4.1292788e-08 0)
(0.0026196972 3.9230423e-08 0)
(0.0025798357 3.7273852e-08 0)
(0.0025411087 3.5411979e-08 0)
(0.0025034727 3.3634442e-08 0)
(0.0024668922 3.1932926e-08 0)
(0.0024313373 3.0299566e-08 0)
(0.0023967862 2.8726877e-08 0)
(0.0023632234 2.7207958e-08 0)
(0.0023306411 2.5735663e-08 0)
(0.00229904 2.4300966e-08 0)
(0.0022684351 2.28897e-08 0)
(0.0022388656 2.1489885e-08 0)
(0.002210383 2.009507e-08 0)
(0.002183052 1.8697752e-08 0)
(0.0021569552 1.7291135e-08 0)
(0.0021321897 1.5867808e-08 0)
(0.002108876 1.4411139e-08 0)
(0.0020871826 1.2899033e-08 0)
(0.0020673271 1.1311027e-08 0)
(0.0020495816 9.61005e-09 0)
(0.002034338 7.7287796e-09 0)
(0.0020221726 5.7192776e-09 0)
(0.0020133729 3.3396144e-09 0)
(0.0020095523 7.9627237e-10 0)
(0.0020103212 -1.8633799e-09 0)
(0.0020172992 -4.8795043e-09 0)
(0.0020311885 -8.06919e-09 0)
(0.0020530818 -1.1435667e-08 0)
(0.0020838778 -1.4749096e-08 0)
(0.0021237799 -1.7709469e-08 0)
(0.0021722996 -2.0244856e-08 0)
(0.0022292098 -2.2169615e-08 0)
(0.0022928378 -2.2742417e-08 0)
(0.0023584118 -2.1342035e-08 0)
(0.0024196561 -1.8393948e-08 0)
(0.0024729181 -1.4436353e-08 0)
(0.0025138721 -1.0585316e-08 -7.4669538e-25)
(0.0025455604 -7.5778904e-09 0)
(0.0025685911 -5.2246766e-09 0)
(0.0025853509 -3.5777471e-09 0)
(0.0025973714 -2.3938623e-09 0)
(0.0026057217 -1.5205328e-09 0)
(0.002611075 -8.5673967e-10 0)
(0.0026139026 -3.4625042e-10 0)
(0.0026145612 6.9827931e-11 0)