# Region        : all region0
# Cells         : 7480
# Volume        : 2.33333000e+00
# Time          	max(p)	max(k)	max(omega)	max(nut)
1               	2.52322357e-02	1.13857165e-03	7.47637135e+03	3.07903214e-07
2               	3.49992930e-02	3.41724145e-03	7.48453340e+03	4.56610356e-07
3               	4.19928981e-02	6.30086402e-03	7.50331319e+03	8.39744238e-07
4               	4.72460326e-02	8.88440813e-03	7.52701157e+03	1.18033672e-06
5               	5.06268539e-02	1.08323983e-02	7.54818064e+03	1.43510057e-06
6               	5.26070690e-02	1.21265365e-02	7.56410292e+03	1.60316915e-06
7               	5.34884429e-02	1.29220031e-02	7.57466231e+03	1.70595105e-06
8               	5.38346440e-02	1.34045442e-02	7.58114554e+03	1.76814231e-06
9               	5.38909252e-02	1.36927604e-02	7.58507566e+03	1.96588620e-06
10              	5.38671640e-02	1.38629281e-02	7.58742210e+03	2.58288133e-06
11              	5.38189470e-02	1.39629050e-02	7.58880714e+03	3.35963376e-06
12              	5.38426896e-02	1.40215281e-02	7.58962076e+03	4.41200289e-06
13              	5.38605073e-02	1.40549719e-02	7.59009780e+03	5.69037318e-06
14              	5.39297062e-02	1.40746147e-02	7.59036993e+03	7.31172384e-06
15              	5.40223488e-02	1.40854004e-02	7.59052976e+03	9.26916088e-06
16              	5.40362748e-02	1.40913110e-02	7.59061752e+03	1.15683238e-05
17              	5.40671764e-02	1.40955354e-02	7.59066561e+03	1.42862574e-05
18              	5.41079957e-02	1.40981013e-02	7.59069998e+03	1.73761474e-05
19              	5.40643876e-02	1.40998633e-02	7.59072086e+03	2.07350476e-05
20              	5.40842331e-02	1.41007127e-02	7.59073520e+03	2.40935486e-05
21              	5.40548390e-02	1.41010870e-02	7.59074211e+03	2.69936951e-05
22              	5.40676927e-02	1.41006618e-02	7.59074515e+03	2.96410128e-05
23              	5.40970717e-02	1.40997546e-02	7.59074169e+03	3.19487536e-05
24              	5.41215203e-02	1.40989325e-02	7.59073431e+03	3.42912447e-05
25              	5.41690205e-02	1.40983179e-02	7.59072762e+03	3.64415298e-05
26              	5.41938674e-02	1.40978493e-02	7.59072262e+03	3.85845805e-05
27              	5.42063949e-02	1.40974683e-02	7.59071881e+03	4.06904219e-05
28              	5.42163311e-02	1.40972633e-02	7.59071571e+03	4.27217539e-05
29              	5.42398522e-02	1.40979294e-02	7.59071404e+03	4.47715568e-05
30              	5.42657770e-02	1.40990615e-02	7.59071946e+03	4.68568828e-05
31              	5.43007340e-02	1.41002707e-02	7.59072867e+03	4.90088708e-05
32              	5.43214569e-02	1.41014424e-02	7.59073851e+03	5.11706564e-05
33              	5.43196639e-02	1.41025253e-02	7.59074804e+03	5.33313232e-05
34              	5.43127654e-02	1.41034777e-02	7.59075686e+03	5.54851040e-05
35              	5.42364208e-02	1.41042318e-02	7.59076460e+03	5.76243022e-05
36              	5.42261925e-02	1.41047806e-02	7.59077074e+03	5.97422450e-05
37              	5.42627026e-02	1.41051609e-02	7.59077521e+03	6.18346190e-05
38              	5.43781262e-02	1.41054590e-02	7.59077830e+03	6.38966722e-05
39              	5.44537276e-02	1.41057348e-02	7.59078073e+03	6.59525210e-05
40              	5.44941983e-02	1.41060328e-02	7.59078297e+03	6.80059352e-05
41              	5.45102868e-02	1.41063625e-02	7.59078539e+03	7.00270850e-05
42              	5.45208553e-02	1.41067133e-02	7.59078808e+03	7.20126968e-05
43              	5.45346724e-02	1.41070648e-02	7.59079093e+03	7.39599037e-05
44              	5.45523594e-02	1.41073998e-02	7.59079379e+03	7.58660262e-05
45              	5.45363552e-02	1.41076870e-02	7.59079652e+03	7.77293082e-05
46              	5.45050173e-02	1.41078903e-02	7.59079885e+03	7.95473581e-05
47              	5.44439328e-02	1.41079680e-02	7.59080051e+03	8.13189746e-05
48              	5.44891909e-02	1.41079579e-02	7.59080114e+03	8.30429114e-05
49              	5.45436706e-02	1.41079040e-02	7.59080106e+03	8.47183853e-05
50              	5.46235477e-02	1.41078619e-02	7.59080062e+03	8.63446670e-05
51              	5.46858344e-02	1.41078682e-02	7.59080028e+03	8.79215430e-05
52              	5.47191897e-02	1.41079388e-02	7.59080033e+03	8.94486006e-05
53              	5.47325978e-02	1.41080706e-02	7.59080090e+03	9.09546163e-05
54              	5.47494362e-02	1.41082514e-02	7.59080197e+03	9.24638226e-05
55              	5.47596901e-02	1.41084607e-02	7.59080345e+03	9.39240731e-05
56              	5.47717595e-02	1.41086782e-02	7.59080515e+03	9.53355310e-05
57              	5.47919963e-02	1.41088921e-02	7.59080692e+03	9.66981451e-05
58              	5.47982493e-02	1.41090921e-02	7.59080866e+03	9.80121475e-05
59              	5.47947451e-02	1.41092636e-02	7.59081029e+03	9.92780186e-05
60              	5.47607087e-02	1.41093823e-02	7.59081168e+03	1.00496414e-04
61              	5.47226070e-02	1.41094263e-02	7.59081265e+03	1.01667788e-04
62              	5.46627372e-02	1.41093690e-02	7.59081300e+03	1.02792804e-04
63              	5.45558459e-02	1.41091734e-02	7.59081254e+03	1.03872336e-04
64              	5.46171013e-02	1.41089206e-02	7.59081095e+03	1.04907470e-04
65              	5.47358012e-02	1.41086925e-02	7.59080889e+03	1.05899459e-04
66              	5.48262793e-02	1.41085598e-02	7.59080703e+03	1.06849544e-04
67              	5.48325701e-02	1.41085378e-02	7.59080595e+03	1.07758994e-04
68              	5.48192596e-02	1.41086129e-02	7.59080578e+03	1.08629138e-04
69              	5.47982143e-02	1.41087517e-02	7.59080639e+03	1.09461084e-04
70              	5.47844750e-02	1.41089237e-02	7.59080752e+03	1.10255887e-04
71              	5.47886649e-02	1.41091081e-02	7.59080892e+03	1.11014590e-04
72              	5.48023033e-02	1.41092917e-02	7.59081042e+03	1.11738120e-04
73              	5.48169826e-02	1.41094614e-02	7.59081191e+03	1.12427450e-04
74              	5.48168250e-02	1.41096030e-02	7.59081329e+03	1.13083626e-04
75              	5.48008580e-02	1.41097030e-02	7.59081444e+03	1.13707759e-04
76              	5.47570073e-02	1.41097414e-02	7.59081526e+03	1.14301042e-04
77              	5.46932133e-02	1.41096956e-02	7.59081557e+03	1.14864685e-04
78              	5.46271100e-02	1.41095499e-02	7.59081520e+03	1.15428425e-04
79              	5.45208376e-02	1.41092758e-02	7.59081401e+03	1.15965570e-04
80              	5.46151701e-02	1.41089763e-02	7.59081178e+03	1.16475155e-04
81              	5.47148594e-02	1.41087196e-02	7.59080934e+03	1.16958334e-04
82              	5.47962794e-02	1.41085778e-02	7.59080725e+03	1.17416204e-04
83              	5.48053674e-02	1.41085617e-02	7.59080610e+03	1.17849856e-04
84              	5.48013296e-02	1.41086519e-02	7.59080597e+03	1.18260380e-04
85              	5.47706117e-02	1.41088073e-02	7.59080670e+03	1.18648882e-04
86              	5.47524626e-02	1.41089906e-02	7.59080797e+03	1.19016475e-04
87              	5.47595284e-02	1.41091801e-02	7.59080946e+03	1.19364040e-04
88              	5.47630717e-02	1.41093611e-02	7.59081100e+03	1.19692414e-04
89              	5.47512781e-02	1.41095128e-02	7.59081247e+03	1.20002342e-04
90              	5.47087605e-02	1.41096055e-02	7.59081371e+03	1.20294494e-04
91              	5.47065047e-02	1.41096372e-02	7.59081446e+03	1.20569546e-04
92              	5.46157562e-02	1.41095682e-02	7.59081472e+03	1.20828256e-04
93              	5.45633012e-02	1.41093939e-02	7.59081416e+03	1.21071414e-04
94              	5.45225846e-02	1.41091249e-02	7.59081274e+03	1.21299846e-04
95              	5.46450496e-02	1.41088640e-02	7.59081055e+03	1.21514310e-04
96              	5.47163551e-02	1.41086628e-02	7.59080843e+03	1.21715513e-04
97              	5.47863997e-02	1.41085780e-02	7.59080679e+03	1.21904170e-04
98              	5.47806007e-02	1.41086027e-02	7.59080610e+03	1.22081040e-04
99              	5.47662635e-02	1.41087156e-02	7.59080630e+03	1.22246931e-04
100             	5.47319278e-02	1.41088759e-02	7.59080722e+03	1.22402596e-04
101             	5.47250103e-02	1.41090562e-02	7.59080853e+03	1.22548698e-04
102             	5.47378782e-02	1.41092377e-02	7.59080999e+03	1.22685754e-04
103             	5.47195289e-02	1.41093949e-02	7.59081147e+03	1.22814163e-04
104             	5.46979250e-02	1.41095045e-02	7.59081275e+03	1.22934258e-04
105             	5.46481490e-02	1.41095385e-02	7.59081364e+03	1.23046396e-04
106             	5.46048017e-02	1.41094822e-02	7.59081392e+03	1.23151009e-04
107             	5.44811785e-02	1.41092855e-02	7.59081346e+03	1.23248584e-04
108             	5.45767816e-02	1.41090456e-02	7.59081186e+03	1.23339513e-04
109             	5.46516660e-02	1.41088179e-02	7.59080991e+03	1.23424168e-04
110             	5.47508387e-02	1.41086767e-02	7.59080806e+03	1.23502884e-04
111             	5.47624102e-02	1.41086375e-02	7.59080691e+03	1.23576011e-04
112             	5.47635536e-02	1.41086943e-02	7.59080659e+03	1.23643970e-04
113             	5.47522060e-02	1.41088216e-02	7.59080705e+03	1.23707199e-04
114             	5.47390593e-02	1.41089878e-02	7.59080809e+03	1.23766114e-04
115             	5.47393835e-02	1.41091705e-02	7.59080944e+03	1.23821044e-04
116             	5.47429511e-02	1.41093524e-02	7.59081092e+03	1.23872214e-04
117             	5.47555149e-02	1.41095208e-02	7.59081240e+03	1.23919737e-04
118             	5.47634244e-02	1.41096630e-02	7.59081377e+03	1.23963682e-04
119             	5.47406994e-02	1.41097621e-02	7.59081493e+03	1.24004140e-04
120             	5.46989558e-02	1.41097993e-02	7.59081574e+03	1.24041265e-04
121             	5.46338096e-02	1.41097510e-02	7.59081604e+03	1.24075278e-04
122             	5.45667365e-02	1.41096015e-02	7.59081565e+03	1.24106466e-04
123             	5.44623710e-02	1.41093230e-02	7.59081443e+03	1.24135166e-04
124             	5.45672021e-02	1.41090227e-02	7.59081216e+03	1.24161650e-04
125             	5.46654468e-02	1.41087660e-02	7.59080972e+03	1.24186162e-04
126             	5.47451961e-02	1.41086244e-02	7.59080763e+03	1.24208909e-04
127             	5.47532791e-02	1.41086058e-02	7.59080648e+03	1.24230154e-04
128             	5.47557309e-02	1.41086931e-02	7.59080633e+03	1.24250128e-04
129             	5.47295782e-02	1.41088463e-02	7.59080704e+03	1.24269069e-04
130             	5.47144333e-02	1.41090291e-02	7.59080829e+03	1.24287141e-04
131             	5.47216306e-02	1.41092193e-02	7.59080977e+03	1.24304425e-04
132             	5.47232065e-02	1.41094005e-02	7.59081132e+03	1.24320892e-04
133             	5.47279569e-02	1.41095565e-02	7.59081280e+03	1.24336390e-04
134             	5.47353438e-02	1.41096773e-02	7.59081406e+03	1.24350728e-04
135             	5.46634171e-02	1.41097246e-02	7.59081505e+03	1.24363759e-04
136             	5.46811159e-02	1.41097149e-02	7.59081543e+03	1.24375396e-04
137             	5.45490195e-02	1.41095890e-02	7.59081535e+03	1.24385726e-04
138             	5.44946894e-02	1.41093498e-02	7.59081433e+03	1.24394854e-04
139             	5.45238424e-02	1.41090557e-02	7.59081238e+03	1.24402980e-04
140             	5.46451728e-02	1.41087934e-02	7.59080999e+03	1.24410176e-04
141             	5.47102112e-02	1.41086213e-02	7.59080786e+03	1.24416570e-04
142             	5.47622597e-02	1.41085769e-02	7.59080645e+03	1.24422285e-04
143             	5.47510651e-02	1.41086399e-02	7.59080609e+03	1.24427520e-04
144             	5.47341535e-02	1.41087810e-02	7.59080661e+03	1.24432474e-04
145             	5.47039790e-02	1.41089563e-02	7.59080775e+03	1.24437322e-04
146             	5.47048618e-02	1.41091417e-02	7.59080918e+03	1.24442166e-04
147             	5.47161309e-02	1.41093220e-02	7.59081069e+03	1.24446967e-04
148             	5.47021481e-02	1.41094737e-02	7.59081216e+03	1.24451599e-04
149             	5.46753260e-02	1.41095720e-02	7.59081339e+03	1.24455881e-04
150             	5.46395413e-02	1.41095971e-02	7.59081419e+03	1.24459676e-04
151             	5.45863562e-02	1.41095297e-02	7.59081439e+03	1.24462938e-04
152             	5.44822922e-02	1.41093322e-02	7.59081385e+03	1.24465719e-04
153             	5.45344364e-02	1.41090755e-02	7.59081224e+03	1.24468064e-04
154             	5.46261732e-02	1.41088299e-02	7.59081015e+03	1.24470008e-04
155             	5.47162885e-02	1.41086630e-02	7.59080815e+03	1.24471532e-04
156             	5.47534076e-02	1.41086066e-02	7.59080679e+03	1.24472682e-04
157             	5.47560047e-02	1.41086533e-02	7.59080634e+03	1.24473563e-04
158             	5.47430464e-02	1.41087779e-02	7.59080672e+03	1.24474340e-04
159             	5.47213724e-02	1.41089448e-02	7.59080773e+03	1.24475175e-04
160             	5.47190773e-02	1.41091289e-02	7.59080909e+03	1.24476160e-04
161             	5.47257649e-02	1.41093124e-02	7.59081058e+03	1.24477273e-04
162             	5.47387796e-02	1.41094821e-02	7.59081208e+03	1.24478404e-04
163             	5.47272060e-02	1.41096169e-02	7.59081346e+03	1.24479377e-04
164             	5.46976663e-02	1.41096975e-02	7.59081456e+03	1.24480044e-04
165             	5.46529189e-02	1.41097042e-02	7.59081521e+03	1.24480341e-04
166             	5.45907576e-02	1.41096174e-02	7.59081527e+03	1.24480300e-04
167             	5.44884882e-02	1.41094038e-02	7.59081456e+03	1.24480029e-04
168             	5.45165485e-02	1.41091223e-02	7.59081282e+03	1.24479629e-04
169             	5.46276218e-02	1.41088571e-02	7.59081053e+03	1.24479158e-04
170             	5.47170727e-02	1.41086761e-02	7.59080837e+03	1.24478651e-04
171             	5.47513105e-02	1.41086130e-02	7.59080690e+03	1.24478162e-04
172             	5.47563040e-02	1.41086592e-02	7.59080639e+03	1.24477807e-04
173             	5.47414998e-02	1.41087864e-02	7.59080676e+03	1.24477723e-04
174             	5.47189775e-02	1.41089561e-02	7.59080780e+03	1.24478043e-04
175             	5.47213770e-02	1.41091438e-02	7.59080918e+03	1.24478807e-04
176             	5.47238802e-02	1.41093300e-02	7.59081071e+03	1.24479969e-04
177             	5.47330673e-02	1.41095000e-02	7.59081222e+03	1.24481360e-04
178             	5.47434985e-02	1.41096408e-02	7.59081360e+03	1.24482731e-04
179             	5.47194393e-02	1.41097347e-02	7.59081475e+03	1.24483861e-04
180             	5.46818651e-02	1.41097638e-02	7.59081551e+03	1.24484603e-04
181             	5.46194400e-02	1.41097066e-02	7.59081575e+03	1.24484914e-04
182             	5.45537768e-02	1.41095489e-02	7.59081529e+03	1.24484860e-04
183             	5.44584680e-02	1.41092682e-02	7.59081400e+03	1.24484563e-04
184             	5.45777071e-02	1.41089778e-02	7.59081172e+03	1.24484105e-04
185             	5.46645821e-02	1.41087342e-02	7.59080936e+03	1.24483554e-04
186             	5.47432989e-02	1.41086074e-02	7.59080737e+03	1.24482962e-04
187             	5.47518567e-02	1.41086017e-02	7.59080634e+03	1.24482463e-04
188             	5.47492314e-02	1.41086974e-02	7.59080630e+03	1.24482169e-04
189             	5.47215042e-02	1.41088541e-02	7.59080707e+03	1.24482259e-04
190             	5.47080381e-02	1.41090374e-02	7.59080835e+03	1.24482785e-04
191             	5.47137601e-02	1.41092253e-02	7.59080984e+03	1.24483752e-04
192             	5.47185718e-02	1.41094024e-02	7.59081137e+03	1.24485051e-04
193             	5.47179985e-02	1.41095504e-02	7.59081281e+03	1.24486471e-04
194             	5.46748332e-02	1.41096393e-02	7.59081401e+03	1.24487776e-04
195             	5.46726394e-02	1.41096678e-02	7.59081474e+03	1.24488777e-04
196             	5.45796140e-02	1.41095952e-02	7.59081497e+03	1.24489425e-04
197             	5.45214768e-02	1.41094140e-02	7.59081438e+03	1.24489721e-04
198             	5.44891100e-02	1.41091406e-02	7.59081291e+03	1.24489746e-04
199             	5.46149927e-02	1.41088768e-02	7.59081068e+03	1.24489534e-04
200             	5.46876159e-02	1.41086762e-02	7.59080853e+03	1.24489104e-04
201             	5.47575093e-02	1.41085945e-02	7.59080690e+03	1.24488468e-04
202             	5.47519099e-02	1.41086218e-02	7.59080624e+03	1.24487777e-04
203             	5.47466455e-02	1.41087382e-02	7.59080646e+03	1.24487161e-04
204             	5.47149347e-02	1.41089016e-02	7.59080741e+03	1.24486794e-04
205             	5.47116591e-02	1.41090860e-02	7.59080874e+03	1.24486755e-04
206             	5.47153243e-02	1.41092704e-02	7.59081024e+03	1.24487034e-04
207             	5.47274071e-02	1.41094410e-02	7.59081174e+03	1.24487508e-04
208             	5.46919965e-02	1.41095659e-02	7.59081312e+03	1.24487992e-04
209             	5.46919786e-02	1.41096396e-02	7.59081414e+03	1.24488303e-04
210             	5.46057886e-02	1.41096202e-02	7.59081474e+03	1.24488370e-04
211             	5.45759839e-02	1.41095098e-02	7.59081458e+03	1.24488184e-04
212             	5.44523305e-02	1.41092630e-02	7.59081368e+03	1.24487850e-04
213             	5.45800993e-02	1.41089976e-02	7.59081168e+03	1.24487389e-04
214             	5.46560802e-02	1.41087640e-02	7.59080952e+03	1.24486838e-04
215             	5.47443723e-02	1.41086349e-02	7.59080762e+03	1.24486168e-04
216             	5.47534853e-02	1.41086171e-02	7.59080657e+03	1.24485454e-04
217             	5.47534791e-02	1.41086978e-02	7.59080642e+03	1.24484784e-04
218             	5.47349889e-02	1.41088437e-02	7.59080708e+03	1.24484329e-04
219             	5.47218709e-02	1.41090221e-02	7.59080827e+03	1.24484193e-04
220             	5.47243858e-02	1.41092106e-02	7.59080972e+03	1.24484409e-04
221             	5.47299249e-02	1.41093927e-02	7.59081125e+03	1.24484905e-04
222             	5.47414765e-02	1.41095542e-02	7.59081273e+03	1.24485496e-04
223             	5.47486605e-02	1.41096844e-02	7.59081405e+03	1.24485972e-04
224             	5.46792575e-02	1.41097475e-02	7.59081510e+03	1.24486177e-04
225             	5.46948127e-02	1.41097571e-02	7.59081562e+03	1.24486010e-04
226             	5.45583100e-02	1.41096512e-02	7.59081570e+03	1.24485527e-04
227             	5.45138558e-02	1.41094360e-02	7.59081483e+03	1.24484796e-04
228             	5.44893504e-02	1.41091366e-02	7.59081308e+03	1.24483951e-04
229             	5.46294461e-02	1.41088595e-02	7.59081065e+03	1.24483058e-04
230             	5.46978785e-02	1.41086612e-02	7.59080839e+03	1.24482172e-04
231             	5.47592595e-02	1.41085913e-02	7.59080678e+03	1.24481349e-04
232             	5.47514039e-02	1.41086335e-02	7.59080621e+03	1.24480747e-04
233             	5.47429052e-02	1.41087629e-02	7.59080655e+03	1.24480471e-04
234             	5.47129163e-02	1.41089349e-02	7.59080761e+03	1.24480666e-04
235             	5.47153373e-02	1.41091245e-02	7.59080901e+03	1.24481377e-04
236             	5.47195993e-02	1.41093120e-02	7.59081055e+03	1.24482544e-04
237             	5.47222140e-02	1.41094812e-02	7.59081207e+03	1.24484004e-04
238             	5.47302300e-02	1.41096190e-02	7.59081345e+03	1.24485502e-04
239             	5.46670520e-02	1.41096888e-02	7.59081457e+03	1.24486812e-04
240             	5.46831998e-02	1.41097020e-02	7.59081514e+03	1.24487749e-04
241             	5.45629128e-02	1.41096044e-02	7.59081525e+03	1.24488283e-04
242             	5.45099989e-02	1.41093961e-02	7.59081445e+03	1.24488450e-04
243             	5.44995958e-02	1.41091094e-02	7.59081276e+03	1.24488347e-04
244             	5.46266099e-02	1.41088420e-02	7.59081043e+03	1.24488022e-04
245             	5.46949722e-02	1.41086493e-02	7.59080825e+03	1.24487513e-04
246             	5.47604449e-02	1.41085816e-02	7.59080668e+03	1.24486854e-04
247             	5.47500058e-02	1.41086230e-02	7.59080613e+03	1.24486220e-04
248             	5.47427488e-02	1.41087508e-02	7.59080647e+03	1.24485738e-04
249             	5.47107980e-02	1.41089208e-02	7.59080751e+03	1.24485576e-04
250             	5.47097431e-02	1.41091075e-02	7.59080889e+03	1.24485793e-04
251             	5.47149117e-02	1.41092916e-02	7.59081041e+03	1.24486361e-04
252             	5.47241385e-02	1.41094588e-02	7.59081191e+03	1.24487145e-04
253             	5.46798506e-02	1.41095743e-02	7.59081327e+03	1.24487941e-04
254             	5.46820149e-02	1.41096349e-02	7.59081421e+03	1.24488553e-04
255             	5.45935874e-02	1.41095981e-02	7.59081470e+03	1.24488914e-04
256             	5.45567194e-02	1.41094650e-02	7.59081440e+03	1.24489000e-04
257             	5.44617760e-02	1.41092089e-02	7.59081332e+03	1.24488896e-04
258             	5.45963562e-02	1.41089470e-02	7.59081124e+03	1.24488615e-04
259             	5.46706205e-02	1.41087282e-02	7.59080911e+03	1.24488176e-04
260             	5.47489879e-02	1.41086185e-02	7.59080733e+03	1.24487555e-04
261             	5.47546513e-02	1.41086189e-02	7.59080643e+03	1.24486851e-04
262             	5.47516163e-02	1.41087134e-02	7.59080644e+03	1.24486171e-04
263             	5.47293998e-02	1.41088668e-02	7.59080720e+03	1.24485691e-04
264             	5.47197997e-02	1.41090485e-02	7.59080845e+03	1.24485512e-04
265             	5.47209519e-02	1.41092366e-02	7.59080993e+03	1.24485655e-04
266             	5.47312400e-02	1.41094154e-02	7.59081146e+03	1.24486026e-04
267             	5.47418535e-02	1.41095708e-02	7.59081292e+03	1.24486439e-04
268             	5.47028147e-02	1.41096749e-02	7.59081418e+03	1.24486709e-04
269             	5.47034507e-02	1.41097272e-02	7.59081503e+03	1.24486694e-04
270             	5.45998749e-02	1.41096812e-02	7.59081545e+03	1.24486383e-04
271             	5.45694318e-02	1.41095427e-02	7.59081508e+03	1.24485807e-04
272             	5.44476715e-02	1.41092705e-02	7.59081395e+03	1.24485096e-04
273             	5.45833988e-02	1.41089879e-02	7.59081174e+03	1.24484303e-04
274             	5.46630395e-02	1.41087471e-02	7.59080944e+03	1.24483480e-04
275             	5.47494357e-02	1.41086215e-02	7.59080748e+03	1.24482646e-04
276             	5.47505014e-02	1.41086117e-02	7.59080646e+03	1.24481910e-04
277             	5.47540530e-02	1.41087034e-02	7.59080638e+03	1.24481368e-04
278             	5.47275198e-02	1.41088564e-02	7.59080712e+03	1.24481192e-04
279             	5.47191296e-02	1.41090399e-02	7.59080837e+03	1.24481463e-04
280             	5.47217255e-02	1.41092304e-02	7.59080986e+03	1.24482194e-04
281             	5.47249416e-02	1.41094115e-02	7.59081141e+03	1.24483282e-04
282             	5.47342627e-02	1.41095678e-02	7.59081288e+03	1.24484509e-04
283             	5.47429705e-02	1.41096905e-02	7.59081416e+03	1.24485633e-04
284             	5.46664560e-02	1.41097409e-02	7.59081515e+03	1.24486468e-04
285             	5.46818856e-02	1.41097345e-02	7.59081556e+03	1.24486886e-04
286             	5.45500693e-02	1.41096120e-02	7.59081551e+03	1.24486930e-04
287             	5.44941846e-02	1.41093752e-02	7.59081452e+03	1.24486660e-04
288             	5.45143895e-02	1.41090771e-02	7.59081259e+03	1.24486193e-04
289             	5.46409031e-02	1.41088092e-02	7.59081016e+03	1.24485586e-04
290             	5.47061972e-02	1.41086299e-02	7.59080798e+03	1.24484895e-04
291             	5.47590274e-02	1.41085790e-02	7.59080653e+03	1.24484186e-04
292             	5.47508979e-02	1.41086373e-02	7.59080611e+03	1.24483624e-04
293             	5.47380578e-02	1.41087768e-02	7.59080659e+03	1.24483332e-04
294             	5.47080311e-02	1.41089530e-02	7.59080772e+03	1.24483458e-04
295             	5.47104197e-02	1.41091418e-02	7.59080915e+03	1.24484048e-04
296             	5.47164490e-02	1.41093256e-02	7.59081069e+03	1.24485034e-04
297             	5.47239895e-02	1.41094898e-02	7.59081219e+03	1.24486252e-04
298             	5.46820866e-02	1.41096017e-02	7.59081352e+03	1.24487470e-04
299             	5.46905643e-02	1.41096610e-02	7.59081443e+03	1.24488464e-04
300             	5.45921552e-02	1.41096207e-02	7.59081491e+03	1.24489151e-04
301             	5.45663855e-02	1.41094887e-02	7.59081459e+03	1.24489483e-04
302             	5.44539593e-02	1.41092278e-02	7.59081351e+03	1.24489559e-04
303             	5.45907965e-02	1.41089593e-02	7.59081139e+03	1.24489390e-04
304             	5.46629113e-02	1.41087306e-02	7.59080921e+03	1.24489013e-04
305             	5.47463945e-02	1.41086117e-02	7.59080734e+03	1.24488415e-04
306             	5.47548061e-02	1.41086061e-02	7.59080638e+03	1.24487709e-04
307             	5.47506664e-02	1.41086975e-02	7.59080633e+03	1.24487011e-04
308             	5.47265960e-02	1.41088496e-02	7.59080708e+03	1.24486507e-04
309             	5.47146184e-02	1.41090305e-02	7.59080831e+03	1.24486311e-04
310             	5.47156422e-02	1.41092176e-02	7.59080978e+03	1.24486444e-04
311             	5.47272688e-02	1.41093960e-02	7.59081131e+03	1.24486822e-04
312             	5.47206392e-02	1.41095444e-02	7.59081276e+03	1.24487272e-04
313             	5.46948978e-02	1.41096416e-02	7.59081397e+03	1.24487607e-04
314             	5.46586080e-02	1.41096692e-02	7.59081476e+03	1.24487700e-04
315             	5.45998935e-02	1.41096063e-02	7.59081498e+03	1.24487527e-04
316             	5.45106965e-02	1.41094250e-02	7.59081447e+03	1.24487149e-04
317             	5.44973155e-02	1.41091557e-02	7.59081299e+03	1.24486641e-04
318             	5.46137411e-02	1.41088924e-02	7.59081080e+03	1.24486041e-04
319             	5.47015019e-02	1.41086978e-02	7.59080866e+03	1.24485367e-04
320             	5.47508774e-02	1.41086173e-02	7.59080708e+03	1.24484628e-04
321             	5.47564875e-02	1.41086461e-02	7.59080642e+03	1.24483926e-04
322             	5.47462218e-02	1.41087611e-02	7.59080666e+03	1.24483388e-04
323             	5.47225275e-02	1.41089241e-02	7.59080759e+03	1.24483163e-04
324             	5.47210066e-02	1.41091093e-02	7.59080892e+03	1.24483321e-04
325             	5.47226523e-02	1.41092958e-02	7.59081043e+03	1.24483846e-04
326             	5.47340944e-02	1.41094695e-02	7.59081194e+03	1.24484601e-04
327             	5.47438960e-02	1.41096163e-02	7.59081336e+03	1.24485363e-04
328             	5.47166314e-02	1.41097159e-02	7.59081455e+03	1.24485933e-04
329             	5.46893930e-02	1.41097551e-02	7.59081536e+03	1.24486172e-04
330             	5.46164003e-02	1.41097054e-02	7.59081568e+03	1.24486051e-04
331             	5.45618658e-02	1.41095585e-02	7.59081528e+03	1.24485625e-04
332             	5.44544366e-02	1.41092831e-02	7.59081408e+03	1.24485019e-04
333             	5.45744073e-02	1.41089938e-02	7.59081184e+03	1.24484306e-04
334             	5.46599568e-02	1.41087469e-02	7.59080949e+03	1.24483547e-04
335             	5.47424842e-02	1.41086144e-02	7.59080748e+03	1.24482784e-04
336             	5.47515428e-02	1.41086022e-02	7.59080640e+03	1.24482134e-04
337             	5.47515908e-02	1.41086928e-02	7.59080630e+03	1.24481709e-04
338             	5.47259854e-02	1.41088470e-02	7.59080704e+03	1.24481666e-04
339             	5.47115453e-02	1.41090298e-02	7.59080829e+03	1.24482081e-04
340             	5.47173121e-02	1.41092191e-02	7.59080978e+03	1.24482960e-04
341             	5.47203765e-02	1.41093987e-02	7.59081132e+03	1.24484202e-04
342             	5.47287935e-02	1.41095536e-02	7.59081278e+03	1.24485591e-04
343             	5.46972311e-02	1.41096578e-02	7.59081404e+03	1.24486886e-04
344             	5.46883444e-02	1.41097051e-02	7.59081489e+03	1.24487888e-04
345             	5.46040463e-02	1.41096585e-02	7.59081527e+03	1.24488503e-04
346             	5.45654689e-02	1.41095190e-02	7.59081489e+03	1.24488737e-04
347             	5.44532272e-02	1.41092506e-02	7.59081376e+03	1.24488682e-04
348             	5.45832149e-02	1.41089724e-02	7.59081158e+03	1.24488390e-04
349             	5.46584027e-02	1.41087341e-02	7.59080931e+03	1.24487913e-04
350             	5.47423119e-02	1.41086069e-02	7.59080737e+03	1.24487266e-04
351             	5.47531997e-02	1.41085970e-02	7.59080634e+03	1.24486574e-04
352             	5.47509745e-02	1.41086874e-02	7.59080626e+03	1.24485960e-04
353             	5.47239848e-02	1.41088400e-02	7.59080699e+03	1.24485597e-04
354             	5.47101550e-02	1.41090213e-02	7.59080823e+03	1.24485590e-04
355             	5.47116096e-02	1.41092080e-02	7.59080971e+03	1.24485968e-04
356             	5.47235041e-02	1.41093861e-02	7.59081123e+03	1.24486633e-04
357             	5.47094678e-02	1.41095314e-02	7.59081268e+03	1.24487404e-04
358             	5.46900083e-02	1.41096252e-02	7.59081386e+03	1.24488076e-04
359             	5.46425121e-02	1.41096435e-02	7.59081462e+03	1.24488518e-04
360             	5.45949274e-02	1.41095723e-02	7.59081477e+03	1.24488681e-04
361             	5.44887797e-02	1.41093737e-02	7.59081419e+03	1.24488611e-04
362             	5.45206120e-02	1.41091070e-02	7.59081258e+03	1.24488370e-04
363             	5.46220394e-02	1.41088514e-02	7.59081041e+03	1.24487981e-04
364             	5.47129153e-02	1.41086737e-02	7.59080833e+03	1.24487440e-04
365             	5.47508445e-02	1.41086091e-02	7.59080688e+03	1.24486776e-04
366             	5.47564300e-02	1.41086512e-02	7.59080636e+03	1.24486077e-04
367             	5.47432383e-02	1.41087740e-02	7.59080670e+03	1.24485496e-04
368             	5.47210357e-02	1.41089407e-02	7.59080770e+03	1.24485178e-04
369             	5.47197060e-02	1.41091259e-02	7.59080905e+03	1.24485197e-04
370             	5.47236034e-02	1.41093109e-02	7.59081056e+03	1.24485532e-04
371             	5.47360910e-02	1.41094817e-02	7.59081207e+03	1.24486045e-04
372             	5.47432765e-02	1.41096246e-02	7.59081346e+03	1.24486529e-04
373             	5.46874944e-02	1.41097073e-02	7.59081462e+03	1.24486808e-04
374             	5.46988747e-02	1.41097375e-02	7.59081529e+03	1.24486755e-04
375             	5.45746415e-02	1.41096590e-02	7.59081554e+03	1.24486395e-04
376             	5.45399626e-02	1.41094801e-02	7.59081490e+03	1.24485778e-04
377             	5.44645813e-02	1.41091911e-02	7.59081344e+03	1.24485034e-04
378             	5.46114615e-02	1.41089122e-02	7.59081109e+03	1.24484218e-04
379             	5.46824660e-02	1.41086944e-02	7.59080882e+03	1.24483375e-04
380             	5.47589694e-02	1.41086013e-02	7.59080705e+03	1.24482539e-04
381             	5.47493861e-02	1.41086211e-02	7.59080629e+03	1.24481851e-04
382             	5.47491121e-02	1.41087352e-02	7.59080645e+03	1.24481411e-04
383             	5.47186872e-02	1.41088995e-02	7.59080738e+03	1.24481388e-04
384             	5.47182898e-02	1.41090877e-02	7.59080872e+03	1.24481834e-04
385             	5.47208963e-02	1.41092774e-02	7.59081025e+03	1.24482723e-04
386             	5.47229527e-02	1.41094524e-02	7.59081179e+03	1.24483925e-04
387             	5.47332842e-02	1.41095987e-02	7.59081322e+03	1.24485201e-04