/*--------------------------------*- C++ -*----------------------------------*\
| =========                 |                                                 |
| \\      /  F ield         | OpenFOAM: The Open Source CFD Toolbox           |
|  \\    /   O peration     | Version:  2206                                  |
|   \\  /    A nd           | Website:  www.openfoam.com                      |
|    \\/     M anipulation  |                                                 |
\*---------------------------------------------------------------------------*/
FoamFile
{
    version     2.0;
    format      ascii;
    arch        "LSB;label=32;scalar=64";
    class       volScalarField;
    location    "1400";
    object      k;
}
// * * * * * * * * * * * * * * * * * * * * * * * * * * * * * * * * * * * * * //

dimensions      [0 2 -2 0 0 0 0];

internalField   nonuniform List<scalar> 
7480
(
0.011444997
0.014109269
0.011690858
0.0076597814
0.004541817
0.0027811884
0.0019369745
0.0015258634
0.0012980631
0.0011497539
0.0010351952
0.0009369465
0.0008513504
0.00077729272
0.0007130756
0.00065713858
0.0006082762
0.0005653546
0.00052717535
0.00049296165
0.00046224313
0.00043451095
0.00040929822
0.00038631023
0.00036531364
0.00034605621
0.00032831387
0.00031194402
0.00029683389
0.00028285459
0.00026989388
0.00025787849
0.00024674402
0.00023641853
0.00022684171
0.00021797254
0.00020977363
0.00020220839
0.00019525203
0.00018889211
0.00018311823
0.00017791963
0.00017329658
0.00016924832
0.00016578067
0.000162985
0.000160782
0.00015929088
0.00015850029
0.00015838857
0.00015893262
0.00016010317
0.00016183865
0.00016402653
0.00016655672
0.00016935325
0.00017224879
0.00017499454
0.00017735461
0.00017913501
0.00018033394
0.0001809558
0.00018105549
0.00018070976
0.00018001527
0.00017906016
0.00017792218
0.00017666352
0.0001753288
0.00017395114
0.00017255568
0.00017115731
0.00016976543
0.00016839004
0.00016703362
0.00016569759
0.00016438247
0.00016303393
0.00016165665
0.00016026696
0.00015887142
0.00015747334
0.00015606734
0.00015465133
0.0001532249
0.00015178779
0.00015034229
0.00014888899
0.00014743122
0.00014597004
0.00014450769
0.00014304517
0.00014158575
0.0001401213
0.00013867597
0.00013716217
0.00013583875
0.00013394089
0.00013287118
0.00012997076
0.0014157174
0.0025664847
0.0028347661
0.0024741351
0.0020072015
0.0015608869
0.0011995148
0.00093128502
0.00073508275
0.00059090457
0.00048470138
0.00040596353
0.00034685544
0.0003017337
0.00026653377
0.00023842143
0.00021549127
0.00019643276
0.00018031739
0.00016651492
0.0001545999
0.00014424971
0.00013521012
0.00012729047
0.0001202092
0.00011382645
0.00010805657
0.00010284891
9.8170119e-05
9.3991072e-05
9.0288866e-05
8.7049574e-05
8.4263149e-05
8.1920413e-05
8.0016138e-05
7.8550485e-05
7.7527727e-05
7.6959462e-05
7.6868891e-05
7.7291751e-05
7.8274728e-05
7.9875845e-05
8.2167339e-05
8.5234142e-05
8.9182902e-05
9.4123451e-05
0.00010013488
0.00010728567
0.00011559525
0.00012505521
0.0001356325
0.00014733122
0.00015988897
0.000173009
0.00018640323
0.00019964094
0.00021208305
0.0002231463
0.0002324718
0.00024000629
0.0002458985
0.00025040767
0.00025379775
0.00025616193
0.00025772074
0.00025867328
0.00025917723
0.00025934914
0.00025927425
0.0002590146
0.00025861323
0.00025809669
0.0002574888
0.00025680793
0.00025606099
0.00025524902
0.00025435235
0.00025316573
0.00025177539
0.00025025203
0.00024861844
0.00024688112
0.00024504211
0.00024310851
0.00024108703
0.00023898774
0.00023682065
0.00023459583
0.00023232431
0.00023001509
0.00022767719
0.00022531864
0.00022294725
0.00022056771
0.00021818396
0.00021579443
0.00021343602
0.00021076393
0.00020884786
0.00020445394
0.00021000159
0.00055718726
0.00084135496
0.00095103673
0.00092898385
0.00084359479
0.00075622285
0.00069802822
0.00065930162
0.00062432747
0.00059310908
0.00056404725
0.00053576047
0.00050883464
0.00048353179
0.00045987574
0.00043792686
0.00041770176
0.00039920378
0.00038244185
0.00036740486
0.00035405029
0.00034233056
0.00033218038
0.00032244557
0.00031325531
0.00030472441
0.00029698233
0.00029015641
0.0002843652
0.00027972728
0.00027636001
0.0002743726
0.00027387057
0.00027496435
0.00027776943
0.00028241307
0.00028906316
0.00029794541
0.00030934577
0.00032360924
0.00034114576
0.00036243721
0.00038803596
0.00041861193
0.00045474442
0.00049693089
0.0005453993
0.00060016168
0.00066105852
0.00072755135
0.00079920907
0.00087482393
0.0009526716
0.0010310717
0.0011074784
0.0011784221
0.0012409705
0.0012935732
0.0013362473
0.0013699764
0.0013963231
0.0014161034
0.0014304215
0.0014405611
0.0014475653
0.0014522367
0.0014551593
0.0014567585
0.0014573427
0.0014571223
0.0014562269
0.0014547805
0.001452875
0.0014505442
0.0014477891
0.0014444934
0.0014394764
0.0014333008
0.0014263531
0.0014187462
0.0014105111
0.0014016652
0.0013922512
0.0013823091
0.0013718968
0.0013610697
0.001349885
0.0013384028
0.0013266743
0.0013147489
0.001302673
0.0012904883
0.0012782326
0.0012658998
0.0012535869
0.0012411894
0.0012276417
0.0012173962
0.001194876
3.6611731e-05
0.00011640827
0.00022887647
0.00032889054
0.00038968464
0.00041113944
0.00040817955
0.00039503651
0.00038062948
0.00036976684
0.00036653934
0.00037466964
0.00038615443
0.00039596539
0.00040414315
0.00041042541
0.00041541937
0.00041962501
0.00042336118
0.00042688799
0.00043042171
0.00043414998
0.00043822818
0.00044276343
0.00044759387
0.00045253415
0.00045763189
0.00046310052
0.0004692175
0.00047628406
0.00048461858
0.0004945532
0.00050642815
0.00052059385
0.00053741514
0.00055726886
0.00058057132
0.00060785357
0.00063977498
0.00067711219
0.00072075038
0.00077168705
0.00083103679
0.00090002513
0.000980049
0.0010721044
0.0011767151
0.0012938387
0.0014229946
0.001563291
0.001713277
0.0018698828
0.0020312373
0.0021937829
0.0023542123
0.0025071627
0.0026462034
0.0027669242
0.0028678689
0.0029500496
0.0030159603
0.003068061
0.0031079609
0.0031384156
0.0031617023
0.0031795887
0.0031934052
0.0032041109
0.0032123965
0.0032187589
0.0032235306
0.0032269149
0.0032291281
0.0032303201
0.0032305393
0.0032297701
0.0032278186
0.0032223558
0.0032146941
0.0032055026
0.0031949443
0.0031830725
0.0031699321
0.0031556089
0.0031401872
0.0031237784
0.0031064883
0.0030884249
0.0030696987
0.0030504074
0.0030306396
0.0030104864
0.0029900232
0.0029693314
0.0029483772
0.0029274373
0.002905985
0.0028832351
0.0028646456
0.0028272417
1.2523572e-05
2.7572091e-05
5.8623047e-05
9.9469133e-05
0.00013897212
0.00016941947
0.00018920274
0.00020025943
0.00020547971
0.00020734486
0.00020802342
0.00020958417
0.00021294361
0.0002186044
0.00022749936
0.00024060944
0.00025525456
0.00027042219
0.00028569068
0.00030132415
0.00031747132
0.0003343157
0.00035193054
0.00037024715
0.00038898828
0.00040784811
0.00042730611
0.0004478113
0.00046968953
0.00049321917
0.00051868028
0.00054638468
0.00057669
0.00061000132
0.00064676435
0.0006874609
0.00073269098
0.0007833146
0.00084036711
0.00090498959
0.00097842503
0.0010620253
0.0011572533
0.001265679
0.0013890363
0.0015277584
0.0016814291
0.0018493904
0.0020306816
0.0022239423
0.0024271581
0.0026371026
0.0028490766
0.0030590799
0.0032640021
0.0034558805
0.0036269803
0.003773979
0.0038971209
0.0039986175
0.0040811022
0.0041474182
0.0042005345
0.004243224
0.0042778457
0.0043062549
0.004329857
0.0043496775
0.0043664593
0.0043807382
0.0043928674
0.0044030664
0.0044116002
0.0044186289
0.0044241898
0.0044282405
0.0044305981
0.0044302939
0.0044275161
0.0044225609
0.0044155895
0.0044066953
0.0043959679
0.0043835373
0.0043695387
0.0043541305
0.0043374625
0.0043196827
0.004300939
0.0042813646
0.0042610754
0.004240195
0.00421882
0.0041970618
0.0041748799
0.0041526526
0.0041295815
0.0041056739
0.004084778
0.004046357
9.3805204e-06
1.1752129e-05
1.8504731e-05
3.0344295e-05
4.5488275e-05
6.1116729e-05
7.5204403e-05
8.6931815e-05
9.6283765e-05
0.00010357668
0.00010920828
0.00011368632
0.00011750422
0.0001211125
0.00012501807
0.00012979519
0.00013572021
0.00014306879
0.00015226658
0.000163762
0.00017687838
0.00019189691
0.00020809861
0.00022550487
0.00024419733
0.00026423332
0.00028584076
0.0003093221
0.00033501269
0.0003632914
0.00039457718
0.00042932856
0.00046804694
0.000511269
0.0005595792
0.00061369333
0.00067460846
0.00074334883
0.00082093155
0.00090844929
0.0010071107
0.0011182458
0.0012432964
0.0013838346
0.0015415356
0.0017146151
0.0019011157
0.0021002432
0.0023113334
0.0025332009
0.0027637979
0.0029998076
0.0032364243
0.0034693849
0.0036954718
0.0039036859
0.0040871706
0.0042456718
0.0043808057
0.0044950946
0.0045915402
0.0046728495
0.0047414588
0.0047996473
0.0048494531
0.0048925169
0.0049301296
0.0049632814
0.0049927092
0.0050189545
0.0050423717
0.0050631866
0.0050817316
0.0050981643
0.0051125041
0.0051246864
0.0051345676
0.0051414947
0.0051454251
0.0051465448
0.005145031
0.005141025
0.0051346688
0.005126139
0.0051156222
0.0051033214
0.0050894267
0.0050741218
0.0050575878
0.0050399892
0.0050214628
0.005002161
0.0049821972
0.0049617048
0.004940649
0.0049194573
0.0048972073
0.0048744886
0.0048537583
0.0048171154
8.9898805e-06
9.2309835e-06
1.0391823e-05
1.3066159e-05
1.7351901e-05
2.2790984e-05
2.8760596e-05
3.4793166e-05
4.0618728e-05
4.6095985e-05
5.1142091e-05
5.5725863e-05
5.9866044e-05
6.3618423e-05
6.7086951e-05
7.0428373e-05
7.3808443e-05
7.7401688e-05
8.1420426e-05
8.6121263e-05
9.1690947e-05
9.8405485e-05
0.00010650491
0.00011619653
0.00012735247
0.0001401794
0.00015492529
0.00017144006
0.00018975075
0.00021022481
0.00023330066
0.00025949851
0.00028942934
0.00032377654
0.00036330649
0.00040892983
0.00046182526
0.00052346395
0.00059538872
0.00067925168
0.00077680037
0.00088985882
0.0010203118
0.0011701601
0.0013415152
0.0015226351
0.0017158947
0.0019248168
0.0021498547
0.0023894574
0.0026405094
0.0028982975
0.0031567037
0.003411721
0.003660868
0.003882431
0.0040752684
0.0042463265
0.0043981392
0.004532747
0.004652184
0.0047579817
0.0048515198
0.004934398
0.005008182
0.0050741541
0.0051334581
0.0051870679
0.0052357351
0.005280046
0.005320452
0.0053572808
0.0053908291
0.0054212764
0.0054486549
0.0054729168
0.0054939778
0.005511425
0.0055251443
0.0055352628
0.0055419834
0.0055455081
0.0055460443
0.0055438272
0.0055391043
0.0055321311
0.0055231449
0.0055123719
0.0055000343
0.0054863336
0.0054714479
0.0054555487
0.0054387677
0.0054212613
0.0054030153
0.0053844719
0.0053647164
0.0053446131
0.0053258065
0.005292288
8.9408532e-06
8.8618936e-06
8.945338e-06
9.3733509e-06
1.0288113e-05
1.1705023e-05
1.3541005e-05
1.569265e-05
1.8076242e-05
2.0625903e-05
2.3280008e-05
2.5980008e-05
2.8675766e-05
3.1326688e-05
3.3908403e-05
3.6418877e-05
3.8875425e-05
4.131087e-05
4.3777719e-05
4.6351801e-05
4.9120385e-05
5.2192699e-05
5.5696764e-05
5.9778422e-05
6.4569974e-05
7.0249462e-05
7.7057217e-05
8.5139023e-05
9.4560415e-05
0.00010556093
0.00011844889
0.00013360191
0.00015136902
0.00017186891
0.00019573481
0.00022373739
0.00025685084
0.00029632063
0.00034368179
0.00040076557
0.00046973767
0.00055310975
0.00065369822
0.00077454587
0.00091877179
0.0010825345
0.0012631158
0.0014615837
0.0016783067
0.0019124022
0.0021612352
0.0024201193
0.002682876
0.0029479733
0.0032139778
0.0034580784
0.0036785121
0.0038796601
0.0040624097
0.0042295691
0.0043829455
0.004523014
0.0046504361
0.0047665104
0.0048723551
0.0049688311
0.0050569948
0.0051378087
0.0052120044
0.0052802371
0.0053430762
0.0054009458
0.0054541849
0.0055030222
0.0055475115
0.0055876494
0.0056234275
0.0056546538
0.0056812482
0.005703317
0.0057210825
0.0057348003
0.0057447451
0.0057512162
0.0057545268
0.005754991
0.005752899
0.0057485269
0.005742147
0.0057340058
0.005724321
0.005713297
0.0057010939
0.0056878958
0.0056737222
0.0056590111
0.0056429418
0.0056264404
0.0056107837
0.0055810289
8.932857e-06
8.8092039e-06
8.7106147e-06
8.6774096e-06
8.7583799e-06
8.9872012e-06
9.3743518e-06
9.9171483e-06
1.0610601e-05
1.1449615e-05
1.242614e-05
1.3527012e-05
1.4735557e-05
1.6032304e-05
1.7397521e-05
1.8814426e-05
2.0270871e-05
2.1759368e-05
2.3279174e-05
2.4838563e-05
2.6454374e-05
2.8152928e-05
2.997162e-05
3.1960081e-05
3.4176935e-05
3.6694891e-05
3.9608519e-05
4.3022182e-05
4.7045092e-05
5.1821777e-05
5.7546521e-05
6.4409069e-05
7.2624886e-05
8.2437249e-05
9.4192019e-05
0.00010833272
0.0001254375
0.00014625797
0.00017148714
0.00020217801
0.00023989844
0.00028665501
0.00034499319
0.00041809422
0.00050987004
0.00062313415
0.00075702941
0.00091182613
0.0010885562
0.0012875617
0.0015078752
0.001746629
0.001999103
0.0022629173
0.0025353938
0.0028004706
0.0030434783
0.003270171
0.0034829329
0.003683341
0.0038724602
0.0040490113
0.0042131035
0.0043661066
0.004508404
0.0046401893
0.0047624401
0.0048759165
0.0049811139
0.0050787187
0.0051693525
0.0052534608
0.0053313969
0.0054034329
0.0054695987
0.0055299373
0.0055845306
0.0056333681
0.0056764591
0.0057139331
0.0057460331
0.0057730555
0.0057953373
0.005813242
0.0058271505
0.0058374408
0.0058444623
0.0058485501
0.0058500374
0.0058492257
0.0058463833
0.0058417584
0.0058355492
0.0058279763
0.005819105
0.0058093642
0.0057980774
0.0057861208
0.0057746699
0.0057492396
8.9301616e-06
8.7999876e-06
8.673246e-06
8.5571205e-06
8.4632651e-06
8.4039098e-06
8.3885545e-06
8.4241431e-06
8.5167936e-06
8.6724649e-06
8.8963373e-06
9.19175e-06
9.5601249e-06
1.0000705e-05
1.0510963e-05
1.1087236e-05
1.1725127e-05
1.2419973e-05
1.316775e-05
1.3966014e-05
1.4814477e-05
1.5715537e-05
1.6675465e-05
1.7705524e-05
1.8822066e-05
2.004737e-05
2.1411748e-05
2.2953673e-05
2.4719584e-05
2.6767612e-05
2.9173238e-05
3.2028069e-05
3.5444482e-05
3.9561272e-05
4.4560522e-05
5.0636534e-05
5.8064211e-05
6.7211661e-05
7.8508624e-05
9.2518016e-05
0.00011002579
0.00013209789
0.00016016809
0.00019615052
0.00024248428
0.00030213104
0.00037784382
0.00047160162
0.00058583583
0.00072281333
0.00088422278
0.0010705815
0.0012806736
0.0015124423
0.0017632373
0.0020238809
0.0022815179
0.0025301132
0.0027635113
0.0029862143
0.0032002207
0.0034054942
0.0036018249
0.0037894822
0.0039675456
0.004134906
0.0042927651
0.0044413253
0.0045805696
0.0047111854
0.004833619
0.0049481905
0.0050551934
0.0051549281
0.0052472291
0.0053321475
0.005409854
0.0054804409
0.0055439945
0.0056006951
0.0056508049
0.0056946437
0.0057325979
0.0057650832
0.0057925393
0.005815411
0.005834108
0.0058490302
0.0058605791
0.0058691203
0.0058749846
0.005878476
0.0058798427
0.0058793524
0.0058771282
0.0058735947
0.0058682469
0.0058618674
0.0058556763
0.0058352551
8.9285699e-06
8.7969174e-06
8.6656837e-06
8.5358625e-06
8.4096675e-06
8.2901196e-06
8.1804564e-06
8.0839182e-06
8.0039177e-06
7.9441499e-06
7.9084642e-06
7.9006143e-06
7.9240806e-06
7.9818633e-06
8.0764107e-06
8.2096098e-06
8.3827319e-06
8.5964679e-06
8.851094e-06
9.1467087e-06
9.4834596e-06
9.8618171e-06
1.0282884e-05
1.0748853e-05
1.1263418e-05
1.1832234e-05
1.2463591e-05
1.3169102e-05
1.3964162e-05
1.4868887e-05
1.59097e-05
1.7120351e-05
1.8543736e-05
2.0234267e-05
2.2262343e-05
2.4714811e-05
2.7705439e-05
3.1387137e-05
3.5957427e-05
4.1653121e-05
4.8811425e-05
5.7894478e-05
6.9539496e-05
8.4627426e-05
0.00010435808
0.00013035742
0.00016466128
0.00020948613
0.00026744302
0.00034148406
0.0004347656
0.00055033823
0.00069064514
0.00085722516
0.0010505899
0.0012680443
0.0015024285
0.0017454681
0.0019878243
0.0022267892
0.0024572981
0.0026781887
0.0028929612
0.0031022103
0.0033054299
0.0035016681
0.0036908751
0.0038721183
0.0040442122
0.0042079842
0.0043633515
0.004510416
0.0046491946
0.0047795483
0.0049011946
0.0050142064
0.0051187482
0.0052148817
0.0053027099
0.0053824342
0.0054542994
0.0055186144
0.0055757849
0.0056262447
0.0056704615
0.0057089412
0.0057421526
0.0057705565
0.005794621
0.0058147785
0.0058314315
0.0058449495
0.0058556474
0.0058638494
0.0058697488
0.0058737777
0.0058756164
0.00587595
0.0058761233
0.0058615461
8.9275705e-06
8.7952372e-06
8.6629539e-06
8.5307644e-06
8.3990027e-06
8.2682448e-06
8.1392864e-06
8.0131178e-06
7.8909307e-06
7.7741273e-06
7.6643007e-06
7.5631992e-06
7.472691e-06
7.3947084e-06
7.3311927e-06
7.2840593e-06
7.2551532e-06
7.2461931e-06
7.2587541e-06
7.2942804e-06
7.3541079e-06
7.4395122e-06
7.5517489e-06
7.6921752e-06
7.8623946e-06
8.0644179e-06
8.3009557e-06
8.5757467e-06
8.8937972e-06
9.2616856e-06
9.6880833e-06
1.0184415e-05
1.0765603e-05
1.1450946e-05
1.2265576e-05
1.3241801e-05
1.4421526e-05
1.5860218e-05
1.763107e-05
1.9828416e-05
2.2579756e-05
2.6060873e-05
3.0514412e-05
3.6272468e-05
4.3810364e-05
5.3800476e-05
6.7170184e-05
8.5127243e-05
0.00010924051
0.00014151666
0.00018446032
0.00024107583
0.00031475214
0.00040904313
0.00052738205
0.00067216641
0.00084333366
0.0010380168
0.0012502355
0.0014742977
0.00170311
0.0019314205
0.0021582275
0.0023797837
0.0025941056
0.0028045915
0.0030113547
0.0032140102
0.0034112736
0.0036028339
0.0037875119
0.0039645896
0.0041340269
0.0042950094
0.0044469598
0.0045898808
0.0047237046
0.0048482674
0.0049635643
0.005069707
0.0051668386
0.005255191
0.0053351298
0.0054070457
0.0054713918
0.0055287081
0.0055794941
0.0056242572
0.0056635264
0.0056977952
0.0057275417
0.0057532078
0.0057751848
0.0057938657
0.0058095262
0.005822621
0.0058330227
0.0058413338
0.0058490723
0.0058413438
8.9270212e-06
8.7943084e-06
8.6616219e-06
8.5289048e-06
8.3961836e-06
8.2635329e-06
8.1311112e-06
7.9991794e-06
7.8680991e-06
7.7383227e-06
7.6103873e-06
7.4849151e-06
7.3626196e-06
7.2443058e-06
7.1308628e-06
7.0232581e-06
6.9225278e-06
6.8297585e-06
6.7460711e-06
6.6726111e-06
6.610536e-06
6.561006e-06
6.525188e-06
6.5042692e-06
6.499475e-06
6.5120999e-06
6.5435889e-06
6.5956477e-06
6.6703307e-06
6.7701221e-06
6.898156e-06
7.0584568e-06
7.2561909e-06
7.4981043e-06
7.7930442e-06
8.1523656e-06
8.5907779e-06
9.1276086e-06
9.7884013e-06
1.060665e-05
1.1627062e-05
1.2910589e-05
1.4541072e-05
1.6634644e-05
1.9356274e-05
2.2943693e-05
2.773642e-05
3.4207396e-05
4.3020252e-05
5.5093831e-05
7.1687775e-05
9.4500388e-05
0.00012576235
0.0001682955
0.00022551298
0.00030120516
0.00039891661
0.00052111162
0.00066815968
0.00083850252
0.0010282549
0.0012322505
0.001446258
0.0016648131
0.0018834358
0.0021018511
0.0023174582
0.0025278138
0.0027357567
0.0029412932
0.003144095
0.0033423782
0.0035356602
0.0037229923
0.0039025029
0.0040740478
0.0042371106
0.0043910148
0.00453542
0.0046701786
0.0047952017
0.0049105032
0.00501631
0.0051128793
0.0052005788
0.0052799322
0.0053514068
0.0054155232
0.005472849
0.0055239165
0.0055692725
0.0056094266
0.0056448481
0.0056760063
0.0057032663
0.0057271189
0.0057476312
0.0057653446
0.0057819901
0.0057823116
8.9267135e-06
8.7937696e-06
8.6608836e-06
8.5280136e-06
8.3951498e-06
8.2622851e-06
8.1294443e-06
7.9967035e-06
7.8641864e-06
7.7320529e-06
7.6004895e-06
7.4697097e-06
7.3399609e-06
7.2115317e-06
7.0847557e-06
6.9600153e-06
6.8377452e-06
6.7184316e-06
6.6026119e-06
6.490873e-06
6.3838488e-06
6.282216e-06
6.1866916e-06
6.0980334e-06
6.017039e-06
5.944547e-06
5.8814521e-06
5.8287263e-06
5.7874425e-06
5.7588059e-06
5.744216e-06
5.7453406e-06
5.7641936e-06
5.8032889e-06
5.8658368e-06
5.955883e-06
6.0785773e-06
6.2405929e-06
6.4506912e-06
6.7204707e-06
7.065234e-06
7.505402e-06
8.0687545e-06
8.7935016e-06
9.7332152e-06
1.0964797e-05
1.259938e-05
1.4796897e-05
1.7788862e-05
2.1910688e-05
2.7646481e-05
3.569097e-05
4.7040765e-05
6.3099173e-05
8.5797194e-05
0.00011769146
0.00016194491
0.00022208722
0.00030148608
0.00040279051
0.00052721759
0.0006741729
0.00084174028
0.0010263602
0.0012234971
0.0014297881
0.0016410312
0.0018529598
0.0020656475
0.0022771494
0.0024851176
0.0026911485
0.0028954606
0.0030977391
0.0032961805
0.003489842
0.0036778295
0.0038581913
0.0040301096
0.0041931383
0.0043466812
0.0044902453
0.0046238175
0.0047473611
0.0048610169
0.00496521
0.0050602552
0.0051466198
0.0052248615
0.0052954989
0.0053591232
0.0054162848
0.0054675175
0.0055133643
0.0055542755
0.0055907855
0.0056231527
0.0056518765
0.0056789441
0.0056887326
8.926536e-06
8.7934053e-06
8.6603614e-06
8.5273921e-06
8.3944959e-06
8.2616621e-06
8.1288944e-06
7.9962267e-06
7.8637207e-06
7.7314564e-06
7.5995218e-06
7.4680105e-06
7.3370243e-06
7.2066775e-06
7.0770996e-06
6.9484388e-06
6.8208651e-06
6.6945728e-06
6.5697831e-06
6.4467464e-06
6.3257436e-06
6.2070878e-06
6.091125e-06
5.9782356e-06
5.8688349e-06
5.7633735e-06
5.6623403e-06
5.5662667e-06
5.4757315e-06
5.3913683e-06
5.3138817e-06
5.2440681e-06
5.1828367e-06
5.1312497e-06
5.0905826e-06
5.0623897e-06
5.0485835e-06
5.0515577e-06
5.074371e-06
5.1210233e-06
5.1966999e-06
5.3081822e-06
5.4645479e-06
5.678133e-06
5.9661119e-06
6.3526014e-06
6.8720512e-06
7.5743545e-06
8.5324758e-06
9.8540352e-06
1.1698818e-05
1.4304473e-05
1.8026832e-05
2.3398523e-05
3.121026e-05
4.2614856e-05
5.9251047e-05
8.3320862e-05
0.00011756826
0.00016511957
0.00022913648
0.00031232874
0.00041658398
0.00054248149
0.00068903767
0.00085431394
0.0010352221
0.0012276635
0.0014288265
0.0016352673
0.0018429623
0.0020519287
0.0022602862
0.0024655838
0.0026699729
0.0028734271
0.0030750636
0.003272983
0.0034660513
0.003653209
0.0038325256
0.0040028042
0.00416386
0.0043149783
0.0044558508
0.0045867257
0.0047075202
0.0048185525
0.0049202861
0.0050131237
0.0050976507
0.0051743976
0.0052439279
0.0053068366
0.005363636
0.0054149016
0.0054610685
0.0055026037
0.0055418068
0.0055627125
8.9264679e-06
8.793172e-06
8.659974e-06
8.5268884e-06
8.3939292e-06
8.2610963e-06
8.1283958e-06
7.9958536e-06
7.8635149e-06
7.731437e-06
7.5996817e-06
7.4683113e-06
7.3373888e-06
7.2069796e-06
7.0771532e-06
6.9479837e-06
6.8195519e-06
6.6919466e-06
6.565266e-06
6.4396195e-06
6.315129e-06
6.1919313e-06
6.0701788e-06
5.9500418e-06
5.8317101e-06
5.7153944e-06
5.6013277e-06
5.4897681e-06
5.3810003e-06
5.2753381e-06
5.1731291e-06
5.0747606e-06
4.9806656e-06
4.8913329e-06
4.8073239e-06
4.7292931e-06
4.6580132e-06
4.5944104e-06
4.5396189e-06
4.4950583e-06
4.4625244e-06
4.4443147e-06
4.4434318e-06
4.4638608e-06
4.5110443e-06
4.5924661e-06
4.7186155e-06
4.9045402e-06
5.1722946e-06
5.5544964e-06
6.0996471e-06
6.880985e-06
8.0103441e-06
9.6600292e-06
1.2096731e-05
1.5732201e-05
2.1197422e-05
2.943508e-05
4.1794438e-05
6.0100096e-05
8.6669991e-05
0.00012421437
0.00017564064
0.00024372085
0.00033066964
0.00043788574
0.00056562649
0.0007127315
0.00087729938
0.0010565531
0.0012466865
0.001445172
0.0016486734
0.0018534296
0.0020598627
0.0022656769
0.0024692591
0.0026721251
0.0028747214
0.0030751531
0.0032715553
0.0034627479
0.0036476598
0.0038239616
0.0039908773
0.0041484668
0.0042957161
0.0044327523
0.0045597956
0.0046769324
0.0047846705
0.0048834018
0.0049736567
0.0050560323
0.0051310501
0.005199308
0.0052613845
0.0053177088
0.0053709638
0.0054048781
8.9265048e-06
8.7930693e-06
8.6597286e-06
8.5265178e-06
8.3934645e-06
8.2605806e-06
8.1278792e-06
7.995387e-06
7.8631441e-06
7.7312004e-06
7.5996099e-06
7.4684266e-06
7.3377042e-06
7.2074967e-06
7.0778584e-06
6.9488445e-06
6.8205111e-06
6.6929164e-06
6.5661202e-06
6.4401854e-06
6.3151784e-06
6.1911699e-06
6.0682357e-06
5.946458e-06
5.8259264e-06
5.7067391e-06
5.5890039e-06
5.4728401e-06
5.3583792e-06
5.2457672e-06
5.1351658e-06
5.026755e-06
4.9207358e-06
4.8173327e-06
4.716799e-06
4.619423e-06
4.5255352e-06
4.4355188e-06
4.3498252e-06
4.2689954e-06
4.1936879e-06
4.1247163e-06
4.063107e-06
4.0101817e-06
3.9676754e-06
3.9379228e-06
3.9241349e-06
3.9308185e-06
3.9644944e-06
4.0347337e-06
4.1556762e-06
4.3487031e-06
4.6467716e-06
5.1012335e-06
5.7926497e-06
6.8490122e-06
8.474211e-06
1.0991086e-05
1.4899914e-05
2.0952261e-05
3.0234552e-05
4.4242506e-05
6.4908756e-05
9.458022e-05
0.00013588856
0.00019154396
0.00026403715
0.00035525077
0.00046625914
0.0005970899
0.00074641908
0.00091230641
0.0010919508
0.0012816568
0.0014792237
0.0016809214
0.0018840345
0.0020888883
0.0022925235
0.002494574
0.0026959446
0.0028971677
0.0030955196
0.0032893484
0.0034774239
0.0036588078
0.0038305637
0.0039929555
0.0041456338
0.0042880057
0.0044204509
0.0045429865
0.004656022
0.0047600591
0.0048555313
0.0049430213
0.0050231846
0.0050963896
0.0051657775
0.0052148165
8.9266384e-06
8.7930908e-06
8.6596281e-06
8.5262992e-06
8.3931426e-06
8.2601805e-06
8.1274335e-06
7.9949308e-06
7.8627112e-06
7.7308215e-06
7.5993121e-06
7.4682346e-06
7.3376405e-06
7.2075811e-06
7.0781079e-06
6.9492722e-06
6.8211248e-06
6.6937165e-06
6.567098e-06
6.4413197e-06
6.3164323e-06
6.1924867e-06
6.0695345e-06
5.9476281e-06
5.8268218e-06
5.7071715e-06
5.588736e-06
5.4715771e-06
5.3557611e-06
5.2413592e-06
5.1284484e-06
5.017113e-06
4.9074454e-06
4.7995479e-06
4.6935342e-06
4.5895315e-06
4.4876833e-06
4.3881525e-06
4.2911259e-06
4.1968204e-06
4.1054912e-06
4.0174422e-06
3.9330427e-06
3.8527507e-06
3.7771444e-06
3.7069738e-06
3.6432399e-06
3.5873093e-06
3.5411033e-06
3.5073901e-06
3.4902306e-06
3.4957053e-06
3.5331567e-06
3.6171566e-06
3.7706329e-06
4.0304217e-06
4.4566341e-06
5.1467376e-06
6.2582025e-06
8.0419565e-06
1.0889573e-05
1.5394547e-05
2.2423488e-05
3.3189385e-05
4.9310164e-05
7.2811441e-05
0.00010607037
0.00015167861
0.00021222072
0.00028999687
0.000386629
0.00050290021
0.00063851415
0.00079185606
0.000960885
0.0011424798
0.0013332601
0.0015312539
0.0017318668
0.0019339765
0.0021373295
0.0023388621
0.0025390116
0.0027391541
0.0029380627
0.0031333616
0.0033235901
0.0035075898
0.0036836737
0.003850071
0.0040071578
0.0041540914
0.0042910877
0.0044183702
0.004536122
0.0046448466
0.0047451526
0.0048373108
0.0049249617
0.0049914063
8.9268565e-06
8.7932226e-06
8.6596607e-06
8.5262291e-06
8.3929745e-06
8.2599276e-06
8.1271156e-06
7.9945707e-06
7.862332e-06
7.7304445e-06
7.5989567e-06
7.4679187e-06
7.3373812e-06
7.207395e-06
7.0780109e-06
6.9492798e-06
6.8212517e-06
6.6939765e-06
6.567503e-06
6.4418795e-06
6.3171533e-06
6.1933707e-06
6.0705773e-06
5.9488178e-06
5.8281361e-06
5.7085755e-06
5.5901791e-06
5.4729897e-06
5.3570504e-06
5.2424048e-06
5.1290976e-06
5.0171747e-06
4.9066847e-06
4.7976784e-06
4.6902104e-06
4.5843397e-06
4.4801307e-06
4.3776547e-06
4.276991e-06
4.1782292e-06
4.0814714e-06
3.9868359e-06
3.8944611e-06
3.8045126e-06
3.7171917e-06
3.6327494e-06
3.551508e-06
3.4738927e-06
3.4004814e-06
3.3320832e-06
3.2698617e-06
3.2155307e-06
3.1716819e-06
3.1423258e-06
3.1337765e-06
3.1561764e-06
3.2262256e-06
3.3713281e-06
3.6367032e-06
4.0970056e-06
4.8736463e-06
6.1607716e-06
8.262922e-06
1.1645891e-05
1.7000852e-05
2.5314208e-05
3.7933873e-05
5.661803e-05
8.350545e-05
0.00012105152
0.0001718575
0.00023842803
0.00032287626
0.00042651492
0.00054977218
0.00069185444
0.00085082289
0.0010244991
0.0012091558
0.0014019093
0.0016005803
0.0018003728
0.0020015321
0.0022025128
0.0024021157
0.0026000563
0.0027986164
0.0029944686
0.0031859726
0.0033717394
0.0035508045
0.0037205049
0.0038809748
0.0040318456
0.0041727791
0.0043041141
0.0044261826
0.0045391147
0.0046469818
0.0047331532
8.9271467e-06
8.7934484e-06
8.6598085e-06
8.5262915e-06
8.3929501e-06
8.259822e-06
8.1269403e-06
7.9943404e-06
7.8620621e-06
7.7301497e-06
7.5986505e-06
7.4676136e-06
7.3370889e-06
7.2071269e-06
7.0777783e-06
6.9490937e-06
6.8211233e-06
6.6939169e-06
6.5675234e-06
6.4419909e-06
6.3173663e-06
6.1936956e-06
6.0710233e-06
5.9493926e-06
5.8288454e-06
5.7094223e-06
5.5911624e-06
5.4741035e-06
5.3582821e-06
5.2437336e-06
5.1304924e-06
5.0185921e-06
4.9080656e-06
4.7989456e-06
4.6912647e-06
4.5850561e-06
4.4803534e-06
4.3771921e-06
4.2756092e-06
4.1756445e-06
4.0773414e-06
3.9807478e-06
3.8859176e-06
3.7929127e-06
3.7018053e-06
3.612682e-06
3.5256493e-06
3.4408426e-06
3.3584392e-06
3.2786793e-06
3.2018986e-06
3.1285803e-06
3.0594403e-06
2.9955691e-06
2.9386683e-06
2.8914548e-06
2.8583776e-06
2.846797e-06
2.8689898e-06
2.9456144e-06
3.1111317e-06
3.4224522e-06
3.9730033e-06
4.9127816e-06
6.4786986e-06
9.0367428e-06
1.3138491e-05
1.9590355e-05
2.9522535e-05
4.4453231e-05
6.6323011e-05
9.7424733e-05
0.00014033315
0.00019766992
0.00027184766
0.00036470665
0.00047714779
0.00060914257
0.00075918596
0.00092498379
0.0011040095
0.0012921332
0.0014870738
0.0016852033
0.0018844354
0.0020843921
0.0022828236
0.0024799515
0.002676604
0.0028721586
0.003064135
0.003251011
0.0034316907
0.0036043368
0.003767613
0.003921697
0.0040661928
0.0042010823
0.004330596
0.0044386166
8.9274975e-06
8.7937524e-06
8.6600527e-06
8.5264664e-06
8.3930507e-06
8.2598493e-06
8.1269001e-06
7.9942417e-06
7.8619155e-06
7.7299654e-06
7.5984381e-06
7.4673821e-06
7.3368466e-06
7.2068819e-06
7.0775382e-06
6.9488661e-06
6.8209158e-06
6.693737e-06
6.5673787e-06
6.4418891e-06
6.3173154e-06
6.1937036e-06
6.0710983e-06
5.9495429e-06
5.829079e-06
5.7097469e-06
5.5915852e-06
5.4746309e-06
5.3589192e-06
5.2444838e-06
5.1313566e-06
5.0195678e-06
4.9091462e-06
4.800119e-06
4.6925122e-06
4.5863504e-06
4.4816572e-06
4.3784553e-06
4.276767e-06
4.176614e-06
4.0780182e-06
3.9810019e-06
3.8855881e-06
3.7918017e-06
3.6996695e-06
3.6092221e-06
3.5204948e-06
3.4335306e-06
3.3483836e-06
3.2651244e-06
3.183849e-06
3.1046922e-06
3.0278496e-06
2.9536139e-06
2.882436e-06
2.8150279e-06
2.7525466e-06
2.6969027e-06
2.6512958e-06
2.6211477e-06
2.6156653e-06
2.6504097e-06
2.7516807e-06
2.9631098e-06
3.3563091e-06
4.0476188e-06
5.2217632e-06
7.1680661e-06
1.0329499e-05
1.5367392e-05
2.3237508e-05
3.5258189e-05
5.317133e-05
7.9141079e-05
0.0001156636
0.00016543767
0.00023106657
0.00031479392
0.00041800929
0.00054102656
0.00068313873
0.00084205698
0.0010152212
0.0011991265
0.0013905288
0.0015871837
0.0017843639
0.0019825464
0.0021798341
0.0023759123
0.002570702
0.0027654214
0.0029572894
0.0031448323
0.0033266702
0.0035015292
0.0036673142
0.0038240864
0.003975659
0.0041070061
8.9278986e-06
8.7941209e-06
8.660376e-06
8.5267343e-06
8.3932563e-06
8.2599903e-06
8.1269785e-06
7.9942629e-06
7.8618862e-06
7.7298929e-06
7.5983296e-06
7.4672442e-06
7.3366857e-06
7.2067039e-06
7.0773489e-06
6.9486708e-06
6.8207198e-06
6.6935455e-06
6.567197e-06
6.4417224e-06
6.3171689e-06
6.1935826e-06
6.0710084e-06
5.9494895e-06
5.8290681e-06
5.7097844e-06
5.5916772e-06
5.4747835e-06
5.3591385e-06
5.2447758e-06
5.131727e-06
5.0200219e-06
4.9096884e-06
4.8007527e-06
4.6932391e-06
4.58717e-06
4.4825664e-06
4.3794474e-06
4.2778307e-06
4.1777324e-06
4.0791674e-06
3.9821495e-06
3.8866914e-06
3.7928052e-06
3.7005025e-06
3.6097946e-06
3.5206936e-06
3.4332124e-06
3.3473664e-06
3.2631744e-06
3.1806616e-06
3.0998627e-06