/*--------------------------------*- C++ -*----------------------------------*\
| =========                 |                                                 |
| \\      /  F ield         | OpenFOAM: The Open Source CFD Toolbox           |
|  \\    /   O peration     | Version:  2206                                  |
|   \\  /    A nd           | Website:  www.openfoam.com                      |
|    \\/     M anipulation  |                                                 |
\*---------------------------------------------------------------------------*/
FoamFile
{
    version     2.0;
    format      ascii;
    arch        "LSB;label=32;scalar=64";
    class       volScalarField;
    location    "1400";
    object      nut;
}
// * * * * * * * * * * * * * * * * * * * * * * * * * * * * * * * * * * * * * //

dimensions      [0 2 -1 0 0 0 0];

internalField   nonuniform List<scalar> 
7480
(
1.5120679e-06
1.8587303e-06
1.5441411e-06
1.0161351e-06
6.0456286e-07
3.709203e-07
2.5856945e-07
2.0378188e-07
1.7340225e-07
1.5361542e-07
1.3832702e-07
1.252122e-07
1.13784e-07
1.0389459e-07
9.5317949e-08
8.7846182e-08
8.1318651e-08
7.5584171e-08
7.0482827e-08
6.591098e-08
6.1805884e-08
5.8099633e-08
5.4729894e-08
5.1657333e-08
4.8850806e-08
4.6276631e-08
4.3904882e-08
4.1716523e-08
3.9696496e-08
3.7827586e-08
3.6094801e-08
3.4488357e-08
3.2999651e-08
3.1619077e-08
3.0338575e-08
2.9152668e-08
2.8056361e-08
2.7044768e-08
2.6114577e-08
2.5264127e-08
2.4492033e-08
2.3796857e-08
2.3178641e-08
2.2637281e-08
2.2173561e-08
2.1799702e-08
2.1505096e-08
2.1305689e-08
2.1199964e-08
2.1185023e-08
2.1257779e-08
2.1414317e-08
2.1646401e-08
2.1938984e-08
2.227734e-08
2.2651313e-08
2.3038523e-08
2.3405701e-08
2.37213e-08
2.3959383e-08
2.4119708e-08
2.4202866e-08
2.4216197e-08
2.4169964e-08
2.4077095e-08
2.3949374e-08
2.3797198e-08
2.3628884e-08
2.3450399e-08
2.3266171e-08
2.3079563e-08
2.2892563e-08
2.2706433e-08
2.2522506e-08
2.2341116e-08
2.2162452e-08
2.1986583e-08
2.1806245e-08
2.1622063e-08
2.1436219e-08
2.1249594e-08
2.106263e-08
2.0874604e-08
2.068524e-08
2.0494481e-08
2.0302294e-08
2.0108984e-08
1.9914631e-08
1.9719678e-08
1.9524269e-08
1.9328704e-08
1.9133115e-08
1.8937939e-08
1.874209e-08
1.8548799e-08
1.8346348e-08
1.816936e-08
1.7915545e-08
1.7772485e-08
1.7384588e-08
1.4111393e-06
1.6301262e-06
1.5385353e-06
1.2880761e-06
1.0362153e-06
8.1132157e-07
6.4380094e-07
5.1800796e-07
4.2144556e-07
3.467744e-07
2.8965759e-07
2.4638168e-07
2.1351762e-07
1.8822244e-07
1.6834314e-07
1.5235625e-07
1.3922e-07
1.2820095e-07
1.1879642e-07
1.1067338e-07
1.0360463e-07
9.7413923e-08
9.1967296e-08
8.7166369e-08
8.2839988e-08
7.890776e-08
7.5326055e-08
7.207302e-08
6.9135329e-08
6.6501126e-08
6.4162817e-08
6.2117976e-08
6.0365394e-08
5.8903948e-08
5.7735173e-08
5.6863798e-08
5.6296787e-08
5.6046244e-08
5.6132577e-08
5.6584988e-08
5.7440363e-08
5.8743882e-08
6.0551165e-08
6.2926815e-08
6.5951985e-08
6.9708907e-08
7.4257701e-08
7.964961e-08
8.5897922e-08
9.299562e-08
1.0091432e-07
1.0965073e-07
1.1901353e-07
1.287809e-07
1.3873853e-07
1.4856707e-07
1.5779394e-07
1.6599204e-07
1.7290236e-07
1.7849356e-07
1.8288136e-07
1.8625997e-07
1.8882021e-07
1.9063254e-07
1.918611e-07
1.926505e-07
1.9311471e-07
1.9333726e-07
1.9337911e-07
1.932846e-07
1.9308435e-07
1.9279707e-07
1.9243989e-07
1.9202602e-07
1.9156017e-07
1.9104312e-07
1.9045966e-07
1.8965726e-07
1.8870093e-07
1.8764326e-07
1.8650124e-07
1.8527963e-07
1.8397995e-07
1.8260778e-07
1.8116815e-07
1.7966868e-07
1.7811681e-07
1.7652006e-07
1.7488665e-07
1.7322323e-07
1.7153656e-07
1.6983259e-07
1.6811712e-07
1.6639385e-07
1.6466518e-07
1.6293202e-07
1.6121774e-07
1.5926698e-07
1.5789965e-07
1.5464912e-07
1.1014074e-06
1.404802e-06
1.4358661e-06
1.3409945e-06
1.207646e-06
1.0741232e-06
9.6692839e-07
8.8446423e-07
8.2035436e-07
7.6807896e-07
7.238982e-07
6.7963642e-07
6.3731871e-07
6.0218827e-07
5.724595e-07
5.4692244e-07
5.248936e-07
5.0588135e-07
4.8952624e-07
4.7559082e-07
4.6391139e-07
4.5435016e-07
4.4680904e-07
4.4119111e-07
4.335918e-07
4.2645628e-07
4.1995535e-07
4.142977e-07
4.0968912e-07
4.0632757e-07
4.0442446e-07
4.0419968e-07
4.0586604e-07
4.0963731e-07
4.1574267e-07
4.24423e-07
4.3593985e-07
4.5062787e-07
4.6892011e-07
4.913506e-07
5.1855261e-07
5.5127203e-07
5.9038098e-07
6.3687183e-07
6.9194208e-07
7.56657e-07
8.3191288e-07
9.1822034e-07
1.0156696e-06
1.1240369e-06
1.2423244e-06
1.3697154e-06
1.504296e-06
1.6431103e-06
1.7832368e-06
1.9203348e-06
2.0484955e-06
2.1626705e-06
2.2600743e-06
2.3406237e-06
2.4059403e-06
2.4587142e-06
2.4999332e-06
2.5316665e-06
2.556199e-06
2.5753202e-06
2.5903913e-06
2.6023841e-06
2.6119976e-06
2.6197344e-06
2.6259323e-06
2.6307917e-06
2.6345114e-06
2.6372395e-06
2.6390214e-06
2.6398561e-06
2.639521e-06
2.6357392e-06
2.6296025e-06
2.6218712e-06
2.6127773e-06
2.6023867e-06
2.5907341e-06
2.5779109e-06
2.5639947e-06
2.5490996e-06
2.5333304e-06
2.5167948e-06
2.4996058e-06
2.4818569e-06
2.4636421e-06
2.4450467e-06
2.4261477e-06
2.4070228e-06
2.3876426e-06
2.3682639e-06
2.3485442e-06
2.3265952e-06
2.3111998e-06
2.2731421e-06
5.0847642e-07
9.5916583e-07
1.1798111e-06
1.228477e-06
1.2004238e-06
1.1429015e-06
1.0804022e-06
1.021352e-06
9.6988255e-07
9.3007669e-07
9.061168e-07
9.0232717e-07
9.057283e-07
8.5762593e-07
8.219213e-07
7.9450609e-07
7.745027e-07
7.600083e-07
7.499976e-07
7.4383488e-07
7.4111791e-07
7.4156095e-07
7.4499524e-07
7.5126141e-07
7.5983036e-07
7.7018875e-07
7.8220226e-07
7.9608889e-07
8.1223947e-07
8.3113262e-07
8.5331764e-07
8.7941012e-07
9.1008274e-07
9.4606746e-07
9.8816242e-07
1.0372237e-06
1.0942203e-06
1.160425e-06
1.2374289e-06
1.3271293e-06
1.4317255e-06
1.5537389e-06
1.6960409e-06
1.8618539e-06
2.0548079e-06
2.2782136e-06
2.5343442e-06
2.8248774e-06
3.1502559e-06
3.5098991e-06
3.9018497e-06
4.3201736e-06
4.7615548e-06
5.2182909e-06
5.6819378e-06
6.1408479e-06
6.5799004e-06
6.9851626e-06
7.3475948e-06
7.6643737e-06
7.9380326e-06
8.1724602e-06
8.3702777e-06
8.5384611e-06
8.6834333e-06
8.8104902e-06
8.923783e-06
9.0263618e-06
9.120408e-06
9.207461e-06
9.2885512e-06
9.3642775e-06
9.4351527e-06
9.5015719e-06
9.5636387e-06
9.6212838e-06
9.6740268e-06
9.7002481e-06
9.7153822e-06
9.7242524e-06
9.7275803e-06
9.7256299e-06
9.7185649e-06
9.7067128e-06
9.690377e-06
9.6699616e-06
9.6458436e-06
9.6184017e-06
9.5880298e-06
9.5550591e-06
9.5198107e-06
9.4825939e-06
9.4436729e-06
9.4033565e-06
9.3614928e-06
9.3192473e-06
9.274657e-06
9.2241937e-06
9.1898102e-06
9.0978541e-06
2.2507473e-07
4.2726068e-07
6.9863847e-07
8.9331107e-07
9.8968505e-07
1.0235119e-06
1.0250322e-06
1.0107426e-06
9.8911149e-07
9.6534551e-07
9.4375633e-07
9.2874578e-07
9.2199214e-07
9.2303367e-07
9.3199244e-07
9.4896819e-07
9.6927365e-07
9.5328356e-07
9.2966435e-07
9.1682154e-07
9.1364028e-07
9.1847263e-07
9.3039977e-07
9.4879467e-07
9.7329782e-07
1.0037412e-06
1.0384612e-06
1.0775164e-06
1.1214493e-06
1.1707925e-06
1.2261491e-06
1.2882534e-06
1.3580156e-06
1.4365574e-06
1.5252442e-06
1.6256898e-06
1.7395328e-06
1.8684064e-06
2.0150685e-06
2.1828497e-06
2.3755511e-06
2.5974472e-06
2.8533208e-06
3.1484975e-06
3.4887636e-06
3.8789998e-06
4.3212892e-06
4.8167459e-06
5.3661151e-06
5.9692309e-06
6.6244013e-06
7.3265984e-06
8.0664615e-06
8.834339e-06
9.6195603e-06
1.0408323e-05
1.1176826e-05
1.1901832e-05
1.2568602e-05
1.3171153e-05
1.3708223e-05
1.4182484e-05
1.4600241e-05
1.4969895e-05
1.5300041e-05
1.5598346e-05
1.5871269e-05
1.6123882e-05
1.6359978e-05
1.6582318e-05
1.6792732e-05
1.6992183e-05
1.7181835e-05
1.7362455e-05
1.7534208e-05
1.7696896e-05
1.7849652e-05
1.7986677e-05
1.8107925e-05
1.8214919e-05
1.8308729e-05
1.8389956e-05
1.8458946e-05
1.8516276e-05
1.8562586e-05
1.8598682e-05
1.8625389e-05
1.8643523e-05
1.8653947e-05
1.8657424e-05
1.8654613e-05
1.8646244e-05
1.863296e-05
1.8615416e-05
1.8593647e-05
1.8569275e-05
1.8540796e-05
1.8499757e-05
1.8478758e-05
1.8401845e-05
1.7530498e-07
2.1588384e-07
3.1856302e-07
4.6493788e-07
6.0523513e-07
7.1031785e-07
7.7985572e-07
8.2289816e-07
8.480085e-07
8.6126879e-07
8.6696516e-07
8.6868052e-07
8.6921662e-07
8.7060467e-07
8.7460529e-07
8.8289682e-07
8.9632097e-07
9.1552124e-07
9.4160323e-07
9.7582843e-07
1.0156251e-06
1.0618194e-06
1.0570591e-06
1.056268e-06
1.0671061e-06
1.0882637e-06
1.119717e-06
1.1617741e-06
1.2149194e-06
1.2798602e-06
1.3575662e-06
1.4493672e-06
1.55719e-06
1.6840623e-06
1.8350578e-06
2.0182073e-06
2.2360001e-06
2.4752e-06
2.7407923e-06
3.0384538e-06
3.3739761e-06
3.7534705e-06
4.1836824e-06
4.6724964e-06
5.2299173e-06
5.8552496e-06
6.5391665e-06
7.2795861e-06
8.0782399e-06
8.9362627e-06
9.8526779e-06
1.0822911e-05
1.1837139e-05
1.2881977e-05
1.3946173e-05
1.4997604e-05
1.6005434e-05
1.6954404e-05
1.783799e-05
1.865565e-05
1.9409582e-05
2.010286e-05
2.0740161e-05
2.1327714e-05
2.1872146e-05
2.2379912e-05
2.2857118e-05
2.3308931e-05
2.3739386e-05
2.4151621e-05
2.454672e-05
2.492424e-05
2.5289005e-05
2.5641723e-05
2.5982191e-05
2.6309712e-05
2.6622593e-05
2.6919008e-05
2.7195755e-05
2.7451439e-05
2.7685973e-05
2.7899609e-05
2.8092562e-05
2.8265397e-05
2.8418898e-05
2.8554135e-05
2.8672297e-05
2.8774612e-05
2.8862429e-05
2.8937005e-05
2.8998807e-05
2.9049576e-05
2.9090568e-05
2.9122832e-05
2.914681e-05
2.9164186e-05
2.917519e-05
2.9164928e-05
2.9174856e-05
2.9133612e-05
1.6890569e-07
1.7480048e-07
1.962238e-07
2.4158504e-07
3.0835137e-07
3.8392203e-07
4.5671156e-07
5.2094059e-07
5.7519316e-07
6.199383e-07
6.5622599e-07
6.8539134e-07
7.0890547e-07
7.2821836e-07
7.447848e-07
7.6008249e-07
7.7544849e-07
7.9212087e-07
8.1143275e-07
8.3488497e-07
8.6343538e-07
8.984438e-07
9.404964e-07
9.8985405e-07
1.0450226e-06
1.1061502e-06
1.1741882e-06
1.2083667e-06
1.2333149e-06
1.2729591e-06
1.3285862e-06
1.4020867e-06
1.4959268e-06
1.6131202e-06
1.7575993e-06
1.9348604e-06
2.1514594e-06
2.4125288e-06
2.7238951e-06
3.0927565e-06
3.5277265e-06
4.0392217e-06
4.640655e-06
5.3514502e-06
6.2042514e-06
6.9693097e-06
7.8047297e-06
8.7622848e-06
9.839621e-06
1.1030475e-05
1.2322013e-05
1.3690862e-05
1.5103702e-05
1.656389e-05
1.8073455e-05
1.9177981e-05
2.0095546e-05
2.1003402e-05
2.1904526e-05
2.279791e-05
2.3678462e-05
2.4541162e-05
2.5382387e-05
2.6199582e-05
2.6991192e-05
2.7757726e-05
2.8500982e-05
2.9222579e-05
2.9924105e-05
3.0607315e-05
3.1273453e-05
3.192279e-05
3.2555809e-05
3.3172588e-05
3.3772314e-05
3.4353677e-05
3.4914226e-05
3.5452232e-05
3.5964633e-05
3.6448505e-05
3.6902191e-05
3.7325006e-05
3.7716703e-05
3.8077624e-05
3.8408541e-05
3.8710669e-05
3.8985468e-05
3.923454e-05
3.9459736e-05
3.9662858e-05
3.9845615e-05
4.0009757e-05
4.0156927e-05
4.0288621e-05
4.040594e-05
4.0510325e-05
4.0604696e-05
4.0668182e-05
4.0744819e-05
4.0789844e-05
1.6818088e-07
1.6866152e-07
1.7195716e-07
1.812585e-07
1.9895056e-07
2.2489445e-07
2.5727318e-07
2.9356819e-07
3.3180124e-07
3.7051493e-07
4.0854697e-07
4.449855e-07
4.7922798e-07
5.1095568e-07
5.4014642e-07
5.6706185e-07
5.9215837e-07
6.1601837e-07
6.3936745e-07
6.6309479e-07
6.8812722e-07
7.1552619e-07
7.4637082e-07
7.8172996e-07
8.2236417e-07
8.6921615e-07
9.2359567e-07
9.8587676e-07
1.055895e-06
1.1348424e-06
1.2244236e-06
1.3267827e-06
1.4276596e-06
1.4948975e-06
1.5857218e-06
1.7048254e-06
1.8584838e-06
2.0547585e-06
2.3034225e-06
2.6161344e-06
3.0069433e-06
3.4927015e-06
4.0933627e-06
4.8323713e-06
5.738346e-06
6.7098071e-06
7.7076072e-06
8.817122e-06
1.0049811e-05
1.140581e-05
1.2869851e-05
1.440703e-05
1.5971826e-05
1.7626928e-05
1.939282e-05
2.0669707e-05
2.1768372e-05
2.2849645e-05
2.3924033e-05
2.5000095e-05
2.6080164e-05
2.7165118e-05
2.8250146e-05
2.9329856e-05
3.0400779e-05
3.1461713e-05
3.2511133e-05
3.3546868e-05
3.4568354e-05
3.557589e-05
3.6569048e-05
3.7547053e-05
3.8508974e-05
3.9453525e-05
4.0378422e-05
4.1281211e-05
4.2158443e-05
4.3007017e-05
4.3823834e-05
4.4605412e-05
4.5348753e-05
4.6051867e-05
4.6713612e-05
4.7333693e-05
4.7912541e-05
4.8451206e-05
4.8951116e-05
4.9414003e-05
4.9842052e-05
5.0237483e-05
5.0602708e-05
5.0939911e-05
5.1251172e-05
5.1538395e-05
5.1803465e-05
5.2047391e-05
5.2276012e-05
5.2464511e-05
5.2651972e-05
5.28452e-05
1.6814545e-07
1.678728e-07
1.6803215e-07
1.6934632e-07
1.7271254e-07
1.787709e-07
1.8775312e-07
1.9960468e-07
2.1418804e-07
2.3138628e-07
2.5106554e-07
2.7273274e-07
2.9591907e-07
3.2015176e-07
3.4499455e-07
3.7009764e-07
3.9521343e-07
4.2019555e-07
4.4502333e-07
4.6982314e-07
4.9484993e-07
5.2049124e-07
5.4726765e-07
5.7582548e-07
6.0686953e-07
6.412063e-07
6.798225e-07
7.2369375e-07
7.7371137e-07
8.3103563e-07
8.9721578e-07
9.7368369e-07
1.0619533e-06
1.1633865e-06
1.280193e-06
1.4152452e-06
1.572337e-06
1.7566113e-06
1.9284945e-06
2.1213979e-06
2.3731222e-06
2.7009988e-06
3.1275685e-06
3.682162e-06
4.4017884e-06
5.3211029e-06
6.2975273e-06
7.3655246e-06
8.5759418e-06
9.9380433e-06
1.1453472e-05
1.3111467e-05
1.4888179e-05
1.6777148e-05
1.8775048e-05
2.0624235e-05
2.1908986e-05
2.3189319e-05
2.4437684e-05
2.5674747e-05
2.6933052e-05
2.821696e-05
2.9508556e-05
3.080997e-05
3.2127242e-05
3.3455884e-05
3.4790285e-05
3.612712e-05
3.7465702e-05
3.8803878e-05
4.0137819e-05
4.1465436e-05
4.2784888e-05
4.4092775e-05
4.5384e-05
4.6654161e-05
4.7897975e-05
4.91102e-05
5.0286756e-05
5.1423511e-05
5.2516285e-05
5.3561763e-05
5.4557596e-05
5.5502369e-05
5.6395763e-05
5.7238254e-05
5.8030779e-05
5.8774815e-05
5.9472565e-05
6.0126388e-05
6.0738985e-05
6.1312952e-05
6.1850738e-05
6.2354559e-05
6.2827077e-05
6.3268766e-05
6.3688104e-05
6.405875e-05
6.440868e-05
6.4820134e-05
1.6818975e-07
1.6781404e-07
1.6749264e-07
1.6735551e-07
1.6761799e-07
1.6851573e-07
1.7024551e-07
1.7296139e-07
1.7680283e-07
1.8191013e-07
1.8841457e-07
1.9639506e-07
2.0588361e-07
2.1686299e-07
2.293472e-07
2.4328765e-07
2.5851421e-07
2.7486794e-07
2.9222086e-07
3.1048385e-07
3.2961619e-07
3.4963778e-07
3.7064148e-07
3.9280644e-07
4.1639619e-07
4.41768e-07
4.694013e-07
4.998874e-07
5.3390955e-07
5.7228875e-07
6.1605308e-07
6.6639491e-07
7.2469792e-07
7.9253466e-07
8.718609e-07
9.646403e-07
1.0736078e-06
1.2023526e-06
1.3546521e-06
1.5354117e-06
1.751631e-06
2.012672e-06
2.330747e-06
2.7214989e-06
3.1864959e-06
3.7660557e-06
4.519489e-06
5.3773807e-06
6.384636e-06
7.5557259e-06
8.9030168e-06
1.0432747e-05
1.214132e-05
1.4023416e-05
1.6074628e-05
1.8246054e-05
2.0452604e-05
2.2482901e-05
2.3872635e-05
2.5254672e-05
2.6659284e-05
2.807363e-05
2.9488094e-05
3.0934694e-05
3.2434061e-05
3.3955134e-05
3.5497791e-05
3.7071477e-05
3.8672554e-05
4.0293686e-05
4.1930414e-05
4.3582623e-05
4.5245685e-05
4.6913064e-05
4.8575959e-05
5.0227212e-05
5.1858283e-05
5.3461586e-05
5.5031363e-05
5.6561718e-05
5.8046931e-05
5.9482374e-05
6.0864053e-05
6.2188845e-05
6.3455183e-05
6.46624e-05
6.5810314e-05
6.6899613e-05
6.7931968e-05
6.8909415e-05
6.9834493e-05
7.0709886e-05
7.1538201e-05
7.2321784e-05
7.306393e-05
7.3764506e-05
7.4434069e-05
7.5046784e-05
7.5615802e-05
7.6319464e-05
1.6824329e-07
1.6785068e-07
1.6745948e-07
1.670883e-07
1.6677809e-07
1.6658682e-07
1.6657925e-07
1.6682271e-07
1.6739031e-07
1.6836401e-07
1.6983331e-07
1.7188906e-07
1.7461927e-07
1.7810433e-07
1.8242052e-07
1.8763498e-07
1.9379546e-07
2.0093279e-07
2.0906571e-07
2.1820695e-07
2.283965e-07
2.397188e-07
2.5219234e-07
2.658238e-07
2.8066469e-07
2.9682142e-07
3.1446429e-07
3.3384147e-07
3.5528556e-07
3.7922037e-07
4.0618719e-07
4.3686179e-07
4.7208097e-07
5.1287014e-07
5.6050633e-07
6.1649505e-07
6.8272175e-07
7.6161051e-07
8.5610373e-07
9.6955192e-07
1.1065462e-06
1.2731289e-06
1.4772616e-06
1.7293873e-06
2.0427242e-06
2.4337616e-06
2.9207221e-06
3.5195686e-06
4.2476219e-06
5.123409e-06
6.1660936e-06
7.3937122e-06
8.8203205e-06
1.0456031e-05
1.2308204e-05
1.4363954e-05
1.6579106e-05
1.889986e-05
2.1256319e-05
2.3633813e-05
2.5604786e-05
2.7112586e-05
2.8629849e-05
3.0182412e-05
3.1768597e-05
3.3371446e-05
3.5018206e-05
3.6741554e-05
3.8508295e-05
4.0313308e-05
4.2168236e-05
4.4074539e-05
4.6018123e-05
4.7989166e-05
4.9979884e-05
5.197936e-05
5.3975067e-05
5.5958582e-05
5.7921517e-05
5.9854314e-05
6.1749445e-05
6.3600419e-05
6.54005e-05
6.7144244e-05
6.8828097e-05
7.0449307e-05
7.2005878e-05
7.3496951e-05
7.4922785e-05
7.6284382e-05
7.7583527e-05
7.8822414e-05
8.0003477e-05
8.1128833e-05
8.2202141e-05
8.3222556e-05
8.4202061e-05
8.5116631e-05
8.5963389e-05
8.7033138e-05
1.68345e-07
1.6795283e-07
1.6755437e-07
1.6715097e-07
1.6674911e-07
1.6636025e-07
1.6600024e-07
1.6568869e-07
1.6544945e-07
1.6531141e-07
1.6530888e-07
1.6548127e-07
1.6587261e-07
1.6653056e-07
1.6750594e-07
1.6885202e-07
1.7062292e-07
1.7287195e-07
1.756509e-07
1.7901012e-07
1.8300105e-07
1.8767995e-07
1.9310162e-07
1.9931977e-07
2.0639208e-07
2.1438578e-07
2.2339011e-07
2.3356629e-07
2.4511749e-07
2.5820567e-07
2.7302874e-07
2.8987336e-07
3.0913142e-07
3.3131897e-07
3.5710939e-07
3.8734684e-07
4.2309273e-07
4.6570955e-07
5.1693561e-07
5.7893088e-07
6.5449762e-07
7.4732996e-07
8.6229391e-07
1.0057326e-06
1.1861565e-06
1.414722e-06
1.7053411e-06
2.0736975e-06
2.5373199e-06
3.1154966e-06
3.8291088e-06
4.7001401e-06
5.750613e-06
7.0018086e-06
8.4741148e-06
1.018053e-05
1.2116406e-05
1.4259458e-05
1.656565e-05
1.8999913e-05
2.1510067e-05
2.4053501e-05
2.6627792e-05
2.8804986e-05
3.0459507e-05
3.213289e-05
3.3854731e-05
3.5627409e-05
3.7435099e-05
3.930248e-05
4.1271206e-05
4.3314387e-05
4.5416998e-05
4.7586059e-05
4.9810415e-05
5.2072543e-05
5.4362179e-05
5.6671637e-05
5.8986339e-05
6.1292811e-05
6.3582596e-05
6.5845087e-05
6.8069501e-05
7.0248003e-05
7.2373878e-05
7.4440901e-05
7.6444413e-05
7.8380968e-05
8.024836e-05
8.204567e-05
8.3773108e-05
8.5431579e-05
8.7022706e-05
8.854787e-05
9.0010668e-05
9.1409291e-05
9.2756496e-05
9.4030576e-05
9.5213655e-05
9.6720081e-05
1.6852013e-07
1.6817102e-07
1.6780839e-07
1.6743179e-07
1.670426e-07
1.6664353e-07
1.6623863e-07
1.6583333e-07
1.6543444e-07
1.6505046e-07
1.6469193e-07
1.6437173e-07
1.6410542e-07
1.6391137e-07
1.6381086e-07
1.6382817e-07
1.6399052e-07
1.6432784e-07
1.6487247e-07
1.6565907e-07
1.6672461e-07
1.6810865e-07
1.698532e-07
1.7200269e-07
1.7460424e-07
1.777085e-07
1.8137225e-07
1.8566533e-07
1.9067353e-07
1.9649384e-07
2.0323994e-07
2.1105195e-07
2.201084e-07
2.3068316e-07
2.4315491e-07
2.5787453e-07
2.7527249e-07
2.9595214e-07
3.207314e-07
3.5069342e-07
3.8726089e-07
4.3231509e-07
4.8836905e-07
5.5879736e-07
6.4821458e-07
7.6296311e-07
9.1157898e-07
1.105039e-06
1.3572092e-06
1.6849654e-06
2.1081545e-06
2.649217e-06
3.332416e-06
4.1828765e-06
5.2260529e-06
6.4858431e-06
7.9798462e-06
9.7153649e-06
1.1684082e-05
1.3869584e-05
1.624085e-05
1.87596e-05
2.140031e-05
2.411991e-05
2.6879241e-05
2.9681871e-05
3.2157587e-05
3.3988393e-05
3.5842409e-05
3.7758247e-05
3.9740475e-05
4.1770201e-05
4.3879687e-05
4.6122583e-05
4.8444049e-05
5.0834742e-05
5.3307827e-05
5.5844083e-05
5.8420664e-05
6.102832e-05
6.3656448e-05
6.6286012e-05
6.8903957e-05
7.1500221e-05
7.4062586e-05
7.6580546e-05
7.9045913e-05
8.1451232e-05
8.3790791e-05
8.6060748e-05
8.8258552e-05
9.0382739e-05
9.2433139e-05
9.4409595e-05
9.6314911e-05
9.8145786e-05
9.9915e-05
0.00010160298
0.00010317983
0.0001051881
1.6867628e-07
1.6839167e-07
1.6809257e-07
1.677775e-07
1.6744638e-07
1.6709986e-07
1.6673926e-07
1.6636637e-07
1.6598325e-07
1.6559227e-07
1.6519623e-07
1.6479864e-07
1.6440394e-07
1.6401774e-07
1.6364702e-07
1.6330028e-07
1.6298775e-07
1.6272153e-07
1.6251565e-07
1.6238618e-07
1.6235135e-07
1.6243164e-07
1.6264983e-07
1.6303119e-07
1.6360351e-07
1.6439729e-07
1.6544626e-07
1.667885e-07
1.6846766e-07
1.7053372e-07
1.7304461e-07
1.760687e-07
1.7968799e-07
1.8400752e-07
1.8916516e-07
1.9532688e-07
2.0269538e-07
2.1152929e-07
2.2218201e-07
2.3520903e-07
2.5122107e-07
2.7092939e-07
2.9535607e-07
3.2594256e-07
3.6471852e-07
4.145387e-07
4.7941326e-07
5.6492647e-07
6.7881006e-07
8.3160579e-07
1.0373421e-06
1.3141049e-06
1.6844302e-06
2.1748408e-06
2.8146478e-06
3.633829e-06
4.659727e-06
5.9134966e-06
7.4071358e-06
9.1449098e-06
1.1121738e-05
1.3323459e-05
1.5733952e-05
1.8325925e-05
2.1064573e-05
2.3929718e-05
2.6887068e-05
2.9893926e-05
3.2958652e-05
3.5737216e-05
3.7769714e-05
3.9818768e-05
4.1937181e-05
4.413479e-05
4.6392173e-05
4.8760398e-05
5.1284217e-05
5.3895067e-05
5.6591507e-05
5.9383443e-05
6.2241323e-05
6.514121e-05
6.8076096e-05
7.1029106e-05
7.3980173e-05
7.6916519e-05
7.9824471e-05
8.2691317e-05
8.5507281e-05
8.8264273e-05
9.0955446e-05
9.3575642e-05
9.6121593e-05
9.8590376e-05
0.00010098285
0.00010329335
0.00010553365
0.00010768551
0.00010971146
0.00011227938
1.6876846e-07
1.6852879e-07
1.6827882e-07
1.6801673e-07
1.6774162e-07
1.6745309e-07
1.6715131e-07
1.6683683e-07
1.6651031e-07
1.6617239e-07
1.6582367e-07
1.6546483e-07
1.6509672e-07
1.6472053e-07
1.6433789e-07
1.6395097e-07
1.6356262e-07
1.6317649e-07
1.6279713e-07
1.6243016e-07
1.6208235e-07
1.617618e-07
1.6147804e-07
1.6124219e-07
1.610671e-07
1.6096746e-07
1.6096003e-07
1.6106394e-07
1.6130101e-07
1.6169618e-07
1.6227813e-07
1.630801e-07
1.6414082e-07
1.6550652e-07
1.6723387e-07
1.6939219e-07
1.7206635e-07
1.7536185e-07
1.7941408e-07
1.8440826e-07
1.9058129e-07
1.9823175e-07
2.077551e-07
2.197094e-07
2.3498555e-07
2.5462367e-07
2.8004191e-07
3.1337789e-07
3.5778653e-07
4.1786748e-07
5.0025398e-07
6.1444103e-07
7.7388243e-07
9.9718015e-07
1.3090188e-06
1.7401922e-06
2.325966e-06
3.101428e-06
4.0954004e-06
5.3266197e-06
6.8034816e-06
8.5266624e-06
1.0494266e-05
1.269981e-05
1.5129905e-05
1.777101e-05
2.0600757e-05
2.3585038e-05
2.6706735e-05
2.9936531e-05
3.3228124e-05
3.6592824e-05
3.9600146e-05
4.1821429e-05
4.4077607e-05
4.6420444e-05
4.8852408e-05
5.1352105e-05
5.4013532e-05
5.6840656e-05
5.9757953e-05
6.2781196e-05
6.5909132e-05
6.9103035e-05
7.2342845e-05
7.5617797e-05
7.8903006e-05
8.2182496e-05
8.5442219e-05
8.8667637e-05
9.1846429e-05
9.4968291e-05
9.8025434e-05
0.00010101049
0.00010392091
0.00010674739
0.00010949928
0.00011215839
0.00011468437
0.00011785977
1.6881474e-07
1.6859842e-07
1.6837548e-07
1.6814449e-07
1.6790449e-07
1.6765479e-07
1.6739511e-07
1.6712549e-07
1.6684614e-07
1.6655724e-07
1.6625886e-07
1.65951e-07
1.6563361e-07
1.6530667e-07
1.6497027e-07
1.6462458e-07
1.6427e-07
1.6390715e-07
1.6353697e-07
1.6316075e-07
1.6278026e-07
1.623978e-07
1.6201631e-07
1.6163947e-07
1.6127179e-07
1.6091877e-07
1.60587e-07
1.6028431e-07
1.6001995e-07
1.5980479e-07
1.5965158e-07
1.5957526e-07
1.5959331e-07
1.5972634e-07
1.5999887e-07
1.6044038e-07
1.6108639e-07
1.6198013e-07
1.6317514e-07
1.6473965e-07
1.6676085e-07
1.6934996e-07
1.726515e-07
1.7685884e-07
1.8224746e-07
1.891871e-07
1.9818358e-07
2.09962e-07
2.2569901e-07
2.4707177e-07
2.7632575e-07
3.1697656e-07
3.7443092e-07
4.5689207e-07
5.7662493e-07
7.5160632e-07
1.007242e-06
1.3770099e-06
1.9004701e-06
2.6175769e-06
3.5611621e-06
4.750948e-06
6.1943992e-06
7.8914985e-06
9.8393189e-06
1.2036366e-05
1.4479112e-05
1.7155962e-05
2.0055184e-05
2.3156991e-05
2.6426192e-05
2.9846946e-05
3.3386385e-05
3.6998425e-05
4.0696673e-05
4.3789958e-05
4.6220069e-05
4.8702224e-05
5.1291437e-05
5.397294e-05
5.6742359e-05
5.9729896e-05
6.2879201e-05
6.6136397e-05
6.9513472e-05
7.2992729e-05
7.6533576e-05
8.0126356e-05
8.37498e-05
8.7380173e-05
9.1000649e-05
9.4593776e-05
9.8146394e-05
0.00010164461
0.00010508122
0.00010844165
0.0001117309
0.00011492956
0.00011799643
0.00012181293
1.6883646e-07
1.686309e-07
1.6842079e-07
1.6820516e-07
1.6798326e-07
1.6775449e-07
1.6751849e-07
1.6727519e-07
1.6702467e-07
1.6676699e-07
1.6650218e-07
1.6623016e-07
1.6595076e-07
1.656638e-07
1.6536905e-07
1.650663e-07
1.6475536e-07
1.6443607e-07
1.6410834e-07
1.6377216e-07
1.6342768e-07
1.6307516e-07
1.6271509e-07
1.6234822e-07
1.619756e-07
1.6159865e-07
1.6121926e-07
1.6083983e-07
1.604634e-07
1.6009374e-07
1.5973548e-07
1.5939425e-07
1.5907688e-07
1.5879157e-07
1.585482e-07
1.5835865e-07
1.5823731e-07
1.5820155e-07
1.5827258e-07
1.5847664e-07
1.5884646e-07
1.5942318e-07
1.6025922e-07
1.6142255e-07
1.6300409e-07
1.6512642e-07
1.679569e-07
1.7172967e-07
1.767934e-07
1.8366242e-07
1.9307962e-07
2.0617071e-07
2.2480675e-07
2.5182554e-07
2.9141103e-07
3.5036646e-07
4.394871e-07
5.7534874e-07
7.822727e-07
1.0935351e-06
1.5503278e-06
2.1969847e-06
3.0722992e-06
4.2019588e-06
5.5961802e-06
7.2553477e-06
9.1775273e-06
1.1361485e-05
1.3808756e-05
1.6518806e-05
1.948041e-05
2.2681856e-05
2.6100733e-05
2.9699678e-05
3.3463639e-05
3.7345192e-05
4.1311346e-05
4.5376189e-05
4.8390722e-05
5.1039273e-05
5.3768297e-05
5.66207e-05
5.9562134e-05
6.2675542e-05
6.6009468e-05
6.9495142e-05
7.311522e-05
7.6868152e-05
8.0718533e-05
8.4634933e-05
8.8600087e-05
9.2585711e-05
9.6574302e-05
0.00010054322
0.00010448035
0.00010836366
0.00011219192
0.00011594344
0.00011957163
0.0001240422
1.6884598e-07
1.6864504e-07
1.6844053e-07
1.6823184e-07
1.6801843e-07
1.6779983e-07
1.6757575e-07
1.673461e-07
1.6711093e-07
1.6687033e-07
1.6662433e-07
1.6637292e-07
1.6611599e-07
1.6585342e-07
1.6558504e-07
1.6531064e-07
1.6503001e-07
1.6474292e-07
1.6444915e-07
1.6414847e-07
1.6384064e-07
1.6352549e-07
1.6320286e-07
1.6287264e-07
1.6253482e-07
1.6218948e-07
1.6183683e-07
1.6147726e-07
1.6111139e-07
1.6074008e-07
1.6036452e-07
1.599863e-07
1.596075e-07
1.5923073e-07
1.5885931e-07
1.5849739e-07
1.581501e-07
1.5782377e-07
1.5752623e-07
1.5726715e-07
1.5705852e-07
1.5691533e-07
1.5685639e-07
1.5690567e-07
1.5709414e-07
1.5746263e-07
1.5806585e-07
1.5897869e-07
1.6030744e-07
1.6220636e-07
1.6490097e-07
1.6872913e-07
1.7422377e-07
1.8222163e-07
1.9402673e-07
2.1175144e-07
2.3912655e-07
2.8174929e-07
3.4872483e-07
4.5457089e-07
6.212364e-07
8.7988209e-07
1.2710021e-06
1.841282e-06
2.6361887e-06
3.6901604e-06
5.0210583e-06
6.6326398e-06
8.5232202e-06
1.0693342e-05
1.3145414e-05
1.58839e-05
1.8908343e-05
2.220526e-05
2.5761357e-05
2.9544815e-05
3.351919e-05
3.7670536e-05
4.1925536e-05
4.6278441e-05
5.0563496e-05
5.3459201e-05
5.6339901e-05
5.9339945e-05
6.2464016e-05
6.5693653e-05
6.9203673e-05
7.2909648e-05
7.6787463e-05
8.0812005e-05
8.4964957e-05
8.9205669e-05
9.3514846e-05
9.7860774e-05
0.00010222645
0.00010658005
0.00011091276
0.00011519983
0.00011937604
0.00012448334
1.6884955e-07
1.6865037e-07
1.6844808e-07
1.6824228e-07
1.6803259e-07
1.6781866e-07
1.6760025e-07
1.6737729e-07
1.6714983e-07
1.6691795e-07
1.6668172e-07
1.6644116e-07
1.6619626e-07
1.6594695e-07
1.6569315e-07
1.6543475e-07
1.6517161e-07
1.649036e-07
1.6463055e-07
1.6435227e-07
1.6406859e-07
1.6377929e-07
1.6348417e-07
1.6318302e-07
1.6287562e-07
1.6256179e-07
1.6224135e-07
1.6191414e-07
1.6158009e-07
1.6123915e-07
1.6089139e-07
1.6053698e-07
1.6017627e-07
1.5980977e-07
1.5943824e-07
1.5906274e-07
1.586847e-07
1.5830598e-07
1.5792902e-07
1.5755692e-07
1.5719363e-07
1.5684416e-07
1.5651486e-07
1.5621381e-07
1.5595135e-07
1.5574092e-07
1.5560022e-07
1.5555301e-07
1.5563203e-07
1.5588361e-07
1.5637466e-07
1.5720403e-07
1.5852303e-07
1.6056813e-07
1.6371283e-07
1.6856168e-07
1.7614365e-07
1.8814026e-07
2.073498e-07
2.3866187e-07
2.8975636e-07
3.7284133e-07
5.0699524e-07
7.2021129e-07
1.0507024e-06
1.5455272e-06
2.2551335e-06
3.2238806e-06
4.4803365e-06
6.0359663e-06
7.8914313e-06
1.0046661e-05
1.2506287e-05
1.527584e-05
1.836123e-05
2.1757478e-05
2.5447243e-05
2.941463e-05
3.361112e-05
3.8005776e-05
4.2576488e-05
4.7235301e-05
5.200569e-05
5.5902587e-05
5.901558e-05
6.2167171e-05
6.5473813e-05
6.8884255e-05
7.2539513e-05
7.6451812e-05
8.0568666e-05
8.4866773e-05
8.931499e-05
9.3885382e-05
9.8549469e-05
0.00010326719
0.00010802058
0.00011278069
0.00011745099
0.00012312944
1.6885027e-07
1.6865155e-07
1.6844994e-07
1.6824515e-07
1.6803693e-07
1.67825e-07
1.6760918e-07
1.673894e-07
1.6716571e-07
1.6693818e-07
1.6670687e-07
1.6647185e-07
1.6623312e-07
1.6599069e-07
1.6574452e-07
1.6549458e-07
1.652408e-07
1.6498311e-07
1.6472142e-07
1.6445565e-07
1.6418567e-07
1.6391138e-07
1.6363263e-07
1.6334927e-07
1.6306116e-07
1.6276812e-07
1.6246997e-07
1.6216652e-07
1.618576e-07
1.6154302e-07
1.612226e-07
1.6089619e-07
1.6056366e-07
1.6022492e-07
1.5987996e-07
1.5952883e-07
1.5917171e-07
1.5880889e-07
1.5844088e-07
1.5806838e-07
1.576924e-07
1.5731429e-07
1.5693586e-07
1.5655952e-07
1.5618837e-07
1.5582651e-07
1.5547936e-07
1.5515412e-07
1.5486062e-07
1.5461252e-07
1.5442926e-07
1.5433915e-07
1.5438469e-07
1.5463136e-07
1.551822e-07
1.5620327e-07
1.5797185e-07
1.6095157e-07
1.6592521e-07
1.7425008e-07
1.8820822e-07
2.1161305e-07
2.5106166e-07
3.1677869e-07
4.2493043e-07
6.0008316e-07
8.771967e-07
1.3021168e-06
1.92826e-06
2.8084399e-06
3.984122e-06
5.4771457e-06
7.294183e-06
9.4355132e-06
1.1905253e-05
1.4711775e-05
1.7862095e-05
2.1361244e-05
2.5193757e-05
2.9337083e-05
3.3767094e-05
3.8420997e-05
4.327733e-05
4.8270874e-05
5.336921e-05
5.8451008e-05
6.1820461e-05
6.516825e-05
6.8626935e-05
7.2229503e-05
7.6025268e-05
8.0146069e-05
8.4481365e-05
8.9065644e-05
9.382833e-05
9.8741734e-05
0.0001037699
0.0001088806
0.00011395398
0.00012006278
1.6884968e-07
1.6865087e-07
1.6844924e-07
1.6824462e-07
1.6803682e-07
1.6782563e-07
1.676109e-07
1.6739258e-07
1.6717069e-07
1.6694529e-07
1.6671645e-07
1.6648423e-07
1.6624865e-07
1.6600974e-07
1.6576751e-07
1.6552194e-07
1.6527302e-07
1.6502073e-07
1.6476504e-07
1.645059e-07
1.6424326e-07
1.6397708e-07
1.6370729e-07
1.634338e-07
1.6315655e-07
1.6287542e-07
1.6259032e-07
1.6230113e-07
1.6200773e-07
1.6170996e-07
1.6140769e-07
1.6110076e-07
1.6078901e-07
1.6047227e-07
1.6015039e-07
1.5982322e-07
1.5949061e-07
1.5915248e-07
1.5880875e-07
1.5845942e-07
1.5810457e-07
1.5774438e-07
1.5737915e-07
1.5700938e-07
1.5663577e-07
1.5625932e-07
1.5588144e-07
1.5550402e-07
1.5512971e-07
1.5476223e-07
1.5440686e-07
1.5407131e-07
1.5376704e-07
1.535116e-07
1.5333243e-07
1.5327356e-07
1.5340773e-07
1.5385706e-07
1.5482915e-07
1.5668379e-07
1.6004231e-07
1.6597271e-07
1.7633758e-07
1.9425795e-07
2.2493775e-07
2.772438e-07
3.6471332e-07
5.0859964e-07
7.4035784e-07
1.1034181e-06
1.6523155e-06
2.4463864e-06
3.5389226e-06
4.9657648e-06
6.7419233e-06
8.8710332e-06
1.1355676e-05
1.4205792e-05
1.7430913e-05
2.1036129e-05
2.501986e-05
2.9353025e-05
3.400878e-05
3.8935681e-05
4.4086345e-05
4.9436223e-05
5.4877854e-05
6.0442887e-05
6.471916e-05
6.830482e-05
7.1945591e-05
7.5747004e-05
7.968724e-05
8.4021139e-05
8.8609933e-05
9.3484595e-05
9.8568631e-05