/*--------------------------------*- C++ -*----------------------------------*\
| =========                 |                                                 |
| \\      /  F ield         | OpenFOAM: The Open Source CFD Toolbox           |
|  \\    /   O peration     | Version:  2206                                  |
|   \\  /    A nd           | Website:  www.openfoam.com                      |
|    \\/     M anipulation  |                                                 |
\*---------------------------------------------------------------------------*/
FoamFile
{
    version     2.0;
    format      ascii;
    arch        "LSB;label=32;scalar=64";
    class       volScalarField;
    location    "1400";
    object      omega;
}
// * * * * * * * * * * * * * * * * * * * * * * * * * * * * * * * * * * * * * //

dimensions      [0 0 -1 0 0 0 0];

internalField   nonuniform List<scalar> 
7480
(
7569.102
7590.8102
7571.1076
7538.1527
7512.5637
7498.0757
7491.1189
7487.7286
7485.8494
7484.6256
7483.6802
7482.8693
7482.1628
7481.5514
7481.0213
7480.5594
7480.156
7479.8016
7479.4863
7479.2038
7478.9501
7478.7211
7478.5129
7478.3231
7478.1497
7477.9906
7477.8441
7477.7089
7477.5841
7477.4686
7477.3616
7477.2624
7477.1704
7477.0851
7477.006
7476.9328
7476.865
7476.8026
7476.7451
7476.6926
7476.6449
7476.6019
7476.5637
7476.5303
7476.5017
7476.4785
7476.4604
7476.4481
7476.4415
7476.4406
7476.4451
7476.4548
7476.4691
7476.4872
7476.5081
7476.5312
7476.5551
7476.5778
7476.5973
7476.612
7476.6219
7476.6271
7476.6279
7476.625
7476.6193
7476.6114
7476.602
7476.5916
7476.5806
7476.5692
7476.5577
7476.5461
7476.5346
7476.5233
7476.5121
7476.501
7476.4902
7476.479
7476.4676
7476.4562
7476.4446
7476.4331
7476.4215
7476.4098
7476.398
7476.3861
7476.3742
7476.3622
7476.3501
7476.3381
7476.326
7476.3139
7476.3019
7476.2898
7476.2778
7476.2653
7476.2544
7476.2387
7476.2299
7476.2059
1003.2443
1574.4086
1842.5096
1920.7988
1937.0506
1923.8819
1863.1766
1797.8199
1744.1938
1704.0028
1673.3598
1647.7018
1624.4816
1603.0697
1583.2768
1564.8943
1547.8471
1532.2254
1517.8689
1504.5615
1492.2103
1480.7915
1470.1979
1460.3163
1451.1011
1442.5254
1434.5179
1427.0099
1419.9704
1413.3756
1407.1836
1401.3588
1395.885
1390.7457
1385.9166
1381.3795
1377.1252
1373.1422
1369.4167
1365.9409
1362.713
1359.7304
1356.9902
1354.4964
1352.2398
1350.2356
1348.478
1346.9705
1345.7281
1344.743
1344.0363
1343.641
1343.452
1343.4368
1343.5577
1343.7765
1344.0507
1344.3193
1344.5265
1344.6216
1344.5794
1344.3987
1344.1239
1343.7471
1343.2673
1342.7075
1342.0895
1341.4338
1340.7562
1340.0685
1339.3796
1338.6962
1338.022
1337.3601
1336.7131
1336.0807
1335.4657
1334.8591
1334.2562
1333.6585
1333.0659
1332.4785
1331.8958
1331.3151
1330.7363
1330.1581
1329.5806
1329.0038
1328.4279
1327.8536
1327.2808
1326.7103
1326.1424
1325.5761
1325.0158
1324.4446
1323.8991
1323.3373
1322.6619
1322.0504
190.6666
396.63045
585.95641
709.20256
769.25177
785.37992
782.08775
789.21023
803.67906
812.84282
819.32664
823.5449
825.04462
824.14792
821.42036
817.40134
811.93896
805.28477
797.69722
789.39462
780.58927
771.48541
762.22673
752.91719
743.66158
734.55435
725.61146
716.83317
708.23559
699.84225
691.66756
683.72149
676.01763
668.56843
661.38112
654.46366
647.82577
641.46757
635.38628
629.58257
624.06251
618.83378
613.90394
609.28423
604.98117
600.9915
597.33525
593.97432
590.90245
588.11104
585.63716
583.48549
581.55041
579.79771
578.20236
576.71113
575.26222
573.81392
572.35868
570.89367
569.41412
567.90785
566.4565
565.01181
563.55591
562.0914
560.62446
559.16393
557.71815
556.29406
554.89714
553.53182
552.20126
550.90748
549.65231
548.43486
547.2559
546.13766
545.06366
544.02103
543.00312
542.00675
541.0301
540.06958
539.12323
538.18877
537.26495
536.35083
535.44554
534.54908
533.66068
532.78041
531.9084
531.04299
530.18816
529.32738
528.49309
527.65592
526.73775
525.6495
72.00281
121.36408
193.99418
267.72219
324.62255
359.73305
377.80333
386.77804
392.44904
397.56596
404.51666
415.22593
426.20805
437.93238
452.27974
470.55137
485.14207
496.53358
505.30363
511.86241
516.5341
519.61037
521.35039
522.02367
521.94602
521.36367
520.0057
517.82024
514.89528
511.35502
507.31862
502.88988
498.15966
493.2084
488.11069
482.94088
477.74656
472.51076
467.2331
461.93072
456.62987
451.35821
446.14112
441.00302
435.97163
431.0385
426.19241
421.3897
416.62268
411.89973
407.24305
402.7517
398.32701
393.98051
389.74765
385.58341
381.45245
377.39892
373.51008
369.85402
366.45004
363.31539
360.48469
357.88284
355.46027
353.18148
351.01943
348.95531
346.97628
345.07358
343.24116
341.47543
339.7743
338.13541
336.55714
335.03691
333.57385
332.19314
330.88705
329.64001
328.44183
327.28703
326.17286
325.09552
324.05212
323.03938
322.0546
321.09543
320.15949
319.24526
318.35083
317.47499
316.61655
315.77356
314.94733
314.12808
313.32534
312.57313
311.71978
310.75919
55.641837
64.532246
83.910419
111.34882
140.42055
165.52761
184.58223
198.13099
207.74171
214.78824
220.42069
225.66365
230.96033
236.83253
244.10001
253.54847
263.34623
273.15041
282.74682
292.00489
300.83119
309.30603
317.7229
326.71519
337.34798
349.83585
359.69445
366.92517
372.20626
375.98793
378.57642
380.19286
381.01567
381.21251
380.97429
380.51242
379.80482
378.45931
376.47218
373.92828
370.92287
367.5385
363.84309
359.898
355.77671
351.47963
346.94202
342.14276
337.10796
331.88301
326.51663
321.06912
315.61378
310.16047
304.74532
299.3225
293.91752
288.65327
283.64938
278.98488
274.7228
270.87776
267.40934
264.26097
261.37898
258.71686
256.23505
253.90246
251.69541
249.59614
247.59183
245.67445
243.83676
242.07293
240.37893
238.75089
237.18777
235.69243
234.26768
232.90947
231.61204
230.37094
229.18354
228.04656
226.95707
225.91171
224.90725
223.94064
223.0087
222.10895
221.23898
220.39656
219.57947
218.78545
218.01399
217.25966
216.51947
215.85066
215.10121
214.28289
53.509721
54.437277
58.088134
65.265267
75.158022
86.041382
96.433739
105.64104
113.54104
120.26057
125.96617
130.87242
135.18405
139.11308
142.94227
147.0106
151.4192
156.27031
161.70992
167.81843
174.15715
180.72462
187.52648
194.61489
202.102
210.07123
218.05344
225.69093
232.80953
239.34824
245.32064
250.80628
255.97617
261.16042
266.96919
274.12266
281.53553
286.10505
288.75102
290.08038
290.44717
290.0685
289.0971
287.67918
285.99481
284.19317
281.82798
278.80487
275.2251
271.19673
266.81986
262.19265
257.41547
252.51981
247.55796
242.60239
237.70766
232.95721
228.43147
224.18137
220.22798
216.57843
213.21569
210.11153
207.23609
204.55902
202.05126
199.68867
197.45108
195.32196
193.28872
191.34313
189.47776
187.68668
185.96564
184.31071
182.72098
181.19137
179.72332
178.31841
176.97572
175.69328
174.46947
173.30186
172.188
171.12492
170.10953
169.13873
168.20918
167.31798
166.46237
165.63971
164.84743
164.08307
163.34525
162.6305
161.93221
161.30309
160.63126
159.88997
53.224261
52.808684
52.959036
54.08513
56.273143
59.363574
62.973217
66.789125
70.617543
74.355763
77.933657
81.305174
84.448557
87.36174
90.075617
92.658855
95.181619
97.714492
100.34156
103.15345
106.19318
109.52881
113.24329
117.38754
121.86575
126.72727
131.94247
137.42741
143.08534
148.83231
154.59581
160.31871
165.96984
171.55921
177.14239
182.82538
188.52904
193.80397
198.43806
202.38641
205.68559
208.42307
210.75071
212.9478
215.47868
218.47718
219.85318
219.67065
218.48958
216.62324
214.29205
211.69577
209.00199
205.97342
202.55496
199.05047
195.61304
192.28946
189.03934
185.87153
182.81304
179.87791
177.0672
174.38308
171.82589
169.38847
167.06123
164.83731
162.7074
160.66251
158.6956
156.80184
154.97732
153.21933
151.52544
149.89272
148.32086
146.80567
145.34587
143.94314
142.59862
141.31234
140.08388
138.9118
137.79428
136.729
135.71341
134.74476
133.81988
132.93595
132.09002
131.27948
130.50183
129.75465
129.03623
128.34385
127.67132
127.0586
126.43624
125.73416
53.162126
52.542474
52.020736
51.712615
51.71191
52.046739
52.632788
53.454871
54.479128
55.66821
56.982452
58.383941
59.837421
61.30999
62.776318
64.223818
65.650385
67.061101
68.47036
69.902225
71.382708
72.9431
74.623448
76.469401
78.517494
80.819325
83.431765
86.358687
89.554753
93.018141
96.738492
100.69615
104.86812
109.23483
113.78728
118.52608
123.43127
128.41027
133.35898
138.1811
142.79591
147.14143
151.17445
154.87913
158.27766
161.33616
163.8791
165.76652
166.99882
167.66913
167.93009
167.98183
167.97554
167.24261
165.73029
163.88171
162.0544
160.27381
158.31811
156.28911
154.24919
152.19798
150.13115
148.07065
146.0333
144.0229
142.04576
140.11409
138.22631
136.38297
134.58569
132.83576
131.13382
129.48284
127.88348
126.33418
124.83627
123.3881
121.98771
120.63595
119.3344
118.08423
116.88604
115.73943
114.64323
113.59609
112.59638
111.64199
110.7302
109.85866
109.02477
108.22615
107.46071
106.72621
106.02104
105.34281
104.68705
104.08127
103.48897
102.80725
53.125772
52.475467
51.838977
51.240614
50.710735
50.27217
49.929141
49.683946
49.538717
49.482688
49.493611
49.598049
49.795903
50.0772
50.428393
50.836385
51.290946
51.783908
52.310009
52.8679
53.459387
54.089149
54.765926
55.50307
56.316775
57.227901
58.263031
59.44805
60.804447
62.358069
64.138998
66.14989
68.38802
70.859725
73.576419
76.546965
79.777746
83.261431
86.975348
90.888745
94.965766
99.165941
103.44528
107.75772
112.0632
116.26229
120.21058
123.7965
126.93139
129.55888
131.65225
133.21385
134.27452
134.88093
135.0406
134.79174
134.37291
133.84369
132.99373
132.01058
130.98962
129.84364
128.54363
127.16096
125.72134
124.22416
122.69168
121.14269
119.58396
118.02491
116.47488
114.94139
113.42965
111.95201
110.51068
109.10375
107.73586
106.40659
105.11383
103.85882
102.64319
101.46843
100.33576
99.245666
98.19749
97.191254
96.226516
95.302036
94.415577
93.565678
92.750496
91.968125
91.217234
90.495895
89.802838
89.136112
88.493045
87.891507
87.317755
86.647926
53.095754
52.438922
51.782849
51.131395
50.491389
49.870178
49.27328
48.705339
48.171138
47.674447
47.216823
46.802348
46.434608
46.115315
45.829918
45.572539
45.35583
45.185237
45.060953
44.98145
44.944629
44.948053
44.990823
45.074425
45.202301
45.379859
45.615015
45.917686
46.299197
46.772913
47.355072
48.061695
48.909319
49.917403
51.10967
52.492658
54.08326
55.900127
57.954825
60.256161
62.813334
65.633093
68.719637
72.074447
75.697423
79.567984
83.603218
87.700993
91.757123
95.664313
99.317209
102.61741
105.48059
107.85121
109.69071
110.92157
111.55146
111.75785
111.74053
111.55996
111.32147
110.95812
110.41686
109.76897
109.01223
108.09025
107.06657
105.96587
104.79359
103.57124
102.31529
101.04117
99.759247
98.501802
97.263579
96.042058
94.840651
93.661206
92.50391
91.370319
90.262302
89.181658
88.130313
87.109675
86.119228
85.160625
84.236032
83.344983
82.485903
81.658063
80.860564
80.092165
79.35278
78.640632
77.955075
77.294745
76.658467
76.057345
75.492465
74.827537
53.069398
52.409186
51.747943
51.085938
50.424295
49.764559
49.108496
48.458139
47.815896
47.184372
46.566038
45.96345
45.379188
44.815661
44.273585
43.753088
43.255564
42.782802
42.336421
41.917587
41.521913
41.139107
40.773973
40.436005
40.131227
39.86314
39.634361
39.447172
39.304053
39.209093
39.168393
39.1894
39.280839
39.453001
39.718272
40.089228
40.580865
41.211534
42.001251
42.961208
44.11151
45.474168
47.073245
48.93492
51.087697
53.562117
56.376907
59.520401
62.963002
66.651727
70.509082
74.433278
78.301592
81.983799
85.356883
88.279608
90.621801
92.353495
93.516865
94.22048
94.584657
94.753526
94.782346
94.707228
94.543261
94.220581
93.780501
93.22284
92.517353
91.712081
90.827285
89.891738
88.915285
87.932554
86.937128
85.930077
84.917192
83.902452
82.888955
81.880539
80.880527
79.892064
78.918592
77.962923
77.02674
76.112428
75.222507
74.358205
73.51984
72.707719
71.921891
71.162097
70.428314
69.719859
69.036703
68.377861
67.743435
67.139893
66.577323
65.912696
53.031398
52.367305
51.702346
51.036283
50.369101
49.700844
49.031776
48.36249
47.693906
47.027166
46.363515
45.704262
45.050784
44.404512
43.766762
43.138715
42.521561
41.916534
41.324889
40.747866
40.186151
39.639355
39.107641
38.592134
38.094459
37.616384
37.159011
36.716542
36.283813
35.869412
35.483749
35.134014
34.825328
34.561698
34.34683
34.185902
34.08597
34.05603
34.106898
34.250057
34.49937
34.871976
35.387483
36.065718
36.934725
38.029008
39.388121
41.050946
43.053505
45.423469
48.173174
51.2912
54.733668
58.419639
62.234471
66.024699
69.602625
72.794971
75.471564
77.594969
79.177347
80.296855
81.051686
81.519988
81.792031
81.933572
81.956184
81.882032
81.674708
81.356059
80.921087
80.392379
79.789746
79.120965
78.39384
77.621849
76.815402
75.980667
75.124101
74.25251
73.371262
72.485403
71.600176
70.719776
69.847622
68.987335
68.142108
67.314343
66.505754
65.717623
64.950898
64.206181
63.483979
62.784392
62.107808
61.453624
60.822938
60.219401
59.658655
58.995423
52.973026
52.29384
51.616143
50.939577
50.263725
49.588082
48.912284
48.236258
47.560224
46.884586
46.209838
45.53651
44.865182
44.196481
43.531075
42.869662
42.212975
41.561786
40.916905
40.279178
39.649431
39.028366
38.416632
37.814927
37.224038
36.644842
36.078225
35.524391
34.982993
34.454628
33.940947
33.444168
32.966442
32.503909
32.049709
31.613691
31.208269
30.841502
30.518999
30.244793
30.023848
29.863841
29.774761
29.768652
29.860905
30.071826
30.426787
30.955826
31.697584
32.697308
34.004991
35.671063
37.739091
40.234393
43.151684
46.440401
49.990514
53.637884
57.185467
60.456213
63.312874
65.686394
67.581171
69.022358
70.070275
70.812622
71.30623
71.622971
71.813436
71.885056
71.857787
71.720484
71.491773
71.181576
70.770362
70.283445
69.734129
69.127259
68.471224
67.775877
67.048901
66.297191
65.528192
64.747843
63.961488
63.174591
62.39146
61.615804
60.850769
60.098738
59.36172
58.64126
57.938596
57.254627
56.590309
55.945579
55.322367
54.722617
54.165293
53.505534
52.922162
52.222117
51.524489
50.829303
50.136347
49.445195
48.75543
48.066827
47.379398
46.693321
46.008855
45.326281
44.645893
43.967997
43.292911
42.620965
41.952509
41.287907
40.627546
39.971832
39.321193
38.676062
38.036878
37.404091
36.778178
36.159641
35.549019
34.946812
34.353432
33.769308
33.195001
32.631243
32.078904
31.538324
31.009076
30.491876
29.988732
29.502264
29.033364
28.572333
28.123573
27.702429
27.318736
26.978684
26.686924
26.450598
26.280833
26.192607
26.205949
26.347445
26.651265
27.15991
27.926812
29.013238
30.482391
32.387726
34.754161
37.55599
40.702113
44.045323
47.404243
50.60044
53.498338
56.005917
58.083169
59.749475
61.034217
61.984491
62.673909
63.146994
63.466941
63.656685
63.736162
63.735453
63.643983
63.468716
63.221898
62.887688
62.475142
61.999797
61.469158
60.889382
60.271071
59.621817
58.948685
58.259644
57.560259
56.855839
56.151259
55.450185
54.755959
54.07122
53.398123
52.738492
52.093975
51.465192
50.854836
50.263926
49.713412
49.06058
52.892207
52.177466
51.464359
50.753231
50.044205
49.337174
48.631951
47.928425
47.226629
46.526721
45.828932
45.133522
44.440763
43.750936
43.064321
42.381199
41.701857
41.026577
40.355644
39.689344
39.02796
38.371777
37.721073
37.076124
36.437205
35.804588
35.178548
34.559359
33.947285
33.342583
32.745519
32.156395
31.57555
31.003308
30.439902
29.885615
29.340912
28.806481
28.283014
27.770032
27.267629
26.777659
26.302833
25.843833
25.389272
24.948982
24.539367
24.170035
23.847951
23.581723
23.385757
23.280465
23.294019
23.46469
23.842485
24.488591
25.473738
26.865322
28.707391
30.998941
33.679297
36.629659
39.696343
42.715717
45.541442
48.073459
50.251654
52.052642
53.500604
54.624476
55.463927
56.074619
56.49706
56.773947
56.947157
57.029874
57.039478
56.970129
56.821837
56.606005
56.311901
55.940893
55.511613
55.029455
54.501836
53.940591
53.351365
52.741456
52.118001
51.485999
50.850524
50.215505
49.584251
48.959746
48.344454
47.739853
47.149404
46.573753
46.035171
45.394184
52.8773
52.154534
51.432513
50.711672
49.992286
49.274443
48.558145
47.843412
47.130337
46.419099
45.709935
45.003112
44.298913
43.597632
42.899568
42.20502
41.514287
40.827667
40.145456
39.467945
38.795423
38.128172
37.466467
36.810576
36.160758
35.517263
34.88033
34.25019
33.627059
33.011138
32.402617
31.801676
31.208487
30.623209
30.045986
29.476951
28.916244
28.364036
27.820531
27.285832
26.760025
26.243377
25.736421
25.239682
24.752303
24.274732
23.809315
23.35918
22.91678
22.481307
22.074117
21.708183
21.393383
21.142913
20.978509
20.931437
21.045015
21.376085
21.991631
22.960202
24.337559
26.145176
28.354749
30.883976
33.606965
36.380229
39.064998
41.544245
43.74427
45.625664
47.176169
48.419426
49.381607
50.094825
50.615015
50.979853
51.216959
51.359549
51.431324
51.433743
51.363827
51.220656
51.01706
50.736376
50.386855
49.987813
49.538819
49.050748
48.533467
47.992492
47.435252
46.867008
46.292515
45.716268
45.141676
44.571331
44.009544
43.457002
42.937204
42.314536
52.870717
52.143878
51.417219
50.69118
49.966077
49.242084
48.519296
47.797804
47.077741
46.359296
45.642704
44.928228
44.216152
43.506769
42.800381
42.097292
41.39781
40.70224
40.010888
39.324054
38.642038
37.965133
37.293626
36.627799
35.967926
35.314274
34.667098
34.026647
33.393156
32.766848
32.147935
31.536614
30.933066
30.337458
29.749938
29.170639
28.599673
28.03714
27.483125
26.937694
26.40089
25.872751
25.353343
24.84276
24.340955
23.847927
23.363939
22.889571
22.424448
21.968205
21.523122
21.09273
20.670072
20.257014
19.877936
19.548139
19.282047
19.103347
19.046957
19.160118
19.502039
20.137831
21.127095
22.508602
24.282377
26.400384
28.769967
31.267986
33.76547
36.146068
38.316395
40.221858
41.836022
43.153895
44.20391
45.010384
45.605739
46.0349
46.336951
46.527053
46.632487
46.680594
46.663726
46.578853
46.428809
46.226945
45.945759
45.608614
45.226521
44.802032
44.346502
43.865648
43.366035
42.854043
42.334044
41.810156
41.287639
40.767628
40.275196
39.67898
52.868528
52.139635
51.410595
50.68184
49.953702
49.226394
48.500059
47.774826
47.050849
46.328317
45.607457
44.888524
44.171788
43.457536
42.74606
42.037659
41.332633
40.631284
39.933912
39.240816
38.552292
37.868632
37.190123
36.517048
35.849683
35.188297
34.533153
33.884504
33.242598
32.607669
31.979945
31.35964
30.74696
30.142096
29.545225
28.956511
28.376102
27.804129
27.240707
26.685933
26.139882
25.602611
25.074163
24.554567
24.043827
23.541928
23.048874
22.564718
22.089451
21.623012
21.165616
20.717853
20.279418
19.850314
19.433574
19.033739
18.637136
18.267083
17.945962
17.691314
17.528872
17.496148
17.642369
18.025151
18.705096
19.73124
21.125102
22.868513
24.899125
27.119387
29.411703
31.661004
33.768911
35.660742
37.299471
38.669383
39.776024
40.648583
41.308161
41.79001
42.130222
42.365361
42.500594
42.572913
42.589184
42.546231
42.439809
42.278647
42.061431
41.778751
41.451627
41.081809
40.678544
40.250167
39.801549
39.338972
38.868557
38.392402
37.937686
37.377939
52.868702
52.138769
51.408485
50.678278
49.948491
49.219364
48.491072
47.763772
47.037631
46.312841
45.589623
44.868221
44.148896
43.431923
42.717584
42.006168
41.297966
40.59327
39.892372
39.195561
38.503125
37.815348
37.132509
36.454883
35.78274
35.116342
34.455946
33.801801
33.15415
32.513226
31.879255
31.252455
30.633032
30.021184
29.417099
28.820952
28.232909
27.653122
27.081729
26.518855
25.964611
25.419091
24.882373
24.354522
23.835585
23.325593
22.82457
22.332534
21.849496
21.375456
20.910433
20.454506
20.007704
19.570047
19.141911
18.724163
18.315878
17.919227
17.538976
17.166569
16.819808
16.523843
16.297829
16.170104
16.180464
16.379012
16.821121
17.562074
18.638209
20.055036
21.777735
23.732068
25.817116
27.920881
29.942013
31.798467
33.434777
34.829577
35.974874
36.886744
37.593057
38.114986
38.486791
38.746927
38.914739
38.993735
39.03262
39.016018
38.943577
38.816293
38.644179
38.408222
38.124503
37.802131
37.444535
37.061284
36.658465
36.239945
35.835144
35.324244
52.870196
52.139741
51.408796
50.677784
49.947056
49.216874
48.487442
47.758939
47.031548
46.305464
45.580908
44.858117
44.137346
43.418862
42.702939
41.989857
41.279898
40.573347
39.870488
39.1716
38.476965
37.786856
37.101545
36.421298
35.746375
35.077031
34.413514
33.756064
33.104914
32.460292
31.822414
31.191491
30.567724
29.951305
29.342419
28.741237
28.147926
27.562638
26.985518
26.416697
25.856297
25.304426
24.761182
24.22665
23.700903
23.184001
22.675996
22.176934
21.686851
21.205781
20.733756
20.270814
19.816992
19.372326
18.93689
18.510847
18.094222
17.68729
17.290861
16.904523
16.530265
16.173163
15.824811
15.508561
15.246492
15.059151
14.977817
15.045006
15.310454
15.828443
16.646832
17.787501
19.23905
20.949567
22.834261
24.790119
26.712868
28.516249
30.133892
31.529508
32.694832
33.630914
34.361497
34.911391
35.309412
35.579942
35.765442
35.868306
35.911327
35.911828
35.862473
35.761974
35.617256
35.423846
35.177523
34.894539
34.57726
34.233035
33.892344
33.445659
52.872456
52.141756
51.410458
50.678983
49.947688
49.216852
48.486702
47.757443
47.029269
46.302386
45.577014
44.85339
44.131766
43.412403
42.69557
41.981541
41.270594
40.563006
39.859055
39.159016
38.463163
37.771764
37.085083
36.40338
35.726908
35.055915
34.39064
33.731316
33.078171
32.431421
31.791276
31.157939
30.531602
29.912451
29.30066
28.696396
28.099818
27.511072
26.930298
26.357625
25.79317
25.237044
24.689345
24.150161
23.619571
23.097643
22.584439
22.080012
21.584412
21.097683
20.619868
20.151008
19.691148
19.240331
18.798606
18.366037
17.942684
17.528625
17.12401
16.728901
16.343587
15.968949
15.604618
15.253481
14.921058
14.599492
14.317446
14.09373
13.952036
13.927079
14.063603
14.412355
15.024722
15.93734
17.155877
18.6492
20.348113
22.159547
23.980918
25.718922
27.303859
28.68723
29.851738
30.797626
31.541032
32.105683
32.515191
32.800325
32.991313
33.107505
33.154694
33.165207
33.131455
33.051939
32.929713
32.76895
32.554882
32.303977
32.043491
31.679537
52.875181
52.144385
51.412906
50.681157
49.9495
49.218229
48.487593
47.757814
47.029104
46.301677
45.575759
44.851587
44.129412
43.409492
42.692094
41.977489
41.265949
40.55775
39.853164
39.152463
38.455916
37.763788
37.076338
36.393822
35.716487
35.044577
34.378325
33.717961
33.063704
32.415767
31.774353
31.139657
30.511868
29.891161
29.277707
28.671665
28.073185
27.48241
26.899472
26.324492
25.757583
25.198851
24.648388
24.106278
23.572599
23.047415
22.530786
22.022764
21.523394
21.03272
20.55078
20.077613
19.613255
19.157746
18.711125
18.273437
17.844729
17.425048
17.014446
16.612966
16.22067
15.837705
15.464137
15.100392
14.747562
14.405497
14.078127
13.766436
13.476849
13.232551
13.052507
12.964888
13.008589
13.230516
13.682253
14.409401
15.43163
16.735154
18.266651
19.941352
21.661362
23.329921
24.870021
26.228885
27.380902
28.324474
29.06726
29.63512
30.049614
30.340724
30.53234
30.654117
30.709124
30.722082
30.699594
30.636032
30.533234
30.394695
30.230552
29.969704
52.878196
52.14739
51.415827
50.683914
49.952015
49.220437
48.489446
47.759282
47.030171
46.302339
45.576016
44.851445
44.128875
43.408565
42.690779
41.975786
41.263857
40.555263
39.850277
39.149166
38.452198
37.759633
37.071729
36.388738
35.710905
35.038469
34.371663
33.710711
33.055829
32.407226
31.765101
31.129647
30.501044
29.879467
29.26508
28.658037
28.058485
27.466559
26.882386
26.306083
25.737758
25.17751
24.625426
24.081587
23.546063
23.018916
22.500199
21.989958
21.488233
20.995061
20.510471
20.034493
19.567152
19.108475
18.658489
18.217221
17.784701
17.360958
16.94602
16.539909
16.142646
15.754253
15.374751
15.004202
14.642794
14.290657
13.94843
13.616786
13.297218
12.994344
12.706091
12.451519
12.248427
12.119185
12.097057
12.225161
12.553401
13.131072
13.990869
15.131642
16.514549
18.064267
19.685891
21.28247
22.771772
24.097914
25.227319
26.155369
26.889029
27.450761
27.863116
28.15252
28.343195
28.464318
28.525209
28.539261
28.525982
28.475015
28.406675
28.266986
52.881399
52.15063
51.41904
50.68703
49.954963
49.223157
48.491892
47.761423
47.031991
46.303832
45.577185
44.852295
44.129414
43.4088
42.690718
41.975435
41.263221
40.554346
39.84908
39.14769
38.450439
37.757588
37.069393
36.386103
35.707962
35.035207
34.368068
33.706767
33.051519
32.402529
31.759995
31.124105
30.495039
29.872969
29.258053
28.650446
28.050288
27.457712
26.872842
26.295791
25.726663
25.165552
24.612543
24.067711
23.531123
23.002836
22.482899
21.971353
21.468232
20.973565
20.487376
20.009684
19.540505
19.079854
18.627743
18.184185
17.749193
17.322779
16.904953
16.495721
16.095084
15.703038
15.319574
14.944685
14.578383
14.220687
13.871692
13.531564
13.200642
12.879849
12.569669
12.273301
11.994586
11.736654
11.52007
11.36363
11.295525
11.354706
11.588926
12.048816
12.775362
13.778795
15.032003
16.468998
17.998319
19.523878
20.95931
22.244235
23.342962
24.246935
24.963807
25.511796
25.916494
26.197964
26.385421
26.502922
26.567621
26.586469
26.593735
26.549031
52.884727
52.154022
51.422439
50.690372
49.958185
49.226202
48.494716
47.763994
47.034292
46.305856
45.578931
44.853768
44.130621
43.409751
42.691422
41.975901
41.263457
40.554359
39.848876
39.147273
38.449813
37.756755
37.068353
36.384856
35.706506
35.033539
34.366183
33.704659
33.04918
32.399951
31.757167
31.121015
30.491673
29.869311
29.254086
28.64615
28.045642
27.452692
26.867423
26.289943
25.720356
25.158753
24.605215
24.059817
23.52262
22.99368
22.473041
21.960742
21.456813
20.961277
20.474153
19.995454
19.525187
19.06336
18.609974
18.165031
17.72853
17.300469
16.880844
16.469646
16.066863
15.672475
15.286458
14.908783
14.539421
14.178343
13.825533
13.480992
13.144763
12.817001
12.497899
12.188062
11.88854
11.60068
11.328691
11.07359
10.851198
10.678482
10.579469
10.589173
10.752619
11.120658
11.738942
12.628236
13.770474
15.108109
16.553187
18.009222
19.388465
20.627247
21.689332
22.562686
23.256566
23.784455
24.174568
24.445516
24.62824
24.743167
24.823289
24.850762
52.888138
52.157512
51.425957
50.69386
49.961584
49.22946
48.497789
47.766851
47.036913
46.308231
45.581058
44.85565
44.132266
43.411166
42.692617
41.976886
41.264241
40.554951
39.849283
39.147503
38.449871
37.756647
37.068083
36.384427
35.70592
35.032797
34.365285
33.703605
33.047967
32.398576
31.755627
31.119305
30.489787
29.867241
29.251825
28.643688
28.042967
27.449793
26.864285
26.286553
25.716696
25.154805
24.60096
24.055232
23.517682
22.988364
22.46732
21.954586
21.45019
20.954152
20.466486
19.987202
19.516303
19.05379
18.599658
18.1539
17.716507
17.287468
16.866766
16.454384
16.050297
15.654475
15.266884
14.887481
14.516223
14.153061
13.797947
13.450836
13.11169
12.780494
12.457256
12.142062
11.835122
11.536797
11.247988
10.969598
10.704762
10.456737
10.233328
10.051572
9.9322174
9.9067187
10.017328
10.31455
10.846715
11.642578
12.69173
13.942937
15.311563
16.701155
18.023746
19.213426
20.234429
21.07182
21.735681
22.239344
22.61216
22.871946
23.062614
23.179024
52.891605
52.161065
51.429549
50.69744
49.965098
49.232858
48.501029
47.769902
47.039753
46.310848
45.583448
44.857814
44.134209
43.412896
42.694143
41.978217
41.265386
40.55592
39.850085
39.148145
38.450362
37.756993
37.06829
36.3845
35.705863
35.032614
34.364978
33.703176
33.047419
32.397909
31.754839
31.118397
30.488756
29.866085
29.250541
28.642271
28.041413
27.448096
26.862438
26.284548
25.714525
25.152458
24.598426
24.052501
23.514741
22.985198
22.463915
21.950925
21.446254
20.949922
20.46194
19.982316
19.511049
19.048136
18.59357
18.147337
17.709424
17.279812
16.858479
16.445399
16.04054
15.643866
15.255332
14.87489
14.502485
14.13806
13.781553
13.432901
13.092043
12.758918
12.433474
12.115672
11.805506
11.503015
11.20835
10.921762
10.643906
10.375801
10.119474
9.8792517
9.6584361
9.4728065
9.3408642
9.2909906
9.3630427
9.6064983
10.071474
10.792214
11.764398
12.941627
14.242057
15.569371
16.836015
17.974644
18.949808
19.746815
20.377789
20.855556
21.22455
21.474468
52.895108
52.164657
51.433187
50.701077
49.968685
49.236347
48.504382
47.773087
47.042747
46.313637
45.586025
44.860179
44.136365
43.414849
42.695901
41.979789
41.266782
40.557148
39.851155
39.149065
38.45114
37.757637
37.068806
36.384895
35.706142
35.032782
34.36504
33.703135
33.047278
32.39767
31.754505
31.117969
30.488235
29.86547
29.249832
28.641467
28.040513
27.447097
26.861337
26.283342
25.71321
25.15103
24.59688
24.050829
23.512938
22.983256
22.461826
21.948681
21.443845
20.947336
20.459167
19.97934
19.507856
19.044709
18.589887
18.143377
17.705159
17.275212
16.85351
16.440021
16.03471
15.637534
15.248444
14.867386
14.4943
14.129121
13.771781
13.422209
13.080331
12.746074
12.419363
12.100126
11.7883
11.483829
11.186687
10.896878
10.614496
10.339756
10.073126
9.8156223
9.5685905
9.3355952
9.1201552
8.9346678
8.7959811
8.7301065
8.7747646
8.9783117
9.3919368
10.053601
10.96362
12.078867
13.319546
14.589131
15.800353
16.885878
17.813584
18.568325
19.181579
19.637667
52.898634
52.16827
51.43685
50.704746
49.972315
49.239896
48.50781
47.776363
47.045848
46.316548
45.588738
44.862691
44.138676
43.416966
42.697829
41.981536
41.268357
40.558561
39.852413
39.150178
38.452116
37.758484
37.069531
36.385505
35.706643
35.03318
34.36534
33.703342
33.047396
32.397702
31.754455
31.117838
30.488026
29.865186
29.249472
28.641033
28.040005
27.446515
26.860681
26.28261
25.712401
25.150142
24.595911
24.049776
23.511798
22.982026
22.460502
21.947258
21.442318
20.945701
20.457415
19.977466
19.505851
19.042563
18.58759
18.140915
17.702517
17.272373
16.850454
16.436725
16.031148
15.633676
15.244259
14.862837
14.489347
14.123722
13.765887
13.415767
13.073283
12.738354
12.410896
12.090827
11.778064
11.472525
11.174136
10.88283
10.59856
10.321313
10.051138
9.7882151
9.5328839
9.2859452
9.0485918
8.8237359
8.6152877
8.4324019
8.291149
8.2154073
8.2413506
8.4161105
8.7917644
9.4083697
10.270036
11.334809
12.523713
13.739224
14.89745
15.929628
16.828804
17.550653
52.902171
52.171892
51.440523
50.70843
49.975969
49.243479
48.511286
47.779702
47.049026
46.319549
45.591551
44.865312
44.141105
43.419205
42.699885
41.983415
41.270067
40.56011
39.853811
39.151432
38.453236
37.759476
37.070404
36.386265
35.707297
35.033735
34.365801
33.703714
33.047683
32.39791
31.754586
31.117897
30.488016
29.865108
29.24933
28.640828
28.039738