/*--------------------------------*- C++ -*----------------------------------*\
| =========                 |                                                 |
| \\      /  F ield         | OpenFOAM: The Open Source CFD Toolbox           |
|  \\    /   O peration     | Version:  2206                                  |
|   \\  /    A nd           | Website:  www.openfoam.com                      |
|    \\/     M anipulation  |                                                 |
\*---------------------------------------------------------------------------*/
FoamFile
{
    version     2.0;
    format      ascii;
    arch        "LSB;label=32;scalar=64";
    class       volScalarField;
    location    "1400";
    object      p;
}
// * * * * * * * * * * * * * * * * * * * * * * * * * * * * * * * * * * * * * //

dimensions      [0 2 -2 0 0 0 0];

internalField   nonuniform List<scalar> 
7480
(
0.054720371
0.042463624
0.028339358
0.01653027
0.0059230488
0.0004768742
-0.00077779251
0.00023903869
0.0017924149
0.0028230476
0.0032987334
0.0035018189
0.0035929279
0.0036217655
0.00362356
0.0036278694
0.0036355873
0.0036292563
0.0036125768
0.0035944724
0.0035737323
0.0035461977
0.0035147217
0.0034826724
0.0034487938
0.0034106967
0.0033698033
0.0033276715
0.0032834224
0.0032362549
0.0031872832
0.0031372744
0.0030856115
0.0030321029
0.0029776045
0.0029227143
0.0028674733
0.0028125406
0.0027591462
0.0027083047
0.00266086
0.0026183644
0.002583325
0.0025581405
0.0025471532
0.0025539324
0.0025834922
0.0026353566
0.0027080432
0.0028022108
0.0029160862
0.0030468013
0.0031898926
0.0033390755
0.0034921727
0.0036427805
0.0037728322
0.0038695352
0.0039247469
0.0039418575
0.0039229463
0.0038741182
0.0038045273
0.0037212554
0.0036294651
0.003533208
0.0034358545
0.0033386911
0.0032426249
0.0031481944
0.0030555176
0.0029640961
0.0028739424
0.0027850462
0.0026966299
0.0026092748
0.0025220671
0.0024328771
0.0023421362
0.0022499767
0.0021572076
0.0020634259
0.0019674599
0.0018703858
0.001771306
0.0016708573
0.0015688605
0.0014653674
0.0013610074
0.0012553648
0.0011497434
0.0010438371
0.00093946379
0.00083600428
0.00074026499
0.0006388929
0.00058782147
0.00030660125
0.00083541142
-0.00087527688
0.049743847
0.039228048
0.02727399
0.016381684
0.0065238979
0.0012779565
-7.1048171e-05
0.0007084674
0.0020192401
0.0029469092
0.0033764367
0.0035610185
0.0036437684
0.0036657931
0.0036636012
0.003666336
0.0036679742
0.0036563487
0.0036366399
0.0036161479
0.0035932247
0.00356371
0.0035306078
0.0034971624
0.0034620049
0.0034227485
0.0033808541
0.0033378277
0.0032927451
0.0032448152
0.0031951632
0.0031445306
0.0030922821
0.0030382317
0.0029832352
0.0029278784
0.0028721948
0.0028168442
0.0027630525
0.0027118273
0.0026640087
0.002621149
0.0025857525
0.0025602122
0.0025489296
0.0025556672
0.0025846664
0.0026360432
0.0027084033
0.0028022597
0.0029158575
0.0030463357
0.0031892319
0.003338271
0.0034912833
0.003641858
0.0037719315
0.0038687361
0.0039241038
0.0039413806
0.0039226692
0.0038740176
0.0038045687
0.0037214098
0.0036297019
0.0035335007
0.0034361818
0.0033390365
0.0032429771
0.0031485457
0.0030558627
0.0029644318
0.0028742668
0.0027853581
0.002696929
0.0026095617
0.0025223477
0.0024331571
0.0023424129
0.0022502473
0.0021574716
0.0020636834
0.0019677118
0.0018706325
0.0017715478
0.0016710941
0.0015690922
0.0014655939
0.0013612284
0.0012555802
0.0011499531
0.0010440411
0.00093966208
0.00083619682
0.00074045313
0.00063907295
0.00058807016
0.00030758562
0.00083762717
-0.00087480158
0.045684667
0.037547482
0.026911073
0.01665631
0.0078986729
0.0028064794
0.0011016843
0.0013701388
0.0023555155
0.0031311584
0.0034973463
0.0036618743
0.0037319124
0.0037389128
0.0037276835
0.0037233619
0.0037164231
0.0036974913
0.0036729952
0.0036487929
0.0036222561
0.0035893524
0.0035536941
0.0035181084
0.0034809007
0.0034398004
0.0033964284
0.0033521336
0.0033058485
0.0032568233
0.0032062399
0.0031547719
0.0031017312
0.0030469554
0.0029913131
0.00293536
0.0028791124
0.0028232415
0.0027689694
0.0027172872
0.0026690263
0.002625744
0.0025899417
0.0025640029
0.0025523674
0.0025591718
0.0025876609
0.002638301
0.0027102818
0.0028037478
0.0029169757
0.0030471069
0.003189678
0.0033384303
0.0034912276
0.0036416362
0.0037715672
0.0038683338
0.0039238002
0.0039411766
0.0039226793
0.0038742211
0.0038049367
0.0037219176
0.0036303143
0.0035341838
0.0034369071
0.0033397797
0.0032437212
0.0031492788
0.0030565766
0.0029651212
0.0028749291
0.0027859914
0.0026975326
0.0026101361
0.0025228932
0.0024336804
0.00234292
0.0022507368
0.0021579437
0.0020641392
0.0019681527
0.0018710605
0.0017719634
0.0016714983
0.0015694852
0.0014659758
0.0013615993
0.0012559401
0.0011503022
0.0010443793
0.00093999
0.00083651386
0.00074076287
0.00063936575
0.00058847338
0.00030916599
0.00084155206
-0.00087422302
0.042964098
0.036246245
0.026556627
0.016956166
0.0091851315
0.0042690985
0.002183215
0.0020637308
0.0027472324
0.0033684612
0.0036791718
0.0038193679
0.0038663137
0.0038436957
0.0038119527
0.003795809
0.0037782979
0.0037488908
0.0037177918
0.0036892697
0.0036582651
0.0036208093
0.0035819316
0.0035437561
0.0035039182
0.0034603823
0.0034152094
0.0033694564
0.0033217503
0.0032714409
0.0032198552
0.0031675297
0.0031136615
0.0030581456
0.0030018892
0.0029453888
0.0028886308
0.0028323251
0.0027776942
0.0027256935
0.0026771369
0.0026335984
0.0025975747
0.0025714397
0.0025595327
0.0025668433
0.0025952581
0.0026450504
0.002716731
0.002809835
0.0029226419
0.0030523078
0.0031943583
0.0033425608
0.0034948387
0.0036447156
0.0037741079
0.0038703555
0.0039256356
0.0039427925
0.0039242265
0.003875781
0.0038065332
0.0037235674
0.0036320073
0.0035358995
0.0034386236
0.0033414726
0.0032453736
0.0031508783
0.0030581145
0.0029665914
0.00287633
0.0027873215
0.0026987912
0.0026113248
0.002523981
0.0024346692
0.0023438523
0.0022516218
0.0021587852
0.0020649397
0.0019689157
0.0018717913
0.0017726642
0.0016721721
0.0015701335
0.0014666003
0.0013622011
0.0012565198
0.0011508613
0.0010449178
0.00094050957
0.00083701376
0.00074124906
0.00063982437
0.00058909391
0.00031166796
0.00084798432
-0.00087320505
0.040495096
0.034652798
0.025932025
0.017308564
0.010252996
0.0054754046
0.0032218943
0.0028320914
0.0032232394
0.0036671794
0.0039008965
0.0039905241
0.004005507
0.0039650261
0.0039223583
0.003896562
0.0038661785
0.0038210859
0.0037790393
0.0037436727
0.0037062019
0.0036623861
0.0036192498
0.0035779415
0.0035348474
0.0034881124
0.0034406056
0.0033929741
0.0033433677
0.0032913295
0.0032384598
0.0031850733
0.0031301794
0.0030737802
0.0030168562
0.0029598003
0.0029025356
0.002845848
0.0027909802
0.002738819
0.0026901416
0.0026465491
0.0026105295
0.0025844252
0.00257256
0.0025805381
0.0026090019
0.0026581909
0.0027295706
0.0028222376
0.0029344829
0.0030634681
0.003204695
0.0033519783
0.0035033756
0.0036524077
0.0037808156
0.0038759399
0.0039306797
0.0039471905
0.0039281148
0.0038794236
0.0038100156
0.0037269562
0.0036353241
0.0035391444
0.0034417894
0.0033445413
0.003248333
0.0031537194
0.0030608296
0.0029691759
0.0028787861
0.0027896493
0.0027009902
0.0026133977
0.0025258889
0.002436416
0.0023454906
0.002253165
0.0021602413
0.0020663143
0.0019702153
0.0018730251
0.0017738373
0.0016732911
0.0015712021
0.0014676222
0.0013631797
0.001257457
0.0011517602
0.0010457797
0.00094133736
0.00083780735
0.00074201643
0.00064055068
0.00059004564
0.00031538514
0.0008575044
-0.00087118215
0.038181606
0.033060561
0.025343718
0.017620326
0.011137713
0.0065722798
0.0042207984
0.0035792686
0.0037208023
0.0039895968
0.0041353204
0.0041728461
0.0041569631
0.0041022434
0.0040462764
0.0040019775
0.0039561446
0.0039012447
0.003852398
0.0038111034
0.0037660503
0.0037143228
0.0036652572
0.0036197183
0.0035725323
0.0035218943
0.0034716829
0.0034219633
0.0033701885
0.0033161438
0.0032618267
0.0032072535
0.0031511951
0.0030938494
0.0030363432
0.0029789148
0.0029212614
0.0028642372
0.0028092094
0.002757002
0.0027083442
0.0026648755
0.0026290747
0.002603223
0.0025917031
0.0026001035
0.0026284015
0.0026772351
0.002748077
0.0028400358
0.0029514574
0.0030794807
0.0032195506
0.0033655421
0.0035157167
0.0036635273
0.0037904518
0.003883994
0.0039379995
0.0039535914
0.0039337132
0.0038846777
0.0038150303
0.0037318102
0.0036400428
0.0035437325
0.0034462448
0.0033488474
0.0032524803
0.0031576995
0.0030646328
0.0029727999
0.0028822393
0.0027929321
0.0027041009
0.0026163377
0.0025286435
0.0024389969
0.0023479245
0.0022554555
0.0021623984
0.0020683457
0.0019721295
0.0018748354
0.001775551
0.001674918
0.0015727484
0.0014690944
0.0013645834
0.0012587956
0.0011530387
0.0010470013
0.00094250647
0.00083892524
0.00074309138
0.00064157235
0.00059136646
0.00032044485
0.0008702239
-0.00086770693
0.036080444
0.031581948
0.02479096
0.017849651
0.011895533
0.0075703222
0.0051566496
0.0042873506
0.0042049194
0.0043203381
0.0043810032
0.0043685308
0.0043206577
0.0042479229
0.0041745391
0.0041114935
0.0040517939
0.0039888162
0.0039318802
0.0038808803
0.0038274042
0.0037704231
0.0037172468
0.0036677665
0.0036159535
0.0035608977
0.0035074025
0.0034549863
0.0034005216
0.0033441204
0.003288198
0.0032323458
0.0031750029
0.0031166369
0.0030585709
0.0030008169
0.0029428143
0.0028855513
0.0028305384
0.0027785032
0.0027301124
0.0026870744
0.0026518834
0.0026268483
0.0026155092
0.0026233439
0.0026514151
0.0027001387
0.0027705406
0.0028618059
0.0029722807
0.0030990493
0.0032376028
0.003382046
0.0035298991
0.0036747487
0.0037995078
0.0038915543
0.0039452096
0.0039600904
0.003939555
0.0038904026
0.0038206894
0.0037374337
0.0036456118
0.0035492207
0.0034516291
0.0033540923
0.0032575652
0.0031626095
0.0030693527
0.0029773232
0.0028865723
0.0027970719
0.0027080417
0.0026200787
0.002532176
0.0024423364
0.0023510891
0.0022584412
0.0021652137
0.0020709975
0.0019746267
0.0018771937
0.0017777789
0.001677028
0.0015747486
0.0014709935
0.001366389
0.0012605128
0.0011546746
0.0010485603
0.00094399456
0.00084034518
0.0007444504
0.00064286805
0.0005930329
0.00032679175
0.00088579061
-0.00086268948
0.034181778
0.030200057
0.02422413
0.017993041
0.012542057
0.0084613324
0.006019214
0.0049645753
0.0046869769
0.0046611143
0.0046368305
0.0045731356
0.0044911263
0.0043969999
0.004305801
0.0042260744
0.0041529892
0.0040805604
0.0040138722
0.0039528907
0.0038921662
0.0038305116
0.0037725414
0.0037174684
0.0036608404
0.0036026125
0.0035465422
0.0034914388
0.0034339996
0.0033749599
0.0033171738
0.0032597949
0.0032007514
0.0031408935
0.0030819015
0.0030234658
0.0029648291
0.0029072084
0.0028522001
0.0028003895
0.002752363
0.0027099267
0.0026756118
0.0026517482
0.0026406425
0.0026476289
0.0026753507
0.0027240444
0.0027941324
0.0028847633
0.0029941941
0.0031194147
0.0032562205
0.003399181
0.0035437557
0.0036841564
0.003806371
0.003897299
0.0039510647
0.0039656272
0.0039448059
0.0038958804
0.0038263725
0.0037432961
0.0036515833
0.0035552338
0.0034576251
0.0033600039
0.0032633539
0.0031682484
0.0030748187
0.0029825989
0.0028916544
0.0028019512
0.0027127067
0.0026245262
0.0025363931
0.0024463388
0.0023548971
0.0022620463
0.0021686216
0.0020742128
0.0019776571
0.0018800561
0.0017804822
0.0016795864
0.0015771711
0.0014732903
0.0013685697
0.0012625838
0.0011566452
0.0010504355
0.00094578116
0.00084204762
0.00074607396
0.00064441993
0.00059501203
0.00033430134
0.00090367327
-0.0008562596
0.032461097
0.028908556
0.02364958
0.01807219
0.013091969
0.0092520799
0.0068130395
0.0056134206
0.0051655157
0.005008122
0.0049002796
0.0047845258
0.0046674725
0.0045503045
0.0044405297
0.0043442967
0.0042573611
0.0041743886
0.0040981204
0.0040281193
0.0039602342
0.0038930938
0.0038295684
0.0037688781
0.0037079882
0.0036466821
0.0035874838
0.0035290318
0.0034687609
0.0034077275
0.0033483396
0.0032892985
0.0032283342
0.0031667979
0.0031066895
0.0030473712
0.0029878776
0.0029295634
0.0028740989
0.0028220406
0.0027739321
0.0027316822
0.0026978664
0.0026747096
0.0026641459
0.0026710572
0.0026983986
0.002746674
0.0028161469
0.002905963
0.0030142885
0.0031380216
0.0032732215
0.0034147751
0.0035565683
0.0036927752
0.00381208
0.0039018456
0.0039556066
0.003970053
0.0039492648
0.0039008096
0.0038316962
0.0037489901
0.0036575639
0.0035613921
0.0034638714
0.0033662482
0.0032695419
0.0031743367
0.0030807701
0.0029883871
0.0028972693
0.0028073747
0.002717919
0.0026295196
0.0025411476
0.0024508684
0.0023592244
0.0022661591
0.002172523
0.0020779044
0.0019811441
0.0018833555
0.0017836019
0.0016825411
0.0015799699
0.0014759441
0.0013710888
0.0012649756
0.0011589201
0.0010525992
0.0009478407
0.00084400895
0.00074793953
0.00064620742
0.00059726077
0.00034282509
0.00092328631
-0.00084845113
0.030897791
0.027708778
0.023078725
0.018097204
0.01355319
0.0099494533
0.0075402084
0.0062302909
0.0056352544
0.0053574982
0.005169632
0.0050022744
0.0048496649
0.004708081
0.0045790763
0.0044659828
0.0043650071
0.0042708977
0.0041845943
0.0041057034
0.0040304239
0.0039572819
0.0038882903
0.0038224254
0.0037572363
0.0036923535
0.0036297337
0.0035680685
0.0035052093
0.0034421467
0.0033807005
0.0033195891
0.0032569111
0.0031941371
0.0031330344
0.0030727218
0.003012215
0.0029530026
0.0028968825
0.0028443423
0.0027958254
0.0027533283
0.00271947
0.0026963105
0.0026857889
0.0026925299
0.0027193874
0.0027669759
0.0028356003
0.0029244553
0.0030316838
0.0031541375
0.0032879207
0.003428004
0.0035679198
0.0037013884
0.0038181961
0.0039059065
0.0039586417
0.0039730825
0.0039525649
0.003904703
0.0038361622
0.0037540572
0.003663116
0.0035672467
0.0034699341
0.0033724284
0.0032757571
0.0031805224
0.0030868818
0.0029943925
0.0029031488
0.0028130979
0.0027234557
0.0026348558
0.0025462541
0.0024557567
0.0023639173
0.0022706399
0.0021767926
0.002081961
0.0019849895
0.0018870053
0.0017870621
0.0016858257
0.0015830866
0.0014789034
0.001373901
0.0012676476
0.0011614629
0.0010550183
0.00095014335
0.00084620199
0.00075002172
0.00064820734
0.00059973019
0.0003522166
0.00094405739
-0.00083918019
0.029474423
0.026598451
0.022516499
0.018072907
0.013932969
0.010560331
0.0082021604
0.0068124316
0.00609311
0.0057071196
0.0054436732
0.0052256382
0.0050371791
0.004870113
0.0047212534
0.0045910393
0.0044757222
0.0043700591
0.004273586
0.0041856644
0.0041028944
0.0040234958
0.0039486648
0.0038775828
0.003808037
0.0037393368
0.0036733097
0.003608621
0.0035431087
0.0034777007
0.0034140688
0.0033510638
0.0032868352
0.0032227793
0.0031603415
0.0030988226
0.0030374009
0.0029774495
0.0029207647
0.002867706
0.0028186746
0.002775739
0.0027415774
0.0027180644
0.0027070777
0.0027131793
0.0027392449
0.0027858329
0.0028532291
0.002940736
0.0030465327
0.0031674592
0.0032996374
0.0034381341
0.0035765334
0.0037084364
0.003823692
0.0039095106
0.0039613341
0.0039757681
0.0039548224
0.0039071286
0.0038393877
0.0037581171
0.0036677841
0.0035723509
0.003475423
0.0033781892
0.0032816404
0.003186459
0.0030928431
0.0030003266
0.0029090169
0.0028188614
0.0027290764
0.002640311
0.0025515071
0.0024608177
0.0023688069
0.0022753351
0.002181293
0.0020862608
0.0019890853
0.001890911
0.00179078
0.0016893678
0.0015864583
0.0014821134
0.0013769582
0.0012705575
0.001164236
0.0010576595
0.000952659
0.00084859952
0.00075229526
0.00065039674
0.0006023698
0.00036234076
0.00096545065
-0.00082831157
0.028175759
0.025572681
0.021966632
0.018005715
0.014239841
0.011091952
0.0088012137
0.0073583973
0.0065366745
0.0060547131
0.0057206499
0.0054533835
0.0052292199
0.0050360292
0.0048668341
0.0047193291
0.0045894346
0.0044718941
0.0043651006
0.0042680064
0.0041775288
0.0040916443
0.0040108665
0.0039344792
0.0038604613
0.0037879563
0.0037182636
0.0036503013
0.0035821756
0.0035143384
0.0034485099
0.0033836814
0.0033178517
0.0032523177
0.0031884822
0.0031259082
0.0030636647
0.0030029471
0.0029455141
0.0028918406
0.0028423598
0.0027990032
0.002764483
0.0027405306
0.002728971
0.0027342498
0.0027592783
0.0028045701
0.0028703565
0.0029560798
0.0030599798
0.0031789014
0.0033090222
0.0034455701
0.0035822193
0.0037124474
0.003826217
0.0039111538
0.0039629582
0.0039775961
0.0039565655
0.0039092225
0.0038422551
0.0037612493
0.0036712053
0.003576416
0.0034800755
0.0033831898
0.0032868535
0.003191857
0.0030983914
0.0030059149
0.0029146006
0.002824413
0.0027345385
0.0026456541
0.0025566958
0.0024658606
0.0023737184
0.0022800868
0.0021858836
0.0020906778
0.0019933198
0.0018949745
0.0017946699
0.0016930928
0.0015900201
0.0014855177
0.0013802112
0.0012736623
0.0011672017
0.0010604893
0.00095535788
0.00085117479
0.00075473555
0.0006527534
0.00060512917
0.00037307129
0.00098695497
-0.00081568372
0.026988442
0.024625669
0.021432469
0.017902395
0.01448163
0.011550818
0.0093399163
0.0078671495
0.006963511
0.0063978328
0.0059987053
0.0056842913
0.0054250478
0.0052054821
0.005015626
0.0048507084
0.0047060642
0.0045763637
0.0044590782
0.0043526881
0.0042543092
0.0041617487
0.0040749361
0.0039931383
0.0039145061
0.0038380644
0.0037646113
0.0036933082
0.0036224776
0.0035522852
0.0034841301
0.003417205
0.0033497704
0.003282769
0.0032175374
0.0031538991
0.0030907992
0.0030292259
0.0029710197
0.002916827
0.0028669403
0.0028231145
0.0027881422
0.0027637263
0.002751622
0.0027560645
0.0027799773
0.0028238273
0.0028878113
0.0029715022
0.0030731973
0.0031897381
0.0033173726
0.0034515171
0.0035859518
0.0037140693
0.0038260685
0.0039101555
0.0039617727
0.0039768349
0.0039567661
0.0039106382
0.0038445269
0.0037638301
0.0036743434
0.0035802643
0.0034840287
0.0033871428
0.0032911801
0.0031965346
0.0031032528
0.0030108662
0.0029196521
0.0028295305
0.0027396137
0.0026506726
0.0025616341
0.0024707064
0.0023784831
0.0022847434
0.0021904263
0.0020950847
0.0019975789
0.001899095
0.001798642
0.0016969218
0.0015937028
0.0014890556
0.0013836073
0.0012769159
0.0011703198
0.0010634724
0.00095820879
0.00085390008
0.00075731727
0.00065525474
0.00060795763
0.00038428378
0.0010080508
-0.00080112109
0.025900707
0.023751294
0.020916421
0.017769113
0.014665358
0.011943001
0.009821144
0.0083381585
0.0073714916
0.0067342483
0.006276114
0.0059171801
0.0056238877
0.0053780373
0.0051673624
0.0049849772
0.0048254804
0.0046834003
0.0045554711
0.0044396826
0.004333241
0.0042338255
0.0041408682
0.0040535543
0.0039701759
0.0038896586
0.0038123958
0.0037376916
0.0036640485
0.0035914177
0.0035208643
0.0034517896
0.0033827048
0.0033142517
0.0032476147
0.0031827175
0.0031186678
0.0030562969
0.0029973168
0.0029425739
0.0028922543
0.0028479167
0.002812503
0.0027876673
0.0027749992
0.002778552
0.0028012743
0.0028436409
0.0029058116
0.0029874118
0.0030867754
0.0032007469
0.0033256539
0.0034570919
0.00358895
0.0037145664
0.0038244092
0.0039073086
0.0039583751
0.0039737148
0.0039547095
0.0039099286
0.0038449619
0.0037653977
0.0036770523
0.0035836997
0.0034875459
0.0033908765
0.0032953685
0.0032006446
0.0031071925
0.0030150121
0.0029240284
0.0028339906
0.0027440898
0.0026552028
0.0025661678
0.0024751904
0.0023829537
0.0022891726
0.0021947879
0.0020993565
0.0020017497
0.0019031683
0.0018026008
0.0017007692
0.00159743
0.0014926595
0.0013870869
0.0012802666
0.0011735451
0.0010665694
0.0009611771
0.00085674487
0.00076001291
0.00065787652
0.00061080386
0.00039584875
0.0010281663
-0.00078445293
0.024902162
0.022943417
0.020419961
0.017611452
0.014797627
0.012274364
0.010248048
0.0087713932
0.0077588553
0.0070619218
0.0065511927
0.0061508165
0.0058248825
0.0055531714
0.0053217187
0.0051219028
0.0049475278
0.0047929191
0.0046542231
0.0045289501
0.0044143084
0.0043078738
0.0042086622
0.0041157371
0.0040274918
0.0039427729
0.0038616375
0.0037834573
0.0037068951
0.0036317287
0.0035587432
0.0034874885
0.003416679
0.0033467173
0.0032786328
0.003212431
0.0031474003
0.0030842353
0.0030244915
0.0029690573
0.0029182215
0.0028734028
0.002837534
0.0028122933
0.0027990155
0.0028016131
0.0028231359
0.0028640341
0.0029243814
0.0030038338
0.0031007715
0.0032120977
0.0033342147
0.0034628409
0.0035919524
0.0037148543
0.0038222757
0.0039036851
0.0039538356
0.0039691843
0.0039512192
0.0039075354
0.0038437406
0.0037654295
0.0036782018
0.0035857164
0.0034902812
0.0033943333
0.0032992602
0.0032043928
0.0031109594
0.0030190359
0.0029278769
0.00283763
0.0027478752
0.0026591419
0.0025701158
0.0024791547
0.0023870141
0.002293252
0.0021988372
0.0021033826
0.002005728
0.0019070886
0.0018064481
0.001704545
0.0016011173
0.0014962535
0.0013905832
0.0012836548
0.0011768254
0.0010697345
0.00096422289
0.00085967415
0.00076279119
0.00066059151
0.00061361579
0.00040762655
0.0010466321
-0.00076553062
0.023983607
0.022196102
0.019943815
0.01743441
0.014884645
0.012550478
0.010623886
0.0091672233
0.008124181
0.007378986
0.0068223024
0.0063839465
0.0060271344
0.0057303076
0.0054783289
0.0052612244
0.0050720247
0.0049048105
0.0047552587
0.0046204344
0.0044974813
0.0043838847
0.004278316
0.004179692
0.0040864684
0.0039974287
0.00391235
0.0038306217
0.0037510421
0.0036732538
0.0035977961
0.0035243139
0.0034516991
0.0033801688
0.0033106037
0.0032430767
0.0031770235
0.0031130207
0.0030524841
0.0029963232
0.0029449387
0.0028996839
0.0028632388
0.0028374807
0.002823652
0.0028252996
0.0028455931
0.0028849803
0.0029434524
0.0030207011
0.003115174
0.0032238355
0.0033431324
0.0034688742
0.0035951254
0.0037152294
0.0038201514
0.003899946
0.0039490228
0.0039642264
0.0039470477
0.0039042249
0.0038414465
0.0037642507
0.0036780693
0.0035865134
0.0034919018
0.0033966157
0.0033020212
0.0032075167
0.0031145429
0.0030228349
0.0029314426
0.0028411748
0.002751529
0.0026625514
0.0025733531
0.0024825485
0.0023905537
0.0022968187
0.0022024539
0.0021070721
0.0020094106
0.0019107532
0.0018100928
0.0017081577
0.0016046775
0.0014997583
0.0013940231
0.001287014
0.0011801013
0.0010729147
0.00096729949
0.00086264669
0.00076561553
0.00066336811
0.00061634091
0.00041946408
0.0010626454
-0.00074424494
0.023136877
0.021503747
0.019488126
0.017242358
0.014932166
0.012776604
0.010951961
0.0095263793
0.0084664014
0.0076837772
0.0070878876
0.0066153299
0.0062297223
0.0059088201
0.0056367788
0.0054026443
0.0051987578
0.0050189366
0.0048584831
0.0047140655
0.0045827181
0.0044618405
0.0043498206
0.0042454167
0.004147113
0.0040536414
0.0039645469
0.0038792025
0.0037965138
0.003716019
0.0036380418
0.0035622825
0.0034877889
0.0034146347
0.0033435558
0.0032746721
0.0032075446
0.0031426583
0.0030812998
0.0030243937
0.0029724304
0.0029267021
0.002889688
0.0028633006
0.0028488674
0.002849626
0.0028686277
0.0029064291
0.002962989
0.0030380007
0.003129951
0.0032359084
0.0033523716
0.0034751734
0.0035985048
0.0037157873
0.0038181801
0.0038962906
0.0039442274
0.0039592034
0.0039426976
0.0039006381
0.0038387797
0.0037624775
0.0036772077
0.0035864816
0.0034926196
0.0033979236
0.0033038407
0.0032097783
0.0031171917
0.0030257235
0.0029345404
0.0028446036
0.0027549849
0.0026657459
0.002576572
0.002485764
0.0023935175
0.0022997805
0.0022056076
0.0021102961
0.0020126609
0.0019140673
0.0018134477
0.0017115138
0.0016080315
0.001503099
0.0013973327
0.0012902744
0.0011833081
0.0010760506
0.00097035317
0.00086561418
0.00076844296
0.00066616906
0.00061892704
0.00043119342
0.0010752708
-0.00072054458
0.022354715
0.020861155
0.019052602
0.017039035
0.01494548
0.012957705
0.011235592
0.009849901
0.008784794
0.0079748514
0.0073464929
0.0068437512
0.0064317061
0.0060880378
0.005796607
0.0055458293
0.005327484
0.0051351329
0.0049637818
0.0048097592
0.0046699644
0.0045417124
0.0044231586
0.0043129022
0.0042094278
0.0041114227
0.0040182405
0.0039292143
0.0038433302
0.003760046
0.0036794986
0.0036014147
0.0035249735
0.0034501389
0.0033775091
0.0033072339
0.0032389829
0.0031731704
0.0031109619
0.0030532848
0.0030007035
0.0029544574
0.0029168508
0.0028897979
0.0028747115
0.0028745568
0.0028922212
0.002928381
0.0029829966
0.003055733
0.0031451209
0.0032483351
0.0033619125
0.003481717
0.0036020716
0.0037164877
0.0038163354
0.0038927148
0.003939507
0.0039542388
0.0039383564
0.0038970176
0.0038360211
0.0037605671
0.0036761824
0.0035861006
0.0034928769
0.0033986793
0.0033050235
0.0032113125
0.0031190543
0.0030278564
0.0029369364
0.002847231
0.0027577126
0.0026686278
0.0025797025
0.0024887721
0.0023963381
0.002302762
0.0022085071
0.0021129249
0.0020154078
0.0019169611
0.0018163841
0.0017145161
0.0016111111
0.0015062015
0.0014004405
0.0012933701
0.0011863805
0.0010790798
0.00097332517
0.00086852269
0.00077122464
0.00066895124
0.00062132368
0.00044263322
0.0010835155
-0.00069445297
0.021630667
0.020263557
0.018636648
0.016827587
0.0149294
0.013098451
0.011478068
0.010139075
0.0090789576
0.0082509924
0.0075967778
0.0070680336
0.0066321403
0.0062672554
0.0059573114
0.0056904121
0.0054579308
0.0052532075
0.0050710192
0.004907415
0.0047591511
0.0046234588
0.0044983039
0.0043821329
0.0042734089
0.0041707789
0.0040734392
0.0039806682
0.0038915081
0.0038053548
0.003722185
0.0036417296
0.0035632749
0.0034867023
0.0034124826
0.0033407809
0.0032713595
0.0032045775
0.0031414879
0.0030830107
0.0030297721
0.0029829668
0.0029447385
0.0029169925
0.0029012002
0.0029000881
0.0029163831
0.0029508644
0.003003498
0.0030739162
0.0031606965
0.0032611117
0.003371743
0.0034884965
0.0036058261
0.0037173473
0.0038146496
0.0038891873
0.0039348511
0.0039493377
0.0039340004
0.003893369
0.0038332052
0.0037586946
0.0036751863
0.0035857024
0.0034929646
0.0033992968
0.0033060055
0.0032124868
0.003120449
0.0030294505
0.0029387243
0.0028491963
0.0027598144
0.0026709031
0.0025820985
0.0024912185
0.0023990076
0.0023056619
0.0022112065
0.0021155058
0.0020180769
0.0019194709
0.0018188289
0.0017171438
0.0016138109
0.0015089618
0.0014032714
0.0012962342
0.001189252
0.0010819434
0.00097615592
0.00087131818
0.00077390886
0.0006716677
0.00062348464
0.00045359412
0.0010865165
-0.00066607808
0.020958985
0.019706616
0.018239464
0.016610623
0.014888258
0.013203209
0.011682619
0.010395382
0.0093487871
0.0085112184
0.0078375329
0.0072870555
0.0068300868
0.0064457447
0.0061183544
0.0058359926
0.0055897969
0.0053729415
0.0051800374
0.0050069152
0.0048501945
0.0047070258
0.0045752205
0.0044530852
0.0043390458
0.0042317107
0.0041301474
0.004033572
0.0039410613
0.0038519632
0.0037661182
0.0036832445
0.0036027135
0.0035243454
0.0034484956
0.0033753319
0.0033046939
0.003236898
0.0031728939
0.0031135866
0.003059652
0.0030122454
0.0029733649
0.0029448922
0.0029283406
0.0029262284
0.002941125
0.0029738889
0.003024497
0.0030925536
0.0031766805
0.0032742443
0.0033818773
0.0034955315
0.003609788
0.0037183749
0.0038131112
0.0038857317
0.0039302578
0.0039444829
0.0039296456
0.0038897092
0.0038303719
0.0037568015
0.003674116
0.0035854264
0.0034930317
0.0033999574
0.0033069718
0.0032136025
0.0031217173
0.0030308067
0.0029401666
0.0028507356
0.0027614321
0.0026726365
0.0025839146
0.0024931435
0.0024011273
0.0023079015
0.0022135226
0.0021180559
0.0020206406
0.0019218727
0.0018213213
0.0017195893
0.0016160284
0.001511327
0.0014057515
0.0012987647
0.0011918488
0.0010845796
0.00097878632
0.00087395225
0.00077644527
0.00067427212
0.00062537426
0.00046388797
0.0010837493
-0.00063560959
0.020334547
0.019186411
0.017860132
0.016390277
0.014825914
0.013276041
0.011852389
0.01062045
0.0095944438
0.0087547814
0.0080676916
0.007499764
0.0070246277
0.006622764
0.0062791687
0.00598214
0.0057227525
0.0054940892
0.0052906556
0.0051081239
0.0049429952
0.0047923454
0.004653862
0.0045257274
0.0044063205
0.0042942124
0.004188365
0.0040879297
0.0039920004
0.0038998864
0.0038113133
0.0037259749
0.003643308
0.0035630876
0.0034855665
0.0034109047
0.0033390044
0.0032701497
0.0032051966
0.003145028
0.003090358
0.003042307
0.0030027413
0.0029735062
0.0029561432
0.0029529882
0.0029664552
0.0029974607
0.003045999
0.0031116519
0.0031930807
0.0032877425
0.0033923256
0.0035028311
0.0036139646
0.0037195831
0.0038116797
0.0038823864
0.003925748
0.0039396765
0.0039252878
0.0038860318
0.0038275287
0.0037548974
0.0036730241
0.0035851313
0.0034931572
0.003400618
0.0033079311
0.0032147872
0.0031230273
0.0030321457
0.0029415535
0.0028521385
0.0027628048
0.0026740331
0.0025853301
0.0024946227
0.0024027499
0.0023096323
0.002215396
0.0021200756
0.0020227201
0.0019241032
0.0018237725
0.0017218851
0.0016182433
0.0015136189
0.0014078843
0.0013009071
0.0011941302
0.0010868938
0.00098115089
0.00087636992
0.00077878155
0.00067671992
0.00062697589
0.00047334182
0.0010751206
-0.00060331808
0.019752789
0.018699412
0.017497675
0.016168276
0.014745778
0.013320691
0.011990412
0.010816012
0.0098163221
0.0089811602
0.0082863398
0.0077051873
0.0072148769
0.0067975692
0.0064391649
0.0061283964
0.0058564419
0.0056163792
0.0054026699
0.0052108865
0.0050374376
0.0048793357
0.0047341706
0.0046000184
0.004475207
0.0043582713
0.0042480867
0.0041437415
0.0040443322
0.0039491362
0.003857783
0.0037699347
0.0036850754
0.0036029473
0.0035237129
0.0034475162
0.0033743088
0.0033043501
0.003238412
0.0031773494
0.0031219043
0.003073165
0.0030328786
0.0030028444
0.0029846184
0.0029803764
0.0029923801
0.0030215863
0.0030680114
0.0031312184
0.0032099047
0.0033016145
0.0034030964
0.0035104037
0.003618366
0.0037209824
0.0038103693
0.0038791625
0.0039213284
0.0039349252
0.0039209297
0.0038823382
0.0038246662
0.0037529719
0.0036719306
0.0035847423
0.0034933983
0.0034012901
0.0033088936
0.003216
0.0031243656
0.0030335609
0.0029430334
0.0028535753
0.0027641574
0.0026753524
0.0025865748
0.0024958371
0.0024040321
0.0023109795
0.0022168553
0.0021216395
0.0020243763
0.0019259073
0.0018256893
0.0017238716
0.0016204564
0.0015158272
0.0014099764
0.0013030562
0.0011961898
0.0010888381
0.00098323532
0.00087847829
0.00078084558
0.00067895275
0.00062827431
0.00048181882
0.0010609286
-0.00056958149
0.01920964
0.018242457
0.017151098
0.015946001
0.014650833
0.013340594
0.012099595
0.01098387
0.010015016
0.0091900495
0.0084927219
0.0079024461
0.0073999915
0.0069694241
0.0065977393
0.0062742813
0.0059904847
0.0057395154
0.0055158539
0.0053150289
0.0051333893
0.0049678995
0.004816076
0.0046759072
0.0045456709
0.0044238674
0.0043093016
0.0042010025
0.0040980591
0.003999721
0.0039055377
0.0038151355
0.0037280307
0.0036439411
0.0035629508
0.003485182
0.0034106237
0.0033395159
0.0032725554
0.003210565
0.0031543045
0.0031048324
0.0030637878
0.0030329162
0.0030137759
0.0030084007
0.0030189061
0.0030462728
0.0030905413
0.0031512601
0.0032271598
0.0033158683