/*--------------------------------*- C++ -*----------------------------------*\
| =========                 |                                                 |
| \\      /  F ield         | OpenFOAM: The Open Source CFD Toolbox           |
|  \\    /   O peration     | Version:  2206                                  |
|   \\  /    A nd           | Website:  www.openfoam.com                      |
|    \\/     M anipulation  |                                                 |
\*---------------------------------------------------------------------------*/
FoamFile
{
    version     2.0;
    format      ascii;
    arch        "LSB;label=32;scalar=64";
    class       surfaceScalarField;
    location    "1400";
    object      phi;
}
// * * * * * * * * * * * * * * * * * * * * * * * * * * * * * * * * * * * * * //

dimensions      [0 3 -1 0 0 0 0];

oriented        oriented;

internalField   nonuniform List<scalar> 
14782
(
0.00061770143
8.7780557e-05
-0.00070548199
0.00051030743
0.000107394
0.0004001363
0.00011017113
0.00030667293
9.346337e-05
0.00023999867
6.6674267e-05
0.00019925811
4.0740554e-05
0.00017534056
2.3917552e-05
0.00016117004
1.4170525e-05
0.00015176145
9.4085906e-06
0.00014419385
7.5675971e-06
0.00013732369
6.8701631e-06
0.00013096177
6.3619172e-06
0.00012515271
5.8090649e-06
0.00011985969
5.2930177e-06
0.00011502481
4.8348741e-06
0.00011062197
4.402846e-06
0.0001066155
4.0064703e-06
0.0001029238
3.6917001e-06
9.9496007e-05
3.4277897e-06
9.6312414e-05
3.1835933e-06
9.33508e-05
2.9616143e-06
9.0576334e-05
2.7744657e-06
8.796768e-05
2.608654e-06
8.5515429e-05
2.4522504e-06
8.3206774e-05
2.3086551e-06
8.1023142e-05
2.1836329e-06
7.8953565e-05
2.0695764e-06
7.6993262e-05
1.9603028e-06
7.5134922e-05
1.8583403e-06
7.3369096e-05
1.7658261e-06
7.1690662e-05
1.678434e-06
7.0097269e-05
1.5933926e-06
6.8584726e-05
1.5125437e-06
6.7148336e-05
1.4363895e-06
6.5785909e-05
1.3624274e-06
6.4496533e-05
1.2893753e-06
6.3278481e-05
1.218052e-06
6.2130752e-05
1.1477297e-06
6.1054271e-05
1.0764803e-06
6.0050772e-05
1.0034992e-06
5.9121469e-05
9.2930278e-07
5.8268066e-05
8.5340296e-07
5.7493735e-05
7.7433149e-07
5.6800817e-05
6.929184e-07
5.6197947e-05
6.0286938e-07
5.5688988e-05
5.0895872e-07
5.5283229e-05
4.0575973e-07
5.4988343e-05
2.9488534e-07
5.4802964e-05
1.8537889e-07
5.4725497e-05
7.7467745e-08
5.4751554e-05
-2.6057251e-08
5.4874274e-05
-1.2272044e-07
5.5081431e-05
-2.0715631e-07
5.5353189e-05
-2.7175848e-07
5.5676425e-05
-3.2323607e-07
5.6038347e-05
-3.6192209e-07
5.6405596e-05
-3.672486e-07
5.6741297e-05
-3.3570137e-07
5.7009257e-05
-2.6795948e-07
5.7195103e-05
-1.8584617e-07
5.7295746e-05
-1.0064353e-07
5.7314135e-05
-1.8388525e-08
5.7260354e-05
5.3781279e-08
5.7147714e-05
1.1263977e-07
5.6989646e-05
1.5806748e-07
5.6798116e-05
1.9153009e-07
5.6583891e-05
2.142253e-07
5.6354796e-05
2.2909467e-07
5.6116689e-05
2.3810746e-07
5.5874019e-05
2.4266942e-07
5.5630025e-05
2.4399396e-07
5.5386412e-05
2.4361357e-07
5.5144674e-05
2.4173763e-07
5.490607e-05
2.3860396e-07
5.4670515e-05
2.355557e-07
5.4438617e-05
2.3189749e-07
5.4207076e-05
2.3154065e-07
5.3971424e-05
2.3565215e-07
5.3732966e-05
2.384588e-07
5.3493041e-05
2.399242e-07
5.3252561e-05
2.4048032e-07
5.3011437e-05
2.4112356e-07
5.2768397e-05
2.4303999e-07
5.2523623e-05
2.4477423e-07
5.2276538e-05
2.4708554e-07
5.2027404e-05
2.4913321e-07
5.1776301e-05
2.5110381e-07
5.1523331e-05
2.5296994e-07
5.1269022e-05
2.543089e-07
5.101322e-05
2.5580144e-07
5.0756503e-05
2.5671715e-07
5.0498737e-05
2.5776666e-07
5.0240081e-05
2.5865585e-07
4.9980216e-05
2.5986436e-07
4.9718378e-05
2.6183876e-07
4.9454459e-05
2.6391886e-07
4.9209229e-05
2.4523018e-07
4.880662e-05
4.0260832e-07
4.8815838e-05
-9.2172827e-09
8.3943246e-07
0.00079176284
9.1061901e-05
-0.00079504419
0.00077878752
0.00012036932
0.00075194785
0.00013701079
0.00070879798
0.00013661324
0.00065526179
0.00012021046
0.00060117568
9.4826663e-05
0.00055308433
7.2008899e-05
0.00051315289
5.4101968e-05
0.00048029151
4.2269966e-05
0.00045279439
3.5064716e-05
0.00042916533
3.0499224e-05
0.00040850274
2.7024508e-05
0.00039019345
2.4118357e-05
0.00037375266
2.1733809e-05
0.00035883678
1.9750751e-05
0.00034524175
1.7997878e-05
0.0003327952
1.6453024e-05
0.00032132027
1.5166632e-05
0.00031068213
1.406592e-05
0.00030079056
1.3075171e-05
0.00029156758
1.2184595e-05
0.00028293153
1.1410513e-05
0.00027482003
1.072015e-05
0.00026718714
1.008514e-05
0.00025998939
9.5064043e-06
0.00025318319
8.9898319e-06
0.00024673581
8.5169613e-06
0.00024062451
8.0716006e-06
0.00023482685
7.6559992e-06
0.0002293196
7.2730782e-06
0.00022408597
6.9120646e-06
0.00021911456
6.564802e-06
0.00021439359
6.2335175e-06
0.00020991159
5.9183881e-06
0.00020566123
5.6127825e-06
0.00020163833
5.3122819e-06
0.00019783909
5.0172888e-06
0.00019426188
4.7249393e-06
0.00019090899
4.4293643e-06
0.00018778536
4.127138e-06
0.0001848964
3.8182627e-06
0.00018224945
3.5003515e-06
0.00017985483
3.1689516e-06
0.00017772279
2.8249561e-06
0.00017587649
2.4491645e-06
0.00017433035
2.0550994e-06
0.00017310403
1.63208e-06
0.00017221479
1.1841279e-06
0.00017166021
7.3996268e-07
0.00017143226
3.0541177e-07
0.00017151466
-1.0845666e-07
0.00017188318
-4.9123326e-07
0.00017249889
-8.2286923e-07
0.00017330675
-1.0796234e-06
0.00017425876
-1.275239e-06
0.00017530005
-1.4032177e-06
0.00017633682
-1.4040221e-06
0.00017726776
-1.2666326e-06
0.00017799948
-9.9968441e-07
0.00017849249
-6.7886017e-07
0.00017873892
-3.4706614e-07
0.0001787493
-2.8771164e-08
0.000178552
2.5107838e-07
0.00017818404
4.8059958e-07
0.00017768399
6.5812155e-07
0.0001770865
7.8901996e-07
0.00017642173
8.7899715e-07
0.00017571265
9.3816756e-07
0.00017497663
9.7413017e-07
0.00017422672
9.9258059e-07
0.0001734723
9.9841179e-07
0.00017271905
9.9686633e-07
0.00017197153
9.8926037e-07
0.00017123317
9.7696323e-07
0.0001705046
9.641239e-07
0.00016978656
9.4994139e-07
0.00016906813
9.4997087e-07
0.0001683375
9.662814e-07
0.00016759895
9.7700309e-07
0.00016685676
9.8211149e-07
0.00016611272
9.8452446e-07
0.00016536616
9.8768511e-07
0.00016461433
9.9486811e-07
0.00016385689
1.0022139e-06
0.00016309274
1.0112378e-06
0.00016232231
1.0195651e-06
0.00016154593
1.0274798e-06
0.00016076413
1.0347675e-06
0.00015997815
1.0402878e-06
0.00015918817
1.0457858e-06
0.0001583954
1.0494871e-06
0.00015760015
1.0530185e-06
0.00015680242
1.056382e-06
0.00015600295
1.0593375e-06
0.00015519575
1.0690333e-06
0.00015439427
1.065403e-06
0.00015358508
1.0544172e-06
0.00015256976
1.4179328e-06
0.00015201084
5.4970146e-07
2.5172199e-06
0.00083158259
8.6590053e-05
-0.00082711074
0.00083709835
0.00011485357
0.00084162582
0.00013248332
0.00084052985
0.00013770921
0.00083141377
0.00012932654
0.00081412943
0.000112111
0.00079128539
9.4852941e-05
0.00076529504
8.0092318e-05
0.00073805741
6.9507596e-05
0.00071108302
6.2039107e-05
0.00068521147
5.6370771e-05
0.00066073982
5.1496159e-05
0.00063767617
4.7182007e-05
0.00061591804
4.3491936e-05
0.00059540042
4.026837e-05
0.0005760938
3.7304499e-05
0.00055793906
3.4607767e-05
0.0005408421
3.2263593e-05
0.00052471889
3.0189123e-05
0.00050950433
2.8289736e-05
0.00049513306
2.6555861e-05
0.00048153135
2.5012224e-05
0.00046863889
2.3612607e-05
0.00045640819
2.231584e-05
0.00044479308
2.1121517e-05
0.00043374517
2.0037745e-05
0.00042322555
1.9036583e-05
0.00041320432
1.8092826e-05
0.00040365277
1.7207552e-05
0.00039454277
1.6383078e-05
0.00038585292
1.5601911e-05
0.00037756744
1.485028e-05
0.00036967132
1.412964e-05
0.00036215102
1.3438687e-05
0.00035499781
1.2765988e-05
0.00034820709
1.2103007e-05
0.00034177605
1.144833e-05
0.00033570503
1.0795955e-05
0.00032999911
1.0135284e-05
0.00032466709
9.459157e-06
0.00031971972
8.7656351e-06
0.00031517097
8.0490975e-06
0.00031103862
7.3013038e-06
0.00030734247
6.5211054e-06
0.00030411395
5.6776856e-06
0.0003013792
4.7898482e-06
0.00029915882
3.8524669e-06
0.00029746618
2.8767587e-06
0.00029629585
1.9102938e-06
0.00029563026
9.7100318e-07
0.00029543839
8.341939e-08
0.00029567708
-7.2992598e-07
0.00029628461
-1.4304019e-06
0.00029718017
-1.9751784e-06
0.00029828565
-2.3807244e-06
0.00029950603
-2.6235978e-06
0.00030070312
-2.6011064e-06
0.00030173697
-2.3004843e-06
0.00030248991
-1.7526224e-06
0.00030290911
-1.0980592e-06
0.00030298619
-4.2414637e-07
0.00030273825
2.1915967e-07
0.00030220488
7.8445328e-07
0.00030143794
1.2475353e-06
0.00030049034
1.6057263e-06
0.00029940973
1.8696285e-06
0.00029823747
2.0512582e-06
0.00029700598
2.1696571e-06
0.00029574012
2.2399939e-06
0.00029445865
2.2740455e-06
0.00029317505
2.2820157e-06
0.00029189794
2.2739713e-06
0.00029063417
2.2530352e-06
0.0002893886
2.2225288e-06
0.00028816255
2.1901748e-06
0.00028695616
2.1563313e-06
0.00028575217
2.1539604e-06
0.00028453563
2.1828282e-06
0.00028331422
2.1984066e-06
0.00028209258
2.2037505e-06
0.00028087139
2.2057218e-06
0.0002796488
2.2102704e-06
0.00027842106
2.2226115e-06
0.0002771868
2.2364687e-06
0.0002759444
2.2536369e-06
0.00027469402
2.2699484e-06
0.00027343597
2.2855317e-06
0.00027217096
2.2997766e-06
0.00027090047
2.3107742e-06
0.00026962501
2.3212457e-06
0.000268346
2.3284993e-06
0.0002670642
2.3348206e-06
0.00026577933
2.3412458e-06
0.00026449324
2.3454311e-06
0.00026319533
2.366947e-06
0.00026191109
2.3496426e-06
0.00026058221
2.3832938e-06
0.00025909845
2.901696e-06
0.00025782382
1.8243257e-06
4.5890828e-06
0.00086137982
8.225942e-05
-0.00085704918
0.00086791559
0.00010831779
0.00087520599
0.00012519292
0.00088223153
0.00013068368
0.00088613896
0.00012541911
0.00088512403
0.00011312593
0.00088103797
9.8939002e-05
0.00087431417
8.6816121e-05
0.00086522799
7.859378e-05
0.00085402438
7.3242716e-05
0.00084103322
6.936193e-05
0.0008264552
6.6074176e-05
0.00081065502
6.2982187e-05
0.00079422198
5.9924981e-05
0.00077749542
5.6994926e-05
0.00076070092
5.4099005e-05
0.0007439771
5.1331585e-05
0.00072741176
4.8828929e-05
0.00071108981
4.6511077e-05
0.0006950901
4.4289443e-05
0.00067946785
4.217811e-05
0.00066425009
4.0229982e-05
0.00064945844
3.8404264e-05
0.00063511113
3.6663143e-05
0.00062121703
3.501562e-05
0.00060777283
3.3481947e-05
0.00059477543
3.2033979e-05
0.00058222268
3.0645576e-05
0.0005701082
2.9322036e-05
0.00055842246
2.8068819e-05
0.0005471591
2.686527e-05
0.00053631429
2.5695087e-05
0.0005258833
2.4560636e-05
0.00051586198
2.3460006e-05
0.00050625034
2.2377627e-05
0.00049705229
2.1301058e-05
0.00048827271
2.0227908e-05
0.00047991801
1.9150656e-05
0.00047199832
1.8054969e-05
0.00046452736
1.6930121e-05
0.00045752117
1.5771824e-05
0.00045099938
1.4570886e-05
0.00044498524
1.3315442e-05
0.00043950561
1.2000737e-05
0.00043459371
1.058959e-05
0.00043027636
9.1071979e-06
0.00042656409
7.5647369e-06
0.0004234557
5.9851473e-06
0.00042093966
4.4263394e-06
0.00041899311
2.9175495e-06
0.00041758173
1.4948035e-06
0.00041665592
1.9588464e-07
0.00041614495
-9.1943889e-07
0.00041596547
-1.7956949e-06
0.00041603131
-2.4465677e-06
0.00041622475
-2.8170407e-06
0.0004163938
-2.770154e-06
0.00041640643
-2.3131174e-06
0.00041616664
-1.5128315e-06
0.00041563489
-5.6630965e-07
0.00041480743
4.0331685e-07
0.00041370318
1.3234124e-06
0.00041235941
2.1282255e-06
0.00041082087
2.7860737e-06
0.00040913296
3.2936321e-06
0.00040733756
3.6650335e-06
0.00040547203
3.9167853e-06
0.00040356666
4.0750224e-06
0.00040164533
4.1613294e-06
0.00039972635
4.1930229e-06
0.00039782292
4.1854524e-06
0.00039594389
4.1529971e-06
0.00039409648
4.1004456e-06
0.00039228551
4.0334949e-06
0.00039051207
3.9636209e-06
0.00038877487
3.8935284e-06
0.00038706857
3.8602557e-06
0.00038538573
3.8656751e-06
0.00038372163
3.8624996e-06
0.00038207233
3.8530541e-06
0.00038043492
3.8431319e-06
0.00037880594
3.8392505e-06
0.00037718056
3.8479873e-06
0.00037555615
3.8608807e-06
0.00037393014
3.8796455e-06
0.0003723018
3.8982972e-06
0.00037067076
3.9165672e-06
0.00036903724
3.9333007e-06
0.00036740223
3.9457765e-06
0.00036576598
3.9574964e-06
0.0003641295
3.9649788e-06
0.0003624935
3.9708196e-06
0.00036085715
3.9776023e-06
0.00035922278
3.9798001e-06
0.00035757657
4.0131577e-06
0.00035595026
3.9759537e-06
0.00035426166
4.0718904e-06
0.00035246754
4.6958174e-06
0.0003506595
3.6323622e-06
6.8091275e-06
0.00089167217
7.8534306e-05
-0.00088794706
0.00089770497
0.00010228499
0.00090491193
0.00011798596
0.0009118171
0.0001237785
0.00091698336
0.00012025285
0.00091991183
0.00011019746
0.00092055259
9.8298241e-05
0.00091940915
8.7959563e-05
0.00091752158
8.0481345e-05
0.00091496974
7.5794564e-05
0.0009116797
7.265197e-05
0.00090743149
7.0322378e-05
0.00090198008
6.8433599e-05
0.00089526461
6.6640457e-05
0.00088735808
6.4901455e-05
0.00087828224
6.3174838e-05
0.00086818757
6.1426259e-05
0.00085736221
5.9654292e-05
0.00084596894
5.7904344e-05
0.00083412874
5.6129641e-05
0.00082194004
5.436681e-05
0.00080948123
5.2688791e-05
0.00079683009
5.1055403e-05
0.00078406539
4.9427848e-05
0.00077125624
4.782477e-05
0.00075845869
4.6279497e-05
0.00074572554
4.4767127e-05
0.00073310418
4.3266937e-05
0.00072063242
4.1793796e-05
0.00070834056
4.0360679e-05
0.00069625758
3.894825e-05
0.00068441063
3.7542033e-05
0.00067282269
3.6148576e-05
0.0006615149
3.4767792e-05
0.00065051104
3.3381495e-05
0.00063983712
3.1974971e-05
0.0006295137
3.0551328e-05
0.00061955693
2.9107432e-05
0.00060998624
2.7625657e-05
0.00060082461
2.6091744e-05
0.00059209697
2.4499469e-05
0.00058383103
2.2836825e-05
0.00057605713
2.1089338e-05
0.00056881244
1.9245426e-05
0.00056212774
1.7274291e-05
0.0005560133
1.5221642e-05
0.00055046474
1.3113299e-05
0.00054547587
1.0974015e-05
0.00054104139
8.8608235e-06
0.00053714807
6.8108676e-06
0.0005337725
4.8703705e-06
0.00053087397
3.0944126e-06
0.00052838934
1.5651946e-06
0.00052625455
3.390923e-07
0.00052437819
-5.7020362e-07
0.00052261382
-1.052676e-06
0.0005208268
-9.831324e-07
0.00051894324
-4.2955386e-07
0.00051692422
5.0618575e-07
0.00051475956
1.5983512e-06
0.00051245362
2.7092587e-06
0.0005100189
3.7581349e-06
0.00050747549
4.6716303e-06
0.00050484706
5.4145008e-06
0.00050215863
5.9820617e-06
0.00049943466
6.3890069e-06
0.00049669855
6.6528939e-06
0.0004939702
6.8033764e-06
0.00049126603
6.8654943e-06
0.00048859903
6.8600283e-06
0.00048597852
6.805958e-06
0.00048341128
6.7202371e-06
0.00048090307
6.6086623e-06
0.00047845704
6.4795196e-06
0.00047607292
6.3477443e-06
0.00047374786
6.2185896e-06
0.00047148304
6.1250716e-06
0.00046927686
6.0718557e-06
0.00046711885
6.0205067e-06
0.00046499897
5.972941e-06
0.00046291073
5.9313645e-06
0.0004608488
5.9011877e-06
0.00045880714
5.8896458e-06
0.00045678175
5.8862669e-06
0.00045476889
5.8925043e-06
0.00045276654
5.9006476e-06
0.00045077322
5.909885e-06
0.0004487881
5.9184213e-06
0.0004468112
5.9226806e-06
0.00044484196
5.9267408e-06
0.00044288057
5.9263597e-06
0.00044092723
5.9241643e-06
0.00043898021
5.9246218e-06
0.00043704177
5.9182428e-06
0.00043509576
5.9591634e-06
0.00043317614
5.8955719e-06
0.00043119029
6.0577456e-06
0.00042913961
6.7464934e-06
0.00042690203
5.8699438e-06
9.1266981e-06
0.00092306631
7.520333e-05
-0.00091973534
0.00092858571
9.6765599e-05
0.00093515899
0.00011141268
0.00094157815
0.00011735934
0.00094672813
0.00011510288
0.00094997201
0.00010695358
0.00095156012
9.6710132e-05
0.00095193487
8.758481e-05
0.00095159578
8.082044e-05
0.00095108382
7.6306519e-05
0.00095043576
7.3300028e-05
0.00094958575
7.1172394e-05
0.00094843467
6.9584671e-05
0.00094685584
6.8219292e-05
0.00094477225
6.6985045e-05
0.00094204821
6.5898875e-05
0.000938543
6.4931471e-05
0.00093421507
6.3982226e-05
0.00092907013
6.3049276e-05
0.00092308748
6.2112291e-05
0.00091632065
6.1133641e-05
0.00090889712
6.0112328e-05
0.00090089281
5.9059715e-05
0.00089236648
5.7954177e-05
0.00088337045
5.6820795e-05
0.0008739573
5.5692652e-05
0.00086418357
5.4540859e-05
0.00085410342
5.3347087e-05
0.00084376945
5.2127762e-05
0.00083323323
5.0896903e-05
0.0008225473
4.9634177e-05
0.00081176273
4.83266e-05
0.0008009258
4.6985507e-05
0.00079007942
4.5614175e-05
0.00077926647
4.4194437e-05
0.00076852989
4.2711555e-05
0.00075791157
4.1169654e-05
0.00074745316
3.9565837e-05
0.00073719638
3.7882439e-05
0.00072718266
3.6105467e-05
0.00071745291
3.4229211e-05
0.0007080496
3.2240134e-05
0.0006990174
3.012154e-05
0.00069041436
2.784847e-05
0.0006822476
2.5441047e-05
0.00067449482
2.2974424e-05
0.00066717806
2.0430058e-05
0.00066032867
1.7823402e-05
0.00065396542
1.5224073e-05
0.00064808821
1.2688086e-05
0.00064267929
1.0279291e-05
0.00063769982
8.0738818e-06
0.00063309926
6.1657546e-06
0.00062884958
4.5887708e-06
0.00062482137
3.4580059e-06
0.00062082429
2.9444022e-06
0.00061680643
3.0347323e-06
0.00061279368
3.5831955e-06
0.00060880061
4.4992558e-06
0.00060483215
5.5668066e-06
0.00060089128
6.6501266e-06
0.00059697993
7.6694858e-06
0.00059310009
8.5514686e-06
0.00058925578
9.2588172e-06
0.00058545316
9.7846803e-06
0.00058169956
1.0142607e-05
0.00057800352
1.0348934e-05
0.00057437302
1.0433874e-05
0.00057081537
1.0423147e-05
0.00056733684
1.0338552e-05
0.00056394255
1.020025e-05
0.00056063563
1.0027155e-05
0.00055741812
9.8261771e-06
0.00055429055
9.6070912e-06
0.00055125077
9.3875213e-06
0.00054829478
9.1745802e-06
0.00054542086
8.9989959e-06
0.00054262755
8.8651655e-06
0.00053990798
8.7400704e-06
0.00053725219
8.6287348e-06
0.00053465205
8.5315019e-06
0.00053210074
8.4524982e-06
0.00052959116
8.3992271e-06
0.00052711809
8.3593406e-06
0.00052467659
8.3340007e-06
0.00052226331
8.3139279e-06
0.00051987545
8.2977398e-06
0.00051751091
8.2829645e-06
0.00051516844
8.2651547e-06
0.00051284657
8.2486098e-06
0.00051054451
8.2284132e-06
0.00050826137
8.2073116e-06
0.00050599429
8.1917037e-06
0.00050374493
8.1676022e-06
0.00050149555
8.2085414e-06
0.00049927975
8.1113743e-06
0.00049700067
8.3368177e-06
0.00049469132
9.0558457e-06
0.00049206131
8.4999538e-06
1.1573447e-05
0.00095544554
7.2203253e-05
-0.00095244547
0.00096053041
9.168073e-05
0.00096660044
0.00010534265
0.00097257039
0.00011138939
0.00097745356
0.00011021971
0.00098070067
0.00010370646
0.00098245348
9.4957321e-05
0.00098321366
8.6824631e-05
0.00098342414
8.0609964e-05
0.00098340936
7.6321296e-05
0.00098331989
7.3389498e-05
0.00098320456
7.1287733e-05
0.00098305968
6.9729543e-05
0.00098282112
6.8457858e-05
0.00098244314
6.7363024e-05
0.0009818883
6.6453713e-05
0.00098110689
6.571288e-05
0.00098003581
6.5053303e-05
0.00097862437
6.4460716e-05
0.00097678589
6.3950777e-05
0.00097442758
6.3491947e-05
0.00097150804
6.3031871e-05
0.00096800588
6.2561876e-05
0.00096388915
6.2070904e-05
0.00095917249
6.1537452e-05
0.0009539066
6.0958546e-05
0.00094811969
6.0327772e-05
0.00094183655
5.9630227e-05
0.00093508021
5.88841e-05
0.00092787672
5.8100396e-05
0.0009202593
5.7251596e-05
0.00091226394
5.6321961e-05
0.00090392215
5.5327294e-05
0.00089526601
5.4270312e-05
0.00088633395
5.3126503e-05
0.00087716544
5.1880061e-05
0.00086780247
5.0532623e-05
0.00085829222
4.9076089e-05
0.00084868431
4.749035e-05
0.00083902937
4.5760409e-05
0.00082937884
4.3879738e-05
0.00081978642
4.1832555e-05
0.00081030929
3.9598663e-05
0.00080100804
3.7149722e-05
0.00079193169
3.4517399e-05
0.0007831041
3.1802013e-05
0.00077454201
2.8992147e-05
0.00076627671
2.6088705e-05
0.00075833935
2.3161436e-05
0.0007507495
2.0277936e-05
0.0007435115
1.7517288e-05
0.00073661062
1.4974761e-05
0.00073003225
1.2744122e-05
0.0007237832
1.0837826e-05
0.00071778199
9.4592139e-06
0.00071188966
8.8367363e-06
0.00070606722
8.8571666e-06
0.00070033475
9.315671e-06
0.00069470373
1.0130276e-05
0.0006891798
1.109073e-05
0.00068377085
1.205908e-05
0.00067848024
1.296009e-05
0.00067330611
1.3725601e-05
0.00066824823
1.4316698e-05
0.00066330729
1.4725622e-05
0.00065848295
1.4966946e-05
0.00065377569
1.5056199e-05
0.00064918642
1.5023141e-05
0.00064471627
1.4893299e-05
0.00064036629
1.4688527e-05
0.00063613799
1.4428548e-05
0.0006320315
1.4133648e-05
0.00062804574
1.3811934e-05
0.00062417883
1.3474005e-05
0.00062042673
1.313962e-05
0.00061678442
1.2816891e-05
0.00061324763
1.2535787e-05
0.00060981326
1.229954e-05
0.00060647655
1.2076777e-05
0.00060322927
1.187601e-05
0.00060006344
1.1697341e-05
0.0005969716
1.1544334e-05
0.00059394592
1.1424901e-05
0.00059098022
1.1325048e-05
0.00058806847
1.1245743e-05
0.00058520606
1.1176345e-05
0.00058238883
1.1114966e-05
0.00057961331
1.1058484e-05
0.00057687687
1.1001597e-05
0.00057417687
1.0948605e-05
0.00057151134
1.0893945e-05
0.00056887813
1.0840525e-05
0.00056627317
1.0796663e-05
0.00056369721
1.0743559e-05
0.00056113124
1.0774514e-05
0.00055860734
1.0635269e-05
0.00055602642
1.0917743e-05
0.00055344666
1.1635603e-05
0.00055043936
1.1507258e-05
1.418005e-05
0.00098885085
6.9472961e-05
-0.00098612056
0.00099352941
8.7002167e-05
0.00099916061
9.9711458e-05
0.0010047428
0.00010580723
0.0010094004
0.00010556208
0.0010126249
0.00010048201
0.0010144741
9.3108108e-05
0.0010153734
8.5925331e-05
0.0010157595
8.0223818e-05
0.0010159318
7.6148997e-05
0.0010160301
7.329125e-05
0.0010160999
7.1217915e-05
0.0010161688
6.9660599e-05
0.0010162223
6.8404369e-05
0.0010162322
6.7353095e-05
0.0010161957
6.6490203e-05
0.0010161086
6.580007e-05
0.0010159443
6.5217553e-05
0.0010156818
6.4723259e-05
0.0010152967
6.4335884e-05
0.0010147537
6.4034933e-05
0.0010140118
6.3773697e-05
0.001013031
6.3542714e-05
0.0010117499
6.3352037e-05
0.0010101056
6.3181706e-05
0.0010080608
6.300334e-05
0.0010055837
6.2804882e-05
0.0010026434
6.2570562e-05
0.00099923944
6.2288041e-05
0.00099538573
6.1954107e-05
0.00099108455
6.1552778e-05
0.00098633747
6.1069036e-05
0.00098114921
6.0515555e-05
0.00097552869
5.9890836e-05
0.00096948798
5.9167206e-05
0.00096304124
5.8326806e-05
0.00095620392
5.7369942e-05
0.00094899262
5.6287385e-05
0.00094142614
5.5056835e-05
0.00093352993
5.3656617e-05
0.0009253353
5.2074374e-05
0.00091687794
5.0289915e-05
0.00090820035
4.8276252e-05
0.00089934118
4.6008884e-05
0.00089038003
4.3478556e-05
0.00088141239
4.0769656e-05
0.0008724718
3.7932728e-05
0.00086357936
3.4981147e-05
0.00085476899
3.197181e-05
0.00084608003
2.8966896e-05
0.00083755303
2.6044291e-05
0.0008292249
2.3302889e-05
0.00082112415
2.0844875e-05
0.00081325847
1.87035e-05
0.00080567136
1.704632e-05
0.00079834482
1.6163281e-05
0.00079119835
1.6003634e-05
0.00078419631
1.6317714e-05
0.00077730634
1.7020246e-05
0.00077052879
1.7868273e-05
0.00076387874
1.8709136e-05
0.00075736337
1.9475459e-05
0.00075098704
2.0101931e-05
0.00074475979
2.0543942e-05
0.00073868799
2.0797427e-05
0.00073277208
2.0882858e-05
0.00072701314
2.0815138e-05
0.00072141217
2.0624106e-05
0.00071596852
2.033695e-05
0.00071068082
1.9976233e-05
0.00070554862
1.9560744e-05
0.00070057083
1.9111442e-05
0.0006957452
1.8637556e-05
0.00069106836
1.8150851e-05
0.00068653477
1.7673205e-05
0.00068213857
1.7213091e-05
0.0006778741
1.6800261e-05
0.00067373669
1.6436951e-05
0.00066972202
1.6091444e-05
0.00066582325
1.5774784e-05
0.00066203321
1.5487384e-05
0.00065834453
1.523301e-05
0.00065474899
1.5020445e-05
0.00065123963
1.4834405e-05
0.00064780949
1.4675882e-05
0.00064445273
1.4533109e-05
0.00064116387
1.4403827e-05
0.00063793801
1.4284339e-05
0.00063477107
1.4168536e-05
0.00063165896
1.4060717e-05
0.00062859829
1.3954619e-05
0.00062558565
1.385316e-05
0.00062261573
1.3766582e-05
0.00061968816
1.3671138e-05
0.00061678271
1.3679963e-05
0.00061392953
1.3488445e-05
0.0006110274
1.3819874e-05
0.00060815671
1.4506294e-05
0.00060476699
1.4896978e-05
1.6977187e-05
0.0010233194
6.6956774e-05
-0.0010208032
0.0010276172
8.2704404e-05
0.0010328345
9.4494099e-05
0.0010380565
0.00010058521
0.0010425082
0.00010111041
0.0010457124
9.7277864e-05
0.0010476624
9.1158031e-05
0.0010486978
8.4889926e-05
0.001049208
7.9713657e-05
0.0010494772
7.5879805e-05
0.0010496544
7.3114007e-05
0.0010498008
7.1071589e-05
0.0010499409
6.9520445e-05
0.0010500662
6.8279067e-05
0.0010501687
6.7250573e-05
0.0010502508
6.6408161e-05
0.001050323
6.5727853e-05
0.0010503755
6.5165036e-05
0.0010503911
6.470769e-05
0.0010503726
6.4354401e-05
0.0010503163
6.4091158e-05
0.0010502059
6.3884156e-05
0.0010500257
6.3722852e-05
0.0010497573
6.3620492e-05
0.0010493751
6.356393e-05
0.0010488502
6.3528195e-05
0.0010481506
6.3504441e-05
0.0010472307
6.3490496e-05
0.0010460454
6.3473343e-05
0.0010445638
6.3435672e-05
0.0010427518
6.3364854e-05
0.0010405788
6.3241962e-05
0.001038038
6.3056357e-05
0.0010351258
6.2803041e-05
0.0010318315
6.2461562e-05
0.0010281431
6.2015221e-05
0.0010240493
6.1463716e-05
0.0010195428
6.0793829e-05
0.0010146199
5.9979747e-05
0.0010092765
5.9000097e-05
0.0010035076
5.7843267e-05
0.00099730938
5.648809e-05
0.00099068136
5.4904281e-05
0.00098361968
5.3070558e-05
0.00097613354
5.0964702e-05
0.00096828443
4.8618762e-05
0.00096014165
4.6075505e-05
0.00095174969
4.3373114e-05
0.0009431505
4.0570997e-05
0.00093439041
3.7726989e-05
0.00092552542
3.4909279e-05
0.00091662264
3.2205666e-05
0.0009077451
2.972242e-05
0.00089891892
2.7529677e-05
0.00089024433
2.5720913e-05
0.00088186061
2.4546996e-05
0.00087376422
2.4100028e-05
0.00086582734
2.4254595e-05
0.00085797275
2.487483e-05
0.00085021943
2.5621595e-05
0.00084256939
2.6359174e-05
0.00083502081
2.7024038e-05
0.00082759188
2.7530864e-05
0.00082030663
2.7829189e-05
0.00081317564
2.7928419e-05
0.00080620464
2.7853865e-05
0.00079940428
2.7615497e-05
0.00079278144
2.7246946e-05
0.00078633719
2.6781202e-05
0.00078007228
2.6241134e-05
0.0007739885
2.5644532e-05
0.00076808551
2.5014428e-05
0.00076236134
2.4361723e-05
0.00075681284
2.3699357e-05
0.00075143436
2.3051681e-05
0.00074622014
2.242731e-05
0.00074116461
2.185579e-05
0.00073626261
2.1338952e-05
0.00073150975
2.08443e-05
0.00072690003
2.0384508e-05
0.00072242726
1.9960153e-05
0.00071808456
1.9575708e-05
0.00071386367
1.9241335e-05
0.00070975719
1.8940886e-05
0.00070575736
1.8675715e-05
0.00070185727
1.8433199e-05
0.00069805021
1.821088e-05
0.00069432993
1.8004627e-05
0.00069069085
1.7807613e-05
0.00068712737
1.7624193e-05
0.0006836346
1.7447394e-05
0.00068020775
1.7280011e-05
0.00067684018
1.7134153e-05
0.00067353024
1.6981072e-05
0.00067025652
1.6953686e-05
0.00066704708
1.6697884e-05
0.00066379812
1.7068833e-05
0.00066061058
1.7693833e-05
0.00065682062
1.8686944e-05
1.9995374e-05
0.0010588805
6.4614978e-05
-0.0010565387
0.0010628271
7.875781e-05
0.0010676553
8.9665841e-05
0.001072539
9.5701552e-05
0.0010767868
9.686262e-05
0.0010799563
9.4108364e-05
0.0010819943
8.9120064e-05
0.0010831641
8.3720079e-05
0.0010838038
7.9073975e-05
0.0010841736
7.5510013e-05
0.0010844216
7.2866025e-05
0.0010846172
7.0875957e-05
0.0010847926
6.9345005e-05
0.0010849508
6.8120908e-05
0.0010850899
6.7111431e-05
0.001085214
6.6284121e-05
0.0010853265
6.561537e-05
0.0010854235
6.5067978e-05
0.0010855054
6.4625762e-05
0.0010855751
6.4284745e-05
0.001085638
6.4028219e-05
0.0010856889
6.3833297e-05
0.0010857133
6.3698426e-05
0.0010857111
6.3622718e-05
0.0010856807
6.359436e-05
0.0010856107
6.3598174e-05
0.0010854902
6.3624911e-05
0.0010853042
6.3676531e-05
0.0010850327
6.3744826e-05
0.0010846545
6.3813875e-05
0.0010841432
6.3876176e-05
0.0010834635
6.3921628e-05
0.0010825816
6.3938284e-05
0.0010814718
6.391285e-05
0.0010801008
6.3832547e-05
0.0010784414
6.367462e-05
0.0010764811
6.3423977e-05
0.0010742029
6.3072088e-05
0.0010715883
6.2594333e-05
0.0010686167
6.1971628e-05
0.0010652653
6.119472e-05
0.0010615095
6.0243844e-05
0.0010573235
5.9090307e-05
0.0010526779
5.7716213e-05
0.0010475344
5.6108163e-05
0.0010418733
5.4279864e-05
0.0010357037
5.2245066e-05
0.0010290422
5.0034605e-05
0.0010219068
4.7706465e-05
0.0010143212
4.5312519e-05
0.0010063212
4.2909372e-05
0.00099795841
4.0568416e-05
0.00098930118
3.8379649e-05
0.00098041108
3.6419773e-05
0.00097138045
3.475154e-05
0.0009624027
3.3524753e-05
0.00095361596
3.288676e-05
0.00094502131
3.2849251e-05
0.00093659719
3.329895e-05
0.00092828147
3.393731e-05
0.00091999067
3.4649976e-05
0.00091172154
3.5293166e-05
0.00090352581
3.5726597e-05
0.00089542308
3.5931916e-05
0.00088741942
3.5932085e-05
0.00087953872
3.5734558e-05
0.00087180787
3.5346346e-05
0.00086423877
3.4816054e-05
0.00085683815
3.4181823e-05
0.00084961676
3.3462524e-05
0.00084258322
3.2678069e-05
0.00083574022
3.185743e-05
0.00082908909
3.1012847e-05
0.00082263034
3.0158107e-05
0.00081636083
2.9321196e-05
0.00081027717
2.8510964e-05
0.00080437624
2.7756724e-05
0.00079865405
2.7061145e-05
0.00079310677
2.6391575e-05
0.00078772942
2.5761858e-05
0.00078251701
2.5172565e-05
0.00077746348
2.4629242e-05
0.000772561
2.4143809e-05
0.00076780218
2.3699708e-05
0.00076317877
2.3299127e-05
0.0007586831
2.292887e-05
0.00075430746
2.2586519e-05
0.00075004436
2.2267722e-05
0.0007458869
2.1965078e-05
0.00074182799
2.1683105e-05
0.00073786122
2.141416e-05
0.00073398037
2.1160861e-05
0.00073017742
2.0937101e-05
0.00072644936
2.070913e-05
0.0007227735
2.0629548e-05
0.00071917586
2.029553e-05
0.00071554948
2.0695209e-05
0.0007120148
2.1228521e-05
0.00070779759
2.2904151e-05
2.3265624e-05
0.0010955681
6.241939e-05
-0.0010933725
0.0010991958
7.5130128e-05
0.0011036609
8.5200731e-05
0.0011082266
9.1135827e-05
0.0011122727
9.2816516e-05
0.001115392
9.098909e-05
0.0011174982
8.7013846e-05
0.0011187886
8.2429673e-05
0.0011195522
7.8310377e-05
0.0011200252
7.5037097e-05
0.0011203507
7.2540485e-05
0.001120602
7.0624631e-05
0.001120816
6.9130991e-05
0.0011210033
6.7933602e-05
0.0011211665
6.6948241e-05
0.0011213113
6.6139319e-05
0.0011214428
6.5483897e-05
0.0011215611
6.4949729e-05
0.0011216679
6.4518961e-05
0.0011217667
6.4185935e-05
0.0011218586
6.3936302e-05
0.0011219412
6.3750688e-05
0.0011220147
6.3624883e-05
0.0011220807
6.3556747e-05
0.0011221395
6.3535589e-05
0.001122193
6.3544657e-05
0.0011222302
6.3587672e-05
0.0011222431
6.3663608e-05
0.0011222342
6.3753792e-05
0.0011221951
6.3852958e-05
0.0011221176
6.3953722e-05
0.0011219895
6.4049659e-05
0.0011217945
6.4133334e-05
0.0011215161
6.4191198e-05
0.001121132
6.4216716e-05
0.0011206136
6.4193012e-05
0.0011199349
6.4102651e-05
0.0011190721
6.3934892e-05
0.0011179941
6.3672325e-05
0.0011166753
6.3290455e-05
0.0011150982
6.2771787e-05
0.0011132365
6.2105586e-05
0.0011110594
6.1267325e-05
0.0011085332
6.0242474e-05
0.0011056165
5.9024841e-05
0.0011022641
5.7632301e-05
0.0010984335
5.607562e-05
0.0010940894
5.4378711e-05
0.0010892008
5.2595095e-05