/*--------------------------------*- C++ -*----------------------------------*\
| =========                 |                                                 |
| \\      /  F ield         | OpenFOAM: The Open Source CFD Toolbox           |
|  \\    /   O peration     | Version:  2206                                  |
|   \\  /    A nd           | Website:  www.openfoam.com                      |
|    \\/     M anipulation  |                                                 |
\*---------------------------------------------------------------------------*/
FoamFile
{
    version     2.0;
    format      ascii;
    arch        "LSB;label=32;scalar=64";
    class       volVectorField;
    location    "1400";
    object      U;
}
// * * * * * * * * * * * * * * * * * * * * * * * * * * * * * * * * * * * * * //

dimensions      [0 1 -1 0 0 0 0];

internalField   nonuniform List<vector> 
7480
(
(0.82756933 0.01116364 0)
(0.70301296 0.02021412 0)
(0.56656389 0.021427977 0)
(0.43054724 0.014559803 0)
(0.3305591 0.0062886017 0)
(0.26658238 0.0019096356 0)
(0.23007645 0.0022251931 0)
(0.20853412 -0.0002912206 0)
(0.19447453 -0.00042995617 0)
(0.18414602 -0.0001752507 0)
(0.17532205 1.033961e-06 0)
(0.16713332 5.4216857e-05 0)
(0.15956201 6.4874809e-05 0)
(0.15266092 6.6839525e-05 0)
(0.14637218 0.00024259615 0)
(0.14063545 0.00021147521 0)
(0.13540326 8.2971052e-05 0)
(0.13061688 5.041559e-05 0)
(0.12619038 4.4900707e-05 0)
(0.12207561 4.0457959e-05 0)
(0.11825136 3.6978193e-05 0)
(0.11468167 3.5028195e-05 0)
(0.11132981 3.2831751e-05 0)
(0.10817779 3.0199174e-05 0)
(0.10521297 2.791914e-05 0)
(0.10241519 2.6241024e-05 0)
(0.099765202 2.4470689e-05 0)
(0.097253826 2.2536919e-05 0)
(0.094874454 2.0842403e-05 0)
(0.09261612 1.9427606e-05 0)
(0.090469224 1.7977078e-05 0)
(0.088429605 1.649369e-05 0)
(0.086493598 1.5171769e-05 0)
(0.084655317 1.3986468e-05 0)
(0.082910215 1.2806006e-05 0)
(0.081256666 1.1643791e-05 0)
(0.07969312 1.0576849e-05 0)
(0.078217633 9.5600517e-06 0)
(0.076830087 8.538462e-06 0)
(0.075532411 7.5287124e-06 0)
(0.074326554 6.5742566e-06 0)
(0.073214005 5.657906e-06 0)
(0.072198244 4.7344459e-06 0)
(0.071282045 3.861191e-06 0)
(0.070468623 1.5376176e-05 0)
(0.069783122 8.10201e-06 0)
(0.069205445 1.0588425e-06 0)
(0.068768276 4.7445949e-08 0)
(0.068470443 -8.7738529e-07 0)
(0.068308703 -1.642274e-06 0)
(0.068279429 -2.3812196e-06 0)
(0.068376113 -2.8792342e-06 0)
(0.068587935 -3.2247155e-06 0)
(0.0688927 -3.3215883e-06 0)
(0.069268726 -3.4177954e-06 0)
(0.069704218 -3.5308738e-06 0)
(0.070169917 -3.2379536e-06 0)
(0.070618516 -2.76795e-06 0)
(0.071004167 -2.3781129e-06 0)
(0.07128608 -4.8271986e-06 0)
(0.071463809 -9.0786326e-07 0)
(0.071535398 -4.2213506e-07 0)
(0.071509216 -5.6741805e-08 0)
(0.071400731 1.1880432e-07 0)
(0.071227599 2.1568744e-07 0)
(0.071005803 2.7287654e-07 0)
(0.070749698 2.8738581e-07 0)
(0.070470919 2.8969714e-07 0)
(0.07017781 2.8406827e-07 0)
(0.069876629 2.7332885e-07 0)
(0.069572237 2.5867059e-07 0)
(0.06926752 2.4935124e-07 0)
(0.068964239 2.3864154e-07 0)
(0.068664391 2.2432349e-07 0)
(0.068368477 2.2041053e-07 0)
(0.068076854 2.1062081e-07 0)
(0.06778998 2.2121402e-07 0)
(0.067498359 2.5099966e-07 0)
(0.067201818 2.5738779e-07 0)
(0.066903051 2.6276262e-07 0)
(0.066603212 2.6150478e-07 0)
(0.066302962 2.5865348e-07 0)
(0.066000988 2.6485143e-07 0)
(0.065696668 2.622555e-07 0)
(0.065389777 2.6475818e-07 0)
(0.06508007 2.6285165e-07 0)
(0.064767904 2.6119629e-07 0)
(0.064453233 2.6008579e-07 0)
(0.064136653 2.5539797e-07 0)
(0.063818254 2.5464589e-07 0)
(0.063498416 2.4924627e-07 0)
(0.063177236 2.481991e-07 0)
(0.062855379 2.4223295e-07 0)
(0.062530744 2.4890042e-07 0)
(0.062209235 2.2502791e-07 0)
(0.061869102 3.059257e-07 0)
(0.061574518 9.4797734e-07 0)
(0.061137909 1.1416038e-05 0)
(0.060897786 1.9107034e-05 0)
(0.060226032 1.0977368e-05 0)
(0.95867211 0.028039621 0)
(0.94943343 0.038588941 0)
(0.93030723 0.041834897 0)
(0.88513414 0.039312487 0)
(0.82442533 0.032447774 0)
(0.75684583 0.023974251 0)
(0.69438844 0.015508042 0)
(0.64141229 0.0094015157 0)
(0.59778607 0.0060294589 0)
(0.56173271 0.0043629651 0)
(0.53124418 0.0035596987 0)
(0.5047881 0.0030815864 0)
(0.48144946 0.002703313 0)
(0.46060818 0.0023889341 0)
(0.44177678 0.0021301571 0)
(0.42463249 0.0018768487 0)
(0.4089688 0.0016556182 0)
(0.3945784 0.0014835281 0)
(0.38126935 0.0013368555 0)
(0.36890591 0.0012054267 0)
(0.35739379 0.0010890655 0)
(0.34663679 0.00099001346 0)
(0.33654598 0.00090294605 0)
(0.32705836 0.00082399474 0)
(0.31811996 0.00075338423 0)
(0.30967903 0.00069151881 0)
(0.30168844 0.00063576816 0)
(0.29411535 0.00058425796 0)
(0.2869342 0.00053732486 0)
(0.28011694 0.00049510774 0)
(0.2736385 0.00045626306 0)
(0.26748251 0.00041996552 0)
(0.26163586 0.00038644808 0)
(0.25608413 0.00035560901 0)
(0.25081544 0.00032674725 0)
(0.24582323 0.00029949112 0)
(0.24110297 0.00027388487 0)
(0.23665102 0.00024965573 0)
(0.23246756 0.00022635852 0)
(0.22855741 0.00020380683 0)
(0.22492713 0.00018205493 0)
(0.22158383 0.0001609601 0)
(0.21853896 0.00014027135 0)
(0.21580385 0.00012007228 0)
(0.21339582 0.00010072837 0)
(0.21135835 0.00010257953 0)
(0.20967134 5.678325e-05 0)
(0.20839383 3.7435859e-05 0)
(0.20752732 1.8393009e-05 0)
(0.20706206 6.9195801e-07 0)
(0.20698315 -1.5090733e-05 0)
(0.20726721 -2.8829595e-05 0)
(0.20787876 -3.9785257e-05 0)
(0.20875599 -4.7213037e-05 0)
(0.20983482 -5.213378e-05 0)
(0.21106246 -5.4647956e-05 0)
(0.2123474 -5.2610513e-05 0)
(0.21356297 -4.6037022e-05 0)
(0.21458713 -3.6489779e-05 0)
(0.21532896 -2.5580066e-05 0)
(0.21577047 -1.4602799e-05 0)
(0.21591778 -5.0823237e-06 0)
(0.21579335 2.6832523e-06 0)
(0.21543879 8.6460821e-06 0)
(0.21490255 1.2896685e-05 0)
(0.21422941 1.5721605e-05 0)
(0.21345887 1.7376891e-05 0)
(0.21262302 1.8220808e-05 0)
(0.21174583 1.8491621e-05 0)
(0.21084517 1.8358482e-05 0)
(0.20993468 1.7958486e-05 0)
(0.20902291 1.7430878e-05 0)
(0.20811548 1.6805758e-05 0)
(0.20721785 1.6116033e-05 0)
(0.20633197 1.5456165e-05 0)
(0.20545882 1.479193e-05 0)
(0.20459824 1.4463229e-05 0)
(0.2037227 1.4449623e-05 0)
(0.2028335 1.4268179e-05 0)
(0.20193872 1.3975182e-05 0)
(0.20104123 1.3631371e-05 0)
(0.20014185 1.330126e-05 0)
(0.1992375 1.3040953e-05 0)
(0.1983264 1.2774588e-05 0)
(0.19740767 1.2536359e-05 0)
(0.19648087 1.2285741e-05 0)
(0.19554676 1.2032464e-05 0)
(0.19460553 1.1774905e-05 0)
(0.1936587 1.1497467e-05 0)
(0.19270681 1.1228861e-05 0)
(0.19175098 1.0941606e-05 0)
(0.19079168 1.0663444e-05 0)
(0.18983071 1.0387362e-05 0)
(0.18886367 1.0122351e-05 0)
(0.18790328 9.9120268e-06 0)
(0.18690251 9.6354877e-06 0)
(0.18600213 1.1655375e-05 0)
(0.18477266 4.0018769e-05 0)
(0.18403296 6.5050476e-05 0)
(0.18205769 3.7089071e-05 0)
(0.96803961 0.029706034 0)
(0.97312728 0.037719542 0)
(0.98241334 0.041543247 0)
(0.98427335 0.041013811 0)
(0.97940169 0.037118817 0)
(0.96363856 0.03060034 0)
(0.93927905 0.024147368 0)
(0.91013335 0.019116589 0)
(0.87837452 0.015500486 0)
(0.84617826 0.012897416 0)
(0.81518011 0.010957598 0)
(0.78577909 0.0094047364 0)
(0.75804424 0.0081187865 0)
(0.73189355 0.0070811465 0)
(0.70722356 0.0062337875 0)
(0.68397862 0.0055130298 0)
(0.66212161 0.0048989385 0)
(0.64155974 0.0043850775 0)
(0.62218137 0.0039455097 0)
(0.60389808 0.0035581422 0)
(0.58663862 0.0032169389 0)
(0.57032029 0.0029218958 0)
(0.55486268 0.0026626781 0)
(0.540203 0.0024302692 0)
(0.52628906 0.0022225531 0)
(0.51306486 0.0020389253 0)
(0.5004781 0.001873978 0)
(0.48848914 0.0017232747 0)
(0.47706519 0.0015860472 0)
(0.46617255 0.0014617456 0)
(0.45578152 0.001347661 0)
(0.44587097 0.0012417777 0)
(0.43642368 0.001143861 0)
(0.42742261 0.0010533849 0)
(0.41885426 0.00096888098 0)
(0.41071113 0.00088933028 0)
(0.40298921 0.00081444553 0)
(0.3956868 0.00074350358 0)
(0.38880683 0.00067547986 0)
(0.38235777 0.00060978839 0)
(0.37635134 0.00054631761 0)
(0.37080143 0.00048466907 0)
(0.36572756 0.00042427453 0)
(0.36114997 0.00036522262 0)
(0.35709756 0.00030464816 0)
(0.3536204 0.0002852755 0)
(0.35071726 0.00018830228 0)
(0.3484335 0.00012881622 0)
(0.34676935 7.4247272e-05 0)
(0.34570844 2.404992e-05 0)
(0.34522291 -2.0780198e-05 0)
(0.34526858 -5.9453449e-05 0)
(0.34578846 -9.0554411e-05 0)
(0.34669231 -0.00011252295 0)
(0.34788751 -0.00012698926 0)
(0.3492832 -0.00013384623 0)
(0.35073785 -0.00012953153 0)
(0.35207715 -0.00011311314 0)
(0.35314524 -8.7362334e-05 0)
(0.35383354 -5.8706345e-05 0)
(0.35411663 -3.0441301e-05 0)
(0.35400611 -5.1051464e-06 0)
(0.3535333 1.5936297e-05 0)
(0.35275576 3.2070848e-05 0)
(0.35173774 4.359139e-05 0)
(0.35053866 5.1234744e-05 0)
(0.34921095 5.5708035e-05 0)
(0.34779774 5.7896933e-05 0)
(0.34633208 5.8462948e-05 0)
(0.34483891 5.7890397e-05 0)
(0.34333712 5.656611e-05 0)
(0.34183883 5.4843126e-05 0)
(0.34035249 5.2838245e-05 0)
(0.33888566 5.0658732e-05 0)
(0.3374414 4.852385e-05 0)
(0.33602089 4.6415098e-05 0)
(0.33462246 4.5199249e-05 0)
(0.33320608 4.4796311e-05 0)
(0.3317791 4.4013536e-05 0)
(0.3303513 4.2951919e-05 0)
(0.3289242 4.1805353e-05 0)
(0.32749732 4.0723836e-05 0)
(0.32606628 3.9820348e-05 0)
(0.32462817 3.8947886e-05 0)
(0.3231812 3.814855e-05 0)
(0.32172448 3.7337883e-05 0)
(0.32025866 3.6524362e-05 0)
(0.31878397 3.5700907e-05 0)
(0.31730222 3.4836063e-05 0)
(0.31581424 3.3984053e-05 0)
(0.31432146 3.3097715e-05 0)
(0.31282459 3.2222682e-05 0)
(0.31132605 3.1367402e-05 0)
(0.30982046 3.0511543e-05 0)
(0.30832329 2.988729e-05 0)
(0.30677662 2.8828584e-05 0)
(0.30535266 3.1784474e-05 0)
(0.30351519 7.2829631e-05 0)
(0.30231445 0.00011335579 0)
(0.2993211 6.9608267e-05 0)
(0.97008321 0.027083559 0)
(0.97643332 0.034265404 0)
(0.98549124 0.038379044 0)
(0.99345712 0.03921266 0)
(1.0016605 0.03617654 0)
(1.0025473 0.031201649 0)
(0.99958961 0.026292951 0)
(0.99334992 0.022246958 0)
(0.9842205 0.019368107 0)
(0.97252979 0.017346166 0)
(0.95870613 0.015775919 0)
(0.94314697 0.014349588 0)
(0.92572855 0.013014498 0)
(0.90738503 0.011780153 0)
(0.88857006 0.010669172 0)
(0.86956921 0.0096634957 0)
(0.8505843 0.0087600989 0)
(0.83173955 0.0079707268 0)
(0.81312532 0.0072748982 0)
(0.79483383 0.0066466053 0)
(0.77694525 0.0060787386 0)
(0.75950478 0.0055728451 0)
(0.74253652 0.005117724 0)
(0.72606069 0.0047030398 0)
(0.71009554 0.0043267096 0)
(0.69464307 0.0039882973 0)
(0.67969766 0.0036809939 0)
(0.66525627 0.003398738 0)
(0.651315 0.0031400653 0)
(0.6378641 0.0029037916 0)
(0.62489364 0.0026858341 0)
(0.61239817 0.0024830105 0)
(0.6003733 0.0022945481 0)
(0.58881352 0.0021193499 0)
(0.57771583 0.0019550582 0)
(0.56708266 0.0017999097 0)
(0.55691986 0.0016532698 0)
(0.54723335 0.0015139633 0)
(0.538032 0.0013802961 0)
(0.52932947 0.0012511978 0)
(0.52114279 0.0011263012 0)
(0.5134917 0.0010048719 0)
(0.50640145 0.00088598686 0)
(0.49989796 0.0007695756 0)
(0.49401762 0.00065140294 0)
(0.48879979 0.00053422716 0)
(0.48426473 0.0004272641 0)
(0.48041476 0.00031345869 0)
(0.47724514 0.00021004992 0)
(0.47473487 0.00011554354 0)
(0.47285262 3.126722e-05 0)
(0.47155209 -4.1414684e-05 0)
(0.47076697 -0.00010002643 0)
(0.47040111 -0.00014236021 0)
(0.47036742 -0.0001711496 0)
(0.47055683 -0.00018578534 0)
(0.47080342 -0.00017828031 0)
(0.47093553 -0.00015130769 0)
(0.47082484 -0.00010720912 0)
(0.47039006 -6.1006262e-05 0)
(0.46961512 -1.5068165e-05 0)
(0.46851241 2.6147335e-05 0)
(0.46711454 6.0113263e-05 0)
(0.46547024 8.5982159e-05 0)
(0.46363242 0.00010421585 0)
(0.46165091 0.00011598407 0)
(0.45957094 0.00012245203 0)
(0.45743095 0.00012503577 0)
(0.45526133 0.00012483847 0)
(0.45308557 0.00012269406 0)
(0.45092158 0.00011927981 0)
(0.44878091 0.00011517518 0)
(0.44667238 0.0001105943 0)
(0.44460346 0.00010574987 0)
(0.44257699 0.00010100448 0)
(0.4405935 9.6407847e-05 0)
(0.43864883 9.2979044e-05 0)
(0.43673442 9.0764345e-05 0)
(0.43484326 8.8393769e-05 0)
(0.432971 8.5840392e-05 0)
(0.43111355 8.3281913e-05 0)
(0.42926806 8.0906028e-05 0)
(0.42742909 7.8865842e-05 0)
(0.42559239 7.6943716e-05 0)
(0.423755 7.5176312e-05 0)
(0.42191501 7.3428509e-05 0)
(0.42007217 7.1699499e-05 0)
(0.41822605 6.9970588e-05 0)
(0.41637784 6.8192633e-05 0)
(0.414528 6.6441527e-05 0)
(0.41267743 6.4652681e-05 0)
(0.4108266 6.2882119e-05 0)
(0.40897772 6.1166868e-05 0)
(0.40712481 5.9430753e-05 0)
(0.40528386 5.8191211e-05 0)
(0.40339324 5.5978936e-05 0)
(0.40163066 5.9808732e-05 0)
(0.39944976 0.00010786308 0)
(0.39791834 0.00015853519 0)
(0.39438322 9.0363429e-05 0)
(0.9724417 0.025563697 0)
(0.97780076 0.032400571 0)
(0.98589088 0.03640837 0)
(0.99419873 0.037069786 0)
(1.0012787 0.034669196 0)
(1.0056313 0.030636534 0)
(1.0079698 0.02637318 0)
(1.0071202 0.022757427 0)
(1.0053111 0.020141696 0)
(1.0028022 0.018353404 0)
(0.99959506 0.017017139 0)
(0.99558982 0.015923704 0)
(0.99029721 0.014971673 0)
(0.98362657 0.014078946 0)
(0.97559248 0.013226032 0)
(0.96631869 0.012373508 0)
(0.95570467 0.011537665 0)
(0.94420212 0.010747382 0)
(0.93200755 0.010010167 0)
(0.91926348 0.0093178408 0)
(0.90608612 0.0086716376 0)
(0.89257844 0.0080778361 0)
(0.87881767 0.0075281458 0)
(0.86488985 0.0070128139 0)
(0.85087926 0.0065312975 0)
(0.8368541 0.0060858062 0)
(0.82287253 0.0056709182 0)
(0.80898919 0.0052816676 0)
(0.79525145 0.0049181112 0)
(0.78169583 0.0045802366 0)
(0.76835365 0.0042640796 0)
(0.75525562 0.0039664391 0)
(0.74242949 0.0036867731 0)
(0.72989871 0.003423898 0)
(0.71768672 0.0031748822 0)
(0.70582143 0.002937477 0)
(0.69433146 0.0027113638 0)
(0.6832337 0.0024955713 0)
(0.67254678 0.0022879304 0)
(0.66229424 0.002086832 0)
(0.6525026 0.0018915829 0)
(0.64320031 0.0017011037 0)
(0.63442008 0.0015141914 0)
(0.62619435 0.0013302897 0)
(0.61857304 0.001147675 0)
(0.61157644 0.00096754901 0)
(0.60520082 0.00078984883 0)
(0.59944141 0.00062367159 0)
(0.5942926 0.00046703526 0)
(0.58974558 0.00032328086 0)
(0.58578095 0.00019468363 0)
(0.58236666 8.3393471e-05 0)
(0.5794451 -7.1196803e-06 0)
(0.57693355 -7.4512909e-05 0)
(0.5747796 -0.00012075743 0)
(0.57283314 -0.00014199345 0)
(0.57091651 -0.00013415355 0)
(0.56891898 -0.00010090839 0)
(0.56679018 -4.5503124e-05 0)
(0.56449891 9.2662303e-06 0)
(0.56204819 6.4611004e-05 0)
(0.55944907 0.00011393143 0)
(0.55671872 0.00015398183 0)
(0.55388165 0.0001838277 0)
(0.5509654 0.00020407722 0)
(0.54799729 0.00021615818 0)
(0.5450039 0.00022150169 0)
(0.5420092 0.00022187277 0)
(0.53903308 0.00021867307 0)
(0.53609156 0.00021299018 0)
(0.53319697 0.00020572739 0)
(0.53035714 0.00019762412 0)
(0.52757933 0.00018896349 0)
(0.52486887 0.00018006465 0)
(0.52222685 0.00017142148 0)
(0.51965232 0.00016316253 0)
(0.51713937 0.00015644375 0)
(0.51469627 0.00015124129 0)
(0.51231196 0.00014607596 0)
(0.50997393 0.00014102805 0)
(0.50767317 0.0001362204 0)
(0.50540427 0.00013180785 0)
(0.50316056 0.00012795121 0)
(0.50093651 0.00012436311 0)
(0.49872791 0.00012106545 0)
(0.49653152 0.00011787063 0)
(0.49434576 0.00011476159 0)
(0.49216908 0.00011170225 0)
(0.49000145 0.00010862287 0)
(0.48784243 0.00010561371 0)
(0.48569193 0.00010259233 0)
(0.48354974 9.9617536e-05 0)
(0.4814173 9.6760379e-05 0)
(0.47928792 9.3872857e-05 0)
(0.47717701 9.1797698e-05 0)
(0.47502219 8.8175298e-05 0)
(0.47299591 9.267017e-05 0)
(0.47057738 0.00014354335 0)
(0.46878396 0.00019905035 0)
(0.46489963 0.00012793524 0)
(0.97463146 0.02451157 0)
(0.97932427 0.030794329 0)
(0.98639729 0.034469246 0)
(0.99381009 0.035113478 0)
(1.0002061 0.033234406 0)
(1.0048324 0.029796369 0)
(1.0073256 0.025983095 0)
(1.0083109 0.022699656 0)
(1.0079867 0.020248421 0)
(1.0074333 0.01852934 0)
(1.0068027 0.017263287 0)
(1.0060452 0.016264706 0)
(1.0050137 0.015424554 0)
(1.0035938 0.014654661 0)
(1.0016718 0.013930355 0)
(0.99918197 0.013260251 0)
(0.9958883 0.012639838 0)
(0.99173741 0.012046158 0)
(0.98671423 0.011471612 0)
(0.98083273 0.010899787 0)
(0.97402674 0.010331806 0)
(0.96648614 0.0097853101 0)
(0.95829817 0.0092605658 0)
(0.94952753 0.0087554144 0)
(0.94023144 0.0082720626 0)
(0.93046615 0.0078135747 0)
(0.92029102 0.007375733 0)
(0.90976241 0.0069546798 0)
(0.8989374 0.0065516265 0)
(0.88787218 0.0061677944 0)
(0.8766212 0.0058001585 0)
(0.86523945 0.0054466173 0)
(0.85377936 0.0051080316 0)
(0.84228764 0.0047842103 0)
(0.8308089 0.0044726621 0)
(0.81938852 0.0041714646 0)
(0.80807154 0.0038803895 0)
(0.79690257 0.0035987575 0)
(0.78592535 0.0033249156 0)
(0.77518386 0.003057535 0)
(0.76472168 0.0027960835 0)
(0.75458236 0.0025393999 0)
(0.74481261 0.0022862039 0)
(0.73545917 0.0020349103 0)
(0.72659951 0.0017872002 0)
(0.71817241 0.0015461909 0)
(0.71018667 0.001312721 0)
(0.70268321 0.0010878662 0)
(0.69568934 0.00087598264 0)
(0.68921486 0.00068088452 0)
(0.6832503 0.0005056104 0)
(0.67776723 0.0003533522 0)
(0.67271124 0.000228114 0)
(0.66802817 0.00013052145 0)
(0.66371786 6.4802409e-05 0)
(0.65950117 3.5142235e-05 0)
(0.65525014 3.9393365e-05 0)
(0.65098978 6.9615066e-05 0)
(0.64675145 0.00012486641 0)
(0.64253394 0.00017470503 0)
(0.63834484 0.00022727561 0)
(0.63418775 0.00027378914 0)
(0.63006252 0.00031061072 0)
(0.62597189 0.00033671907 0)
(0.62192177 0.00035268522 0)
(0.61791945 0.00035995414 0)
(0.61397349 0.00035999379 0)
(0.61009285 0.00035469645 0)
(0.60628583 0.00034557604 0)
(0.60255957 0.00033382865 0)
(0.59892024 0.0003204638 0)
(0.59537227 0.00030634357 0)
(0.5919181 0.00029180112 0)
(0.5885596 0.00027720838 0)
(0.58529561 0.00026315714 0)
(0.58212341 0.00024984032 0)
(0.57903667 0.00023826134 0)
(0.57603785 0.00022842427 0)
(0.57312218 0.00021910917 0)
(0.57027923 0.00021040443 0)
(0.56749869 0.00020230883 0)
(0.56477345 0.00019491346 0)
(0.56209586 0.00018836845 0)
(0.55945937 0.00018231551 0)
(0.55685864 0.00017675487 0)
(0.5542892 0.00017144547 0)
(0.55174808 0.0001663482 0)
(0.54923241 0.00016140445 0)
(0.5467408 0.00015651991 0)
(0.54427158 0.00015178809 0)
(0.5418239 0.00014710905 0)
(0.53939631 0.00014254265 0)
(0.53698905 0.00013819378 0)
(0.5345946 0.0001338269 0)
(0.53222717 0.00013063793 0)
(0.52982518 0.00012532426 0)
(0.52755132 0.00013004684 0)
(0.52491751 0.00018098826 0)
(0.52289031 0.00023850358 0)
(0.51869697 0.00018080883 0)
(0.97660417 0.02352569 0)
(0.98076521 0.029152454 0)
(0.98702341 0.032517705 0)
(0.99364122 0.033276258 0)
(0.99945054 0.0318158 0)
(1.0037641 0.028881776 0)
(1.0063113 0.02550554 0)
(1.0074656 0.022522884 0)
(1.0077815 0.02023689 0)
(1.0077598 0.018571938 0)
(1.0076612 0.017318943 0)
(1.0075561 0.01631884 0)
(1.0074351 0.01548499 0)
(1.0072537 0.014745281 0)
(1.0069496 0.01407179 0)
(1.0064832 0.013463968 0)
(1.0058091 0.012910704 0)
(1.0048721 0.012388028 0)
(1.0036126 0.011891167 0)
(1.0019766 0.011424707 0)
(0.99983434 0.010984272 0)
(0.99713211 0.010557113 0)
(0.99384485 0.010138253 0)
(0.98994751 0.0097199934 0)
(0.98539617 0.00930403 0)
(0.98027044 0.0088984319 0)
(0.9745978 0.0085017208 0)
(0.96840362 0.0081124674 0)
(0.96171232 0.0077331463 0)
(0.95454913 0.0073651287 0)
(0.94694369 0.0070052382 0)
(0.93893208 0.0066515008 0)
(0.93055153 0.0063058212 0)
(0.92183084 0.0059686415 0)
(0.91280739 0.0056374732 0)
(0.90352152 0.005310849 0)
(0.89401337 0.0049896919 0)
(0.88433008 0.0046740001 0)
(0.8745213 0.0043621158 0)
(0.86463836 0.0040529553 0)
(0.8547336 0.0037464857 0)
(0.84486067 0.0034419476 0)
(0.83507619 0.0031383772 0)
(0.82544001 0.0028343669 0)
(0.81601646 0.0025303605 0)
(0.80684466 0.0022353937 0)
(0.79792905 0.0019525478 0)
(0.78930116 0.0016798281 0)
(0.78099556 0.0014209529 0)
(0.77303969 0.0011798649 0)
(0.76544658 0.00096073145 0)
(0.75821175 0.00076815928 0)
(0.751309 0.00060661863 0)
(0.74473381 0.00047533099 0)
(0.7385082 0.000380735 0)
(0.73243946 0.00033294346 0)
(0.72643184 0.00032686524 0)
(0.72050595 0.00034715628 0)
(0.71468573 0.00039210033 0)
(0.70896713 0.00042985482 0)
(0.70336382 0.00047094283 0)
(0.69788363 0.00050609875 0)
(0.69252365 0.00053205854 0)
(0.68728197 0.00054771505 0)
(0.68216004 0.00055354837 0)
(0.67715793 0.00055099907 0)
(0.67227516 0.00054148225 0)
(0.66751266 0.00052687758 0)
(0.66287175 0.00050869078 0)
(0.65835337 0.00048813918 0)
(0.65395878 0.00046624932 0)
(0.64968963 0.00044391009 0)
(0.64554475 0.00042147428 0)
(0.64152311 0.0003993625 0)
(0.63762146 0.00037823317 0)
(0.63383543 0.00035830277 0)
(0.63015859 0.00034047894 0)
(0.62658837 0.0003247336 0)
(0.62312175 0.00030996282 0)
(0.61975143 0.0002963157 0)
(0.61646817 0.00028372464 0)
(0.61326458 0.000272225 0)
(0.61013256 0.00026194902 0)
(0.60706487 0.00025246754 0)
(0.60405533 0.00024375514 0)
(0.60109836 0.00023551724 0)
(0.59818975 0.00022768847 0)
(0.59532531 0.00022018311 0)
(0.59250226 0.00021287794 0)
(0.58971764 0.0002058626 0)
(0.58696952 0.00019901495 0)
(0.58425521 0.00019239013 0)
(0.58157364 0.00018612684 0)
(0.57891644 0.00017989156 0)
(0.57629629 0.00017524455 0)
(0.57365298 0.00016792641 0)
(0.57113855 0.00017243119 0)
(0.56829476 0.00022174351 0)
(0.56605094 0.00028058557 0)
(0.56156614 0.00022739039 0)
(0.97840424 0.02261238 0)
(0.9821069 0.027631643 0)
(0.98765287 0.030750931 0)
(0.99359337 0.031604329 0)
(0.9989007 0.030476839 0)
(1.0029375 0.027994524 0)
(1.0054619 0.025028822 0)
(1.0067084 0.022315747 0)
(1.0071905 0.020161951 0)
(1.0073592 0.018543637 0)
(1.0074503 0.017306196 0)
(1.0075307 0.016312044 0)
(1.0075943 0.015479431 0)
(1.0076645 0.014745289 0)
(1.0077026 0.014082888 0)
(1.0076884 0.013486555 0)
(1.0076299 0.012947275 0)
(1.0075105 0.012447411 0)
(1.0073047 0.011981637 0)
(1.0069901 0.011551597 0)
(1.0065373 0.011150261 0)
(1.0059085 0.010765862 0)
(1.0050648 0.010396112 0)
(1.0039606 0.010043627 0)
(1.0025173 0.0097055417 0)
(1.0006927 0.0093753369 0)
(0.99845767 0.0090485934 0)
(0.99577396 0.0087211714 0)
(0.99261783 0.0083950111 0)
(0.98901582 0.008073255 0)
(0.98496975 0.0077541557 0)
(0.98047939 0.0074363684 0)
(0.97554765 0.0071213079 0)
(0.97018324 0.0068095704 0)
(0.96439536 0.0064989557 0)
(0.95819726 0.0061879169 0)
(0.95160351 0.0058771318 0)
(0.9446317 0.0055664389 0)
(0.93729698 0.0052542959 0)
(0.92962071 0.0049395976 0)
(0.92163212 0.0046223655 0)
(0.91336474 0.0043019452 0)
(0.90485599 0.0039773014 0)
(0.8961525 0.0036471012 0)
(0.8872829 0.0033136079 0)
(0.87838172 0.0029863685 0)
(0.86949931 0.0026673015 0)
(0.86065091 0.0023571051 0)
(0.85186526 0.0020600844 0)
(0.84317995 0.0017804708 0)
(0.83463578 0.0015229987 0)
(0.82627216 0.0012931704 0)
(0.81812284 0.001096446 0)
(0.81020993 0.00093205838 0)
(0.80252727 0.00080706614 0)
(0.7951698 0.00073707783 0)
(0.7879996 0.00071323343 0)
(0.78099721 0.00071556869 0)
(0.7741163 0.00074215124 0)
(0.76733389 0.00076349141 0)
(0.76067386 0.00078763041 0)
(0.75414771 0.00080617766 0)
(0.74775515 0.00081629023 0)
(0.74150485 0.00081663502 0)
(0.73540789 0.00080773436 0)
(0.72946579 0.0007912033 0)
(0.7236782 0.00076835959 0)
(0.71804711 0.00074101467 0)
(0.71257283 0.00071067926 0)
(0.70725369 0.00067855604 0)
(0.70208867 0.00064560529 0)
(0.69707778 0.00061272421 0)
(0.69221903 0.00058029087 0)
(0.68750997 0.00054873385 0)
(0.68294595 0.00051875151 0)
(0.67852127 0.00049054867 0)
(0.67422951 0.00046498484 0)
(0.67006563 0.00044196845 0)
(0.66602615 0.00042038591 0)
(0.66210547 0.00040044835 0)
(0.65829592 0.00038206057 0)
(0.65459071 0.00036522339 0)
(0.65098179 0.0003500573 0)
(0.64746155 0.00033606624 0)
(0.64402315 0.00032319865 0)
(0.64066012 0.00031110748 0)
(0.63736707 0.00029969867 0)
(0.63413859 0.00028885591 0)
(0.63097055 0.00027842319 0)
(0.62785865 0.00026847782 0)
(0.62479954 0.00025887226 0)
(0.62178934 0.00024965453 0)
(0.61882575 0.00024099223 0)
(0.61589954 0.00023244599 0)
(0.61302169 0.00022594142 0)
(0.61013339 0.00021626865 0)
(0.60737667 0.00022015885 0)
(0.60431756 0.00026686923 0)
(0.60186276 0.00032738122 0)
(0.59708557 0.00027493355 0)
(0.98004878 0.021775113 0)
(0.98336015 0.026246683 0)
(0.98827203 0.029130963 0)
(0.99359836 0.030040302 0)
(0.99844642 0.029192555 0)
(1.0022392 0.027113338 0)
(1.0047324 0.024524547 0)
(1.0060781 0.022066232 0)
(1.0066882 0.02004774 0)
(1.006962 0.018487067 0)
(1.0071312 0.017270545 0)
(1.0072772 0.016283492 0)
(1.0074139 0.015452471 0)
(1.0075439 0.014722895 0)
(1.0076548 0.014067397 0)
(1.0077442 0.013475812 0)
(1.0078122 0.012939467 0)
(1.0078798 0.01244445 0)
(1.0079137 0.011986524 0)
(1.0079104 0.011564867 0)
(1.0078766 0.011173223 0)
(1.0078003 0.010803578 0)
(1.0076651 0.010453211 0)
(1.0074542 0.010122993 0)
(1.0071474 0.0098091677 0)
(1.0067179 0.0095061298 0)
(1.0061393 0.0092124159 0)
(1.0053729 0.0089283365 0)
(1.0043689 0.0086518088 0)
(1.0030936 0.0083795308 0)
(1.0015225 0.0081077275 0)
(0.99961116 0.0078335803 0)
(0.99734575 0.0075592078 0)
(0.99472958 0.0072856797 0)
(0.99175237 0.0070109932 0)
(0.98840176 0.0067337872 0)
(0.98466726 0.0064543972 0)
(0.98053932 0.0061721498 0)
(0.97601327 0.0058853001 0)
(0.97108561 0.0055929485 0)
(0.96575191 0.0052950501 0)
(0.96000809 0.0049906997 0)
(0.95385082 0.0046784105 0)
(0.94728205 0.0043575631 0)
(0.9402912 0.004029087 0)
(0.9329105 0.0036979876 0)
(0.925224 0.0033681545 0)
(0.91727945 0.0030436916 0)
(0.90911593 0.0027300423 0)
(0.90077418 0.0024313184 0)
(0.89230264 0.0021520836 0)
(0.88376028 0.0018978476 0)
(0.87521732 0.0016739022 0)
(0.86672405 0.0014811282 0)
(0.85827931 0.0013262661 0)
(0.8500813 0.0012214576 0)
(0.84219473 0.0011649547 0)
(0.83454482 0.0011450549 0)
(0.82696571 0.0011524836 0)
(0.81947116 0.0011571482 0)
(0.81208456 0.0011634517 0)
(0.80479169 0.0011643898 0)
(0.7975999 0.0011568195 0)
(0.79053718 0.0011394365 0)
(0.78362116 0.0011132626 0)
(0.77685442 0.0010801557 0)
(0.77024578 0.0010412478 0)
(0.76380636 0.00099841002 0)
(0.75753845 0.00095333367 0)
(0.75144175 0.00090718347 0)
(0.74551807 0.00086081825 0)
(0.73976881 0.00081517151 0)
(0.73419218 0.00077064947 0)
(0.72878614 0.00072767957 0)
(0.7235463 0.00068699716 0)
(0.71846682 0.00064877792 0)
(0.71354202 0.00061383919 0)
(0.70876666 0.00058202646 0)
(0.70413678 0.00055217059 0)
(0.69964742 0.00052451614 0)
(0.69529233 0.00049894422 0)
(0.69106566 0.00047543903 0)
(0.68695982 0.00045412145 0)
(0.68296717 0.00043443549 0)
(0.67908048 0.00041630653 0)
(0.67529258 0.000399337 0)
(0.67159714 0.00038340299 0)
(0.66798766 0.00036835531 0)
(0.66445877 0.00035400188 0)
(0.66100487 0.00034040361 0)
(0.65762121 0.00032738253 0)
(0.65430269 0.0003149722 0)
(0.65104576 0.00030336476 0)
(0.64784031 0.0002920099 0)
(0.64469561 0.00028319523 0)
(0.64155409 0.00027077274 0)
(0.63854886 0.00027366045 0)
(0.63526468 0.00031718224 0)
(0.6325976 0.00038023712 0)
(0.62751797 0.00032509363 0)
(0.98155103 0.020999847 0)
(0.98452552 0.024975322 0)
(0.98887683 0.027626392 0)
(0.99364586 0.028568915 0)
(0.99806795 0.027961762 0)
(1.0016233 0.026237508 0)
(1.0040693 0.023991442 0)
(1.0054955 0.021778741 0)
(1.0062274 0.019901964 0)
(1.0066068 0.018409318 0)
(1.006849 0.017221303 0)
(1.0070417 0.01624527 0)
(1.007211 0.015417767 0)
(1.0073653 0.014691914 0)
(1.0075039 0.014040786 0)
(1.0076261 0.013452876 0)
(1.0077345 0.012919189 0)
(1.0078325 0.012428324 0)
(1.007915 0.011974968 0)
(1.0079857 0.01155608 0)
(1.0080433 0.011166541 0)
(1.0081013 0.010799791 0)
(1.0081385 0.010454318 0)
(1.0081467 0.010129939 0)
(1.0081333 0.0098228701 0)
(1.0080889 0.0095296479 0)
(1.0080039 0.0092485888 0)
(1.0078646 0.0089786361 0)
(1.0076562 0.0087177867 0)
(1.0073588 0.0084633772 0)
(1.0069534 0.0082145058 0)
(1.0064073 0.0079704576 0)
(1.0056873 0.0077295038 0)
(1.0047663 0.0074897382 0)
(1.0036239 0.007248064 0)
(1.0022163 0.0070024331 0)
(1.0005372 0.0067539295 0)
(0.99857145 0.0065025023 0)
(0.99630217 0.0062467442 0)
(0.99371104 0.0059853012 0)
(0.99077803 0.0057177744 0)
(0.98748141 0.0054433333 0)
(0.98379758 0.0051603632 0)
(0.97970136 0.0048683388 0)
(0.97516245 0.0045670488 0)
(0.97014317 0.0042598449 0)
(0.96464265 0.0039499606 0)
(0.95867846 0.0036406713 0)
(0.95226515 0.0033372942 0)
(0.94542092 0.0030441273 0)
(0.93817223 0.002765478 0)
(0.93055849 0.0025062492 0)
(0.92263723 0.0022718451 0)
(0.91447768 0.002065754 0)
(0.90612417 0.0018917466 0)
(0.89770661 0.0017599844 0)
(0.88945427 0.0016732939 0)
(0.88138917 0.0016220802 0)
(0.87349754 0.0016025032 0)
(0.86574578 0.0015898563 0)
(0.85805191 0.0015814831 0)
(0.85034935 0.0015675633 0)
(0.84269635 0.001543072 0)
(0.8351309 0.0015082573 0)
(0.82765027 0.0014648676 0)
(0.82026891 0.001414389 0)
(0.81301738 0.0013580383 0)
(0.80591421 0.0012981941 0)
(0.79896313 0.0012367624 0)
(0.79217298 0.0011747748 0)
(0.78555492 0.0011130849 0)
(0.77911356 0.0010528109 0)
(0.77284944 0.00099436788 0)
(0.76676451 0.00093815863 0)
(0.76085739 0.00088499901 0)
(0.75512418 0.00083503432 0)
(0.74956206 0.00078902971 0)
(0.74416779 0.00074679865 0)
(0.7389379 0.00070712358 0)
(0.73386826 0.00067025491 0)
(0.72895406 0.00063604091 0)
(0.7241906 0.00060446207 0)
(0.71957109 0.00057564947 0)
(0.71508842 0.00054899557 0)
(0.7107353 0.00052441011 0)
(0.70650417 0.00050144756 0)
(0.70238809 0.00047995419 0)
(0.69837974 0.00045974741 0)
(0.69447267 0.00044059676 0)
(0.69066021 0.00042254386 0)
(0.68693629 0.00040537576 0)
(0.68329463 0.00038910473 0)
(0.67973046 0.00037394212 0)
(0.67623278 0.00035922257 0)
(0.6728092 0.00034759059 0)
(0.66940314 0.00033197206 0)
(0.66614003 0.00033344917 0)
(0.6626187 0.00037335053 0)
(0.65973335 0.00044004473 0)
(0.65433594 0.00037892265 0)
(0.98292435 0.020275426 0)
(0.98560626 0.023806024 0)
(0.98946474 0.026233214 0)
(0.9937315 0.027193516 0)
(0.99775975 0.026790508 0)
(1.0010829 0.025375029 0)
(1.0034639 0.023438552 0)
(1.0049455 0.021459488 0)
(1.0057805 0.019725337 0)
(1.0062579 0.018306723 0)
(1.0065737 0.017153801 0)
(1.0068174 0.01619431 0)
(1.0070215 0.015374725 0)
(1.0071996 0.014654847 0)
(1.0073564 0.014009177 0)
(1.0074941 0.013425484 0)
(1.0076169 0.012894867 0)
(1.0077284 0.012407234 0)
(1.0078293 0.011956645 0)
(1.0079211 0.011539729 0)
(1.0080061 0.011151715 0)
(1.0080852 0.010787266 0)
(1.0081551 0.010444534 0)
(1.0082177 0.01012204 0)
(1.008273 0.0098168136 0)
(1.0083223 0.0095252583 0)
(1.0083703 0.0092467699 0)
(1.008389 0.0089810675 0)
(1.0083922 0.0087251754 0)
(1.0083723 0.00847756 0)
(1.0083225 0.0082373881 0)
(1.0082325 0.0080028839 0)
(1.0080905 0.0077725501 0)
(1.007881 0.0075449258 0)