0 	0 	0.0001473636 	0 	0 	0 	-0.0040969562 	-2.010594e-12 	0
0.0001001001 	1.2449901e-13 	0.00014736392 	0.023213212 	8.8298293e-10 	2.5859049e-39 	0 	0 	0
0.0002002002 	5.0562278e-12 	0.00014736443 	0.042650996 	4.3586774e-09 	-3.3456133e-37 	0 	0 	0
0.0003003003 	4.4515902e-11 	0.00014736507 	0.060799098 	1.1268426e-08 	0 	0 	0 	0
0.0004004004 	2.0098035e-10 	0.00014736578 	0.078234405 	2.19082e-08 	0 	0 	0 	0
0.0005005005 	6.6976949e-10 	0.00014736654 	0.095162353 	3.7031975e-08 	0 	0 	0 	0
0.0006006006 	1.7591069e-09 	0.00014736729 	0.11172689 	5.630769e-08 	0 	0 	0 	0
0.0007007007 	4.0154212e-09 	0.00014736809 	0.12797881 	8.0897299e-08 	0 	0 	0 	0
0.0008008008 	8.0713726e-09 	0.00014736891 	0.14398209 	1.1035344e-07 	0 	0 	0 	0
0.0009009009 	1.4886095e-08 	0.00014736972 	0.15975879 	1.4497695e-07 	0 	0 	0 	0
0.001001001 	2.5524086e-08 	0.00014737052 	0.17533137 	1.8482157e-07 	0 	0 	0 	0
0.0011011011 	4.0714381e-08 	0.00014737132 	0.19072563 	2.295563e-07 	0 	0 	0 	0
0.0012012012 	6.203521e-08 	0.00014737212 	0.20593005 	2.804792e-07 	0 	0 	0 	0
0.0013013013 	9.2865216e-08 	0.00014737288 	0.22091347 	3.3822745e-07 	0 	0 	0 	0
0.0014014014 	1.2958938e-07 	0.00014737359 	0.23577627 	3.9874747e-07 	0 	0 	0 	0
0.0015015015 	1.7808957e-07 	0.00014737426 	0.25040996 	4.676886e-07 	0 	0 	0 	0
0.0016016016 	2.3564527e-07 	0.00014737484 	0.2648827 	5.3926573e-07 	0 	0 	0 	0
0.0017017017 	3.0362744e-07 	0.00014737534 	0.27916529 	6.1769704e-07 	0 	0 	0 	0
0.0018018018 	3.8130448e-07 	0.00014737574 	0.29326552 	6.9848614e-07 	0 	0 	0 	0
0.0019019019 	4.7083751e-07 	0.00014737594 	0.30713586 	7.8622761e-07 	0 	0 	0 	0
0.002002002 	5.6351819e-07 	0.0001473762 	0.32092722 	8.7373428e-07 	0 	0 	0 	0
0.0021021021 	6.7098818e-07 	0.00014737595 	0.33431808 	9.6991188e-07 	0 	0 	0 	0
0.0022022022 	7.7852928e-07 	0.00014737582 	0.34770926 	1.0656353e-06 	0 	0 	0 	0
0.0023023023 	8.8864572e-07 	0.00014737542 	0.36078145 	1.1654553e-06 	0 	0 	0 	0
0.0024024024 	1.0003712e-06 	0.00014737459 	0.37363414 	1.2690891e-06 	0 	0 	0 	0
0.0025025025 	1.1122217e-06 	0.00014737408 	0.38648727 	1.3723475e-06 	0 	0 	0 	0
0.0026026026 	1.2256421e-06 	0.00014737307 	0.39893576 	1.4801497e-06 	0 	0 	0 	0
0.0027027027 	1.3397003e-06 	0.00014737161 	0.41119852 	1.5902788e-06 	0 	0 	0 	0
0.0028028028 	1.4538282e-06 	0.0001473704 	0.42346146 	1.7003922e-06 	0 	0 	0 	0
0.0029029029 	1.5713578e-06 	0.00014736934 	0.43546306 	1.8123714e-06 	4.509279e-36 	0 	0 	0
0.003003003 	1.6936036e-06 	0.00014736727 	0.44707349 	1.9272181e-06 	1.5752318e-35 	0 	0 	0
0.0031031031 	1.8158495e-06 	0.0001473652 	0.45868392 	2.0420648e-06 	2.6995357e-35 	0 	0 	0
0.0032032032 	1.9382964e-06 	0.00014736396 	0.47029467 	2.1574677e-06 	3.1287663e-35 	0 	0 	0
0.0033033033 	2.0660036e-06 	0.00014736188 	0.48140436 	2.2741977e-06 	3.1286563e-35 	0 	0 	0
0.0034034034 	2.1960161e-06 	0.00014735919 	0.49228906 	2.3913694e-06 	3.1284971e-35 	0 	0 	0
0.0035035035 	2.3260287e-06 	0.00014735651 	0.50317377 	2.508541e-06 	3.1283378e-35 	0 	0 	0
0.0036036036 	2.4562233e-06 	0.0001473547 	0.51405861 	2.6268981e-06 	3.1282656e-35 	0 	0 	0
0.0037037037 	2.591403e-06 	0.00014735252 	0.52454236 	2.745069e-06 	2.2699056e-35 	0 	0 	0
0.0038038038 	2.731458e-06 	0.00014734922 	0.53462146 	2.8620589e-06 	5.4581736e-36 	0 	0 	0
0.0039039039 	2.8715129e-06 	0.00014734592 	0.54470056 	2.9790487e-06 	-1.1782708e-35 	0 	0 	0
0.004004004 	3.0115679e-06 	0.00014734262 	0.55477966 	3.0960386e-06 	-2.902359e-35 	0 	0 	0
0.0041041041 	3.1519454e-06 	0.0001473411 	0.56485876 	3.2163722e-06 	-2.9954476e-35 	0 	0 	0
0.0042042042 	3.3054579e-06 	0.00014733783 	0.57425511 	3.3318558e-06 	-2.9953526e-35 	0 	0 	0
0.0043043043 	3.4630774e-06 	0.00014733398 	0.58343768 	3.445761e-06 	-2.9952279e-35 	0 	0 	0
0.0044044044 	3.6206969e-06 	0.00014733013 	0.59262025 	3.5596662e-06 	-2.9951031e-35 	0 	0 	0
0.0045045045 	3.7783164e-06 	0.00014732628 	0.60180282 	3.6735714e-06 	-2.9949784e-35 	0 	0 	0
0.0046046046 	3.9361946e-06 	0.00014732402 	0.61098522 	3.7910842e-06 	-2.994947e-35 	0 	0 	0
0.0047047047 	4.1026712e-06 	0.00014732127 	0.61975991 	3.9053654e-06 	-2.3317057e-35 	0 	0 	0
0.0048048048 	4.2813616e-06 	0.00014731704 	0.62794964 	4.0132732e-06 	-7.1674968e-36 	0 	0 	0
0.0049049049 	4.4600519e-06 	0.00014731281 	0.63613937 	4.1211809e-06 	8.9820632e-36 	0 	0 	0
0.005005005 	4.6387422e-06 	0.00014730858 	0.6443291 	4.2290887e-06 	2.5131623e-35 	0 	0 	0
0.0051051051 	4.8174326e-06 	0.00014730435 	0.65251883 	4.3369965e-06 	4.1281183e-35 	0 	0 	0
0.0052052052 	4.9963708e-06 	0.00014730214 	0.66070822 	4.4499329e-06 	5.1634846e-35 	0 	0 	0
0.0053053053 	5.1715992e-06 	0.00014729933 	0.66851362 	4.5586442e-06 	5.6617558e-35 	0 	0 	0
0.0054054054 	5.3403284e-06 	0.00014729498 	0.67565261 	4.6588015e-06 	5.3684808e-35 	0 	0 	0
0.0055055055 	5.5090576e-06 	0.00014729062 	0.6827916 	4.7589588e-06 	5.0752058e-35 	0 	0 	0
0.0056056056 	5.6777868e-06 	0.00014728627 	0.68993059 	4.859116e-06 	4.7819308e-35 	0 	0 	0
0.0057057057 	5.8465161e-06 	0.00014728191 	0.69706958 	4.9592733e-06 	4.4886559e-35 	0 	0 	0
0.0058058058 	6.0152804e-06 	0.00014727815 	0.70420847 	5.0610572e-06 	4.0743601e-35 	0 	0 	0
0.0059059059 	6.1841536e-06 	0.00014727623 	0.71134707 	5.1678825e-06 	3.2849861e-35 	0 	0 	0
0.006006006 	6.3284778e-06 	0.00014727304 	0.71792969 	5.2671582e-06 	2.2983622e-35 	0 	0 	0
0.0061061061 	6.451552e-06 	0.00014726873 	0.72403103 	5.3598989e-06 	1.1409959e-35 	0 	0 	0
0.0062062062 	6.5746261e-06 	0.00014726443 	0.73013238 	5.4526395e-06 	-1.6370354e-37 	0 	0 	0
0.0063063063 	6.6977003e-06 	0.00014726013 	0.73623372 	5.5453802e-06 	-1.1737366e-35 	0 	0 	0
0.0064064064 	6.8207745e-06 	0.00014725582 	0.74233506 	5.6381209e-06 	-2.3311029e-35 	0 	0 	0
0.0065065065 	6.9438486e-06 	0.00014725152 	0.74843641 	5.7308616e-06 	-3.4884692e-35 	0 	0 	0
0.0066066066 	7.0669655e-06 	0.00014724916 	0.75453756 	5.8296549e-06 	-4.3386294e-35 	0 	0 	0
0.0067067067 	7.1900967e-06 	0.00014724744 	0.76063865 	5.930467e-06 	-5.0863233e-35 	0 	0 	0
0.0068068068 	7.2737869e-06 	0.00014724371 	0.76593108 	6.0210186e-06 	-5.0321524e-35 	0 	0 	0
0.0069069069 	7.3488395e-06 	0.00014723953 	0.77104641 	6.1093231e-06 	-4.8023745e-35 	0 	0 	0
0.007007007 	7.4238921e-06 	0.00014723535 	0.77616174 	6.1976276e-06 	-4.5725966e-35 	0 	0 	0
0.0071071071 	7.4989447e-06 	0.00014723117 	0.78127707 	6.2859321e-06 	-4.3428187e-35 	0 	0 	0
0.0072072072 	7.5739973e-06 	0.00014722699 	0.7863924 	6.3742367e-06 	-4.1130409e-35 	0 	0 	0
0.0073073073 	7.6490499e-06 	0.00014722281 	0.79150773 	6.4625412e-06 	-3.883263e-35 	0 	0 	0
0.0074074074 	7.7241078e-06 	0.00014721943 	0.79662304 	6.5534858e-06 	-3.5433136e-35 	0 	0 	0
0.0075075075 	7.7991788e-06 	0.00014721806 	0.80173829 	6.6511044e-06 	-2.9248473e-35 	0 	0 	0
0.0076076076 	7.8700107e-06 	0.00014721643 	0.80675768 	6.7477061e-06 	-2.3371847e-35 	0 	0 	0
0.0077077077 	7.9041418e-06 	0.00014721249 	0.81094709 	6.8355022e-06 	-2.0162107e-35 	0 	0 	0
0.0078078078 	7.9382728e-06 	0.00014720856 	0.81513649 	6.9232984e-06 	-1.6952367e-35 	0 	0 	0
0.0079079079 	7.9724039e-06 	0.00014720463 	0.8193259 	7.0110945e-06 	-1.3742626e-35 	0 	0 	0
0.008008008 	8.0065349e-06 	0.0001472007 	0.82351531 	7.0988907e-06 	-1.0532886e-35 	0 	0 	0
0.0081081081 	8.0406659e-06 	0.00014719677 	0.82770471 	7.1866869e-06 	-7.3231459e-36 	0 	0 	0
0.0082082082 	8.074797e-06 	0.00014719284 	0.83189412 	7.274483e-06 	-4.1134056e-36 	0 	0 	0
0.0083083083 	8.108928e-06 	0.00014718891 	0.83608353 	7.3622792e-06 	-9.0366536e-37 	0 	0 	0
0.0084084084 	8.1430539e-06 	0.00014718715 	0.840273 	7.4575669e-06 	0 	0 	0 	0
0.0085085085 	8.1771777e-06 	0.00014718625 	0.8444625 	7.5557903e-06 	0 	0 	0 	0
0.0086086086 	8.201881e-06 	0.00014718467 	0.84843406 	7.6522183e-06 	0 	0 	0 	0
0.0087087087 	8.1991645e-06 	0.00014718113 	0.85177126 	7.7434206e-06 	0 	0 	0 	0
0.0088088088 	8.1964479e-06 	0.0001471776 	0.85510846 	7.8346229e-06 	0 	0 	0 	0
0.0089089089 	8.1937314e-06 	0.00014717406 	0.85844566 	7.9258251e-06 	0 	0 	0 	0
0.009009009 	8.1910149e-06 	0.00014717052 	0.86178285 	8.0170274e-06 	0 	0 	0 	0
0.0091091091 	8.1882984e-06 	0.00014716699 	0.86512005 	8.1082297e-06 	0 	0 	0 	0
0.0092092092 	8.1855818e-06 	0.00014716345 	0.86845725 	8.199432e-06 	0 	0 	0 	0
0.0093093093 	8.1828653e-06 	0.00014715992 	0.87179445 	8.2906342e-06 	0 	0 	0 	0
0.0094094094 	8.1801488e-06 	0.00014715638 	0.87513165 	8.3818365e-06 	0 	0 	0 	0
0.0095095095 	8.1774421e-06 	0.00014715573 	0.87846906 	8.4837639e-06 	0 	0 	0 	0
0.0096096096 	8.1747363e-06 	0.00014715535 	0.8818065 	8.5867211e-06 	0 	0 	0 	0
0.0097097097 	8.1679997e-06 	0.00014715462 	0.88504462 	8.6891143e-06 	0 	0 	0 	0
0.0098098098 	8.13431e-06 	0.00014715154 	0.88761867 	8.7877367e-06 	0 	0 	0 	0
0.0099099099 	8.1006203e-06 	0.00014714847 	0.89019272 	8.8863591e-06 	0 	0 	0 	0
0.01001001 	8.0669306e-06 	0.00014714539 	0.89276676 	8.9849815e-06 	0 	0 	0 	0
0.01011011 	8.0332409e-06 	0.00014714232 	0.89534081 	9.0836039e-06 	0 	0 	0 	0
0.01021021 	7.9995513e-06 	0.00014713924 	0.89791486 	9.1822263e-06 	0 	0 	0 	0
0.01031031 	7.9658616e-06 	0.00014713616 	0.9004889 	9.2808487e-06 	0 	0 	0 	0
0.01041041 	7.9321719e-06 	0.00014713309 	0.90306295 	9.3794711e-06 	0 	0 	0 	0
0.010510511 	7.8984822e-06 	0.00014713001 	0.905637 	9.4780934e-06 	0 	0 	0 	0
0.010610611 	7.8647925e-06 	0.00014712694 	0.90821104 	9.5767158e-06 	0 	0 	0 	0
0.010710711 	7.8311449e-06 	0.00014712609 	0.91078531 	9.6843102e-06 	0 	0 	0 	0
0.010810811 	7.7975148e-06 	0.00014712618 	0.91335966 	9.7956731e-06 	0 	0 	0 	0
0.010910911 	7.7638848e-06 	0.00014712628 	0.91593401 	9.907036e-06 	0 	0 	0 	0
0.011011011 	7.7161472e-06 	0.00014712483 	0.91813538 	1.0016597e-05 	0 	0 	0 	0
0.011111111 	7.6573655e-06 	0.00014712218 	0.92004474 	1.0124747e-05 	0 	0 	0 	0
0.011211211 	7.5985838e-06 	0.00014711952 	0.9219541 	1.0232897e-05 	0 	0 	0 	0
0.011311311 	7.5398021e-06 	0.00014711687 	0.92386347 	1.0341047e-05 	0 	0 	0 	0
0.011411411 	7.4810204e-06 	0.00014711422 	0.92577283 	1.0449197e-05 	0 	0 	0 	0
0.011511512 	7.4222388e-06 	0.00014711157 	0.9276822 	1.0557347e-05 	0 	0 	0 	0
0.011611612 	7.3634571e-06 	0.00014710892 	0.92959156 	1.0665497e-05 	0 	0 	0 	0
0.011711712 	7.3046754e-06 	0.00014710627 	0.93150092 	1.0773647e-05 	0 	0 	0 	0
0.011811812 	7.2458937e-06 	0.00014710361 	0.93341029 	1.0881797e-05 	0 	0 	0 	0
0.011911912 	7.187112e-06 	0.00014710096 	0.93531965 	1.0989947e-05 	0 	0 	0 	0
0.012012012 	7.1283303e-06 	0.00014709831 	0.93722901 	1.1098097e-05 	0 	0 	0 	0
0.012112112 	7.0696627e-06 	0.00014709844 	0.93913863 	1.1217912e-05 	0 	0 	0 	0
0.012212212 	7.0110061e-06 	0.00014709884 	0.94104828 	1.1338854e-05 	0 	0 	0 	0
0.012312312 	6.9523494e-06 	0.00014709924 	0.94295793 	1.1459795e-05 	0 	0 	0 	0
0.012412412 	6.8860179e-06 	0.00014709865 	0.94466549 	1.1579166e-05 	0 	0 	0 	0
0.012512513 	6.8060898e-06 	0.00014709631 	0.94601507 	1.1695756e-05 	0 	0 	0 	0
0.012612613 	6.7261617e-06 	0.00014709396 	0.94736465 	1.1812345e-05 	0 	0 	0 	0
0.012712713 	6.6462336e-06 	0.00014709162 	0.94871422 	1.1928935e-05 	0 	0 	0 	0
0.012812813 	6.5663056e-06 	0.00014708927 	0.9500638 	1.2045524e-05 	0 	0 	0 	0
0.012912913 	6.4863775e-06 	0.00014708692 	0.95141337 	1.2162114e-05 	0 	0 	0 	0
0.013013013 	6.4064494e-06 	0.00014708458 	0.95276295 	1.2278704e-05 	0 	0 	0 	0
0.013113113 	6.3265213e-06 	0.00014708223 	0.95411253 	1.2395293e-05 	0 	0 	0 	0
0.013213213 	6.2465932e-06 	0.00014707989 	0.9554621 	1.2511883e-05 	0 	0 	0 	0
0.013313313 	6.1666652e-06 	0.00014707754 	0.95681168 	1.2628472e-05 	0 	0 	0 	0
0.013413413 	6.0867371e-06 	0.00014707519 	0.95816126 	1.2745062e-05 	0 	0 	0 	0
0.013513514 	6.006809e-06 	0.00014707285 	0.95951083 	1.2861652e-05 	0 	0 	0 	0
0.013613614 	5.9269357e-06 	0.00014707146 	0.96086047 	1.2982253e-05 	0 	0 	0 	0
0.013713714 	5.8471734e-06 	0.00014707204 	0.96221025 	1.3110993e-05 	0 	0 	0 	0
0.013813814 	5.7674111e-06 	0.00014707261 	0.96356002 	1.3239733e-05 	0 	0 	0 	0
0.013913914 	5.6876488e-06 	0.00014707319 	0.96490979 	1.3368473e-05 	0 	0 	0 	0
0.014014014 	5.6057818e-06 	0.00014707293 	0.96611481 	1.349576e-05 	0 	0 	0 	0
0.014114114 	5.5194053e-06 	0.00014707088 	0.96700971 	1.3619932e-05 	0 	0 	0 	0
0.014214214 	5.4330289e-06 	0.00014706883 	0.96790461 	1.3744104e-05 	0 	0 	0 	0
0.014314314 	5.3466525e-06 	0.00014706678 	0.96879951 	1.3868276e-05 	0 	0 	0 	0
0.014414414 	5.260276e-06 	0.00014706473 	0.96969441 	1.3992448e-05 	0 	0 	0 	0
0.014514515 	5.1738996e-06 	0.00014706268 	0.97058931 	1.411662e-05 	0 	0 	0 	0
0.014614615 	5.0875232e-06 	0.00014706063 	0.97148421 	1.4240792e-05 	0 	0 	0 	0
0.014714715 	5.0011467e-06 	0.00014705858 	0.97237911 	1.4364965e-05 	0 	0 	0 	0
0.014814815 	4.9147703e-06 	0.00014705653 	0.973274 	1.4489137e-05 	0 	0 	0 	0
0.014914915 	4.8283939e-06 	0.00014705447 	0.9741689 	1.4613309e-05 	0 	0 	0 	0
0.015015015 	4.7420174e-06 	0.00014705242 	0.9750638 	1.4737481e-05 	0 	0 	0 	0
0.015115115 	4.655641e-06 	0.00014705037 	0.9759587 	1.4861653e-05 	0 	0 	0 	0
0.015215215 	4.5692646e-06 	0.00014704832 	0.9768536 	1.4985825e-05 	0 	0 	0 	0
0.015315315 	4.4828881e-06 	0.00014704627 	0.9777485 	1.5109998e-05 	0 	0 	0 	0
0.015415415 	4.3965773e-06 	0.00014704634 	0.9786435 	1.5241366e-05 	0 	0 	0 	0
0.015515516 	4.3102911e-06 	0.00014704721 	0.97953855 	1.5375443e-05 	0 	0 	0 	0
0.015615616 	4.2240049e-06 	0.00014704808 	0.98043359 	1.550952e-05 	0 	0 	0 	0
0.015715716 	4.1377188e-06 	0.00014704894 	0.98132863 	1.5643597e-05 	0 	0 	0 	0
0.015815816 	4.0539926e-06 	0.00014704935 	0.98215464 	1.577757e-05 	0 	0 	0 	0
0.015915916 	3.9808997e-06 	0.00014704782 	0.98269392 	1.5911106e-05 	0 	0 	0 	0
0.016016016 	3.9078068e-06 	0.0001470463 	0.9832332 	1.6044643e-05 	0 	0 	0 	0
0.016116116 	3.834714e-06 	0.00014704478 	0.98377248 	1.617818e-05 	0 	0 	0 	0
0.016216216 	3.7616211e-06 	0.00014704326 	0.98431177 	1.6311717e-05 	0 	0 	0 	0
0.016316316 	3.6885282e-06 	0.00014704174 	0.98485105 	1.6445254e-05 	0 	0 	0 	0
0.016416416 	3.6154353e-06 	0.00014704021 	0.98539033 	1.657879e-05 	0 	0 	0 	0
0.016516517 	3.5423424e-06 	0.00014703869 	0.98592961 	1.6712327e-05 	0 	0 	0 	0
0.016616617 	3.4692495e-06 	0.00014703717 	0.98646889 	1.6845864e-05 	0 	0 	0 	0
0.016716717 	3.3961567e-06 	0.00014703565 	0.98700817 	1.6979401e-05 	0 	0 	0 	0
0.016816817 	3.3230638e-06 	0.00014703413 	0.98754745 	1.7112937e-05 	0 	0 	0 	0
0.016916917 	3.2499709e-06 	0.0001470326 	0.98808673 	1.7246474e-05 	0 	0 	0 	0
0.017017017 	3.176878e-06 	0.00014703108 	0.98862601 	1.7380011e-05 	0 	0 	0 	0
0.017117117 	3.1037851e-06 	0.00014702956 	0.9891653 	1.7513548e-05 	0 	0 	0 	0
0.017217217 	3.0306923e-06 	0.00014702804 	0.98970458 	1.7647085e-05 	0 	0 	0 	0
0.017317317 	2.9575994e-06 	0.00014702652 	0.99024386 	1.7780621e-05 	0 	0 	0 	0
0.017417417 	2.884467e-06 	0.00014702752 	0.9907833 	1.7920154e-05 	0 	0 	0 	0
0.017517518 	2.811327e-06 	0.00014702901 	0.99132276 	1.806084e-05 	0 	0 	0 	0
0.017617618 	2.738187e-06 	0.0001470305 	0.99186223 	1.8201525e-05 	0 	0 	0 	0
0.017717718 	2.665047e-06 	0.00014703199 	0.9924017 	1.834221e-05 	0 	0 	0 	0
0.017817818 	2.591907e-06 	0.00014703348 	0.99294117 	1.8482895e-05 	0 	0 	0 	0
0.017917918 	2.5351574e-06 	0.00014703331 	0.99329475 	1.8627613e-05 	0 	0 	0 	0
0.018018018 	2.484839e-06 	0.00014703249 	0.9935754 	1.8773912e-05 	0 	0 	0 	0
0.018118118 	2.4345206e-06 	0.00014703168 	0.99385604 	1.8920211e-05 	0 	0 	0 	0
0.018218218 	2.3842022e-06 	0.00014703086 	0.99413669 	1.9066511e-05 	0 	0 	0 	0
0.018318318 	2.3338838e-06 	0.00014703004 	0.99441734 	1.921281e-05 	0 	0 	0 	0
0.018418418 	2.2835654e-06 	0.00014702922 	0.99469798 	1.935911e-05 	0 	0 	0 	0
0.018518519 	2.233247e-06 	0.00014702841 	0.99497863 	1.9505409e-05 	0 	0 	0 	0
0.018618619 	2.1829286e-06 	0.00014702759 	0.99525927 	1.9651709e-05 	0 	0 	0 	0
0.018718719 	2.1326102e-06 	0.00014702677 	0.99553992 	1.9798008e-05 	0 	0 	0 	0
0.018818819 	2.0822918e-06 	0.00014702595 	0.99582057 	1.9944308e-05 	0 	0 	0 	0
0.018918919 	2.0319734e-06 	0.00014702513 	0.99610121 	2.0090607e-05 	0 	0 	0 	0
0.019019019 	1.981655e-06 	0.00014702432 	0.99638186 	2.0236906e-05 	0 	0 	0 	0
0.019119119 	1.9313366e-06 	0.0001470235 	0.99666251 	2.0383206e-05 	0 	0 	0 	0
0.019219219 	1.8810182e-06 	0.00014702268 	0.99694315 	2.0529505e-05 	0 	0 	0 	0
0.019319319 	1.8306997e-06 	0.00014702186 	0.9972238 	2.0675805e-05 	0 	0 	0 	0
0.019419419 	1.7803813e-06 	0.00014702105 	0.99750444 	2.0822104e-05 	0 	0 	0 	0
0.01951952 	1.7300629e-06 	0.00014702023 	0.99778509 	2.0968404e-05 	0 	0 	0 	0
0.01961962 	1.679671e-06 	0.00014702057 	0.99806582 	2.1117387e-05 	0 	0 	0 	0
0.01971972 	1.6291542e-06 	0.00014702287 	0.9983467 	2.1270929e-05 	0 	0 	0 	0
0.01981982 	1.5786375e-06 	0.00014702517 	0.99862758 	2.1424472e-05 	0 	0 	0 	0
0.01991992 	1.5281207e-06 	0.00014702747 	0.99890846 	2.1578014e-05 	0 	0 	0 	0
0.02002002 	1.4776039e-06 	0.00014702978 	0.99918934 	2.1731557e-05 	0 	0 	0 	0
0.02012012 	1.4270871e-06 	0.00014703208 	0.99947021 	2.1885099e-05 	0 	0 	0 	0
0.02022022 	1.3894471e-06 	0.00014703289 	0.99965633 	2.204167e-05 	0 	0 	0 	0
0.02032032 	1.3609211e-06 	0.00014703265 	0.99977536 	2.2200384e-05 	0 	0 	0 	0
0.02042042 	1.3323951e-06 	0.0001470324 	0.99989439 	2.2359098e-05 	0 	0 	0 	0
0.020520521 	1.3038691e-06 	0.00014703216 	1.0000134 	2.2517813e-05 	0 	0 	0 	0
0.020620621 	1.2753431e-06 	0.00014703192 	1.0001325 	2.2676527e-05 	0 	0 	0 	0
0.020720721 	1.2468171e-06 	0.00014703168 	1.0002515 	2.2835241e-05 	0 	0 	0 	0
0.020820821 	1.2182911e-06 	0.00014703143 	1.0003705 	2.2993955e-05 	0 	0 	0 	0
0.020920921 	1.1897651e-06 	0.00014703119 	1.0004896 	2.3152669e-05 	0 	0 	0 	0
0.021021021 	1.1612391e-06 	0.00014703095 	1.0006086 	2.3311384e-05 	0 	0 	0 	0
0.021121121 	1.1327132e-06 	0.0001470307 	1.0007276 	2.3470098e-05 	0 	0 	0 	0
0.021221221 	1.1041872e-06 	0.00014703046 	1.0008467 	2.3628812e-05 	0 	0 	0 	0
0.021321321 	1.0756612e-06 	0.00014703022 	1.0009657 	2.3787526e-05 	0 	0 	0 	0
0.021421421 	1.0471352e-06 	0.00014702997 	1.0010847 	2.394624e-05 	0 	0 	0 	0
0.021521522 	1.0186092e-06 	0.00014702973 	1.0012038 	2.4104955e-05 	0 	0 	0 	0
0.021621622 	9.9008321e-07 	0.00014702949 	1.0013228 	2.4263669e-05 	0 	0 	0 	0
0.021721722 	9.6155722e-07 	0.00014702924 	1.0014418 	2.4422383e-05 	0 	0 	0 	0
0.021821822 	9.3303123e-07 	0.000147029 	1.0015609 	2.4581097e-05 	0 	0 	0 	0
0.021921922 	9.0450524e-07 	0.00014702876 	1.0016799 	2.4739811e-05 	0 	0 	0 	0
0.022022022 	8.7597925e-07 	0.00014702851 	1.0017989 	2.4898525e-05 	0 	0 	0 	0
0.022122122 	8.4745326e-07 	0.00014702827 	1.001918 	2.505724e-05 	0 	0 	0 	0
0.022222222 	8.1866224e-07 	0.0001470312 	1.0020371 	2.5225524e-05 	0 	0 	0 	0
0.022322322 	7.8986773e-07 	0.00014703416 	1.0021563 	2.5393933e-05 	0 	0 	0 	0
0.022422422 	7.6107322e-07 	0.00014703713 	1.0022755 	2.5562343e-05 	0 	0 	0 	0
0.022522523 	7.3227871e-07 	0.00014704009 	1.0023946 	2.5730753e-05 	0 	0 	0 	0
0.022622623 	7.034842e-07 	0.00014704306 	1.0025138 	2.5899163e-05 	0 	0 	0 	0
0.022722723 	6.7468969e-07 	0.00014704602 	1.002633 	2.6067573e-05 	0 	0 	0 	0
0.022822823 	6.5327953e-07 	0.00014704768 	1.0027162 	2.6231405e-05 	0 	0 	0 	0
0.022922923 	6.4084492e-07 	0.00014704775 	1.0027556 	2.6389674e-05 	0 	0 	0 	0
0.023023023 	6.2841031e-07 	0.00014704783 	1.002795 	2.6547943e-05 	0 	0 	0 	0
0.023123123 	6.1597569e-07 	0.0001470479 	1.0028345 	2.6706212e-05 	0 	0 	0 	0
0.023223223 	6.0354108e-07 	0.00014704797 	1.0028739 	2.6864481e-05 	0 	0 	0 	0
0.023323323 	5.9110647e-07 	0.00014704805 	1.0029134 	2.702275e-05 	0 	0 	0 	0
0.023423423 	5.7867185e-07 	0.00014704812 	1.0029528 	2.7181019e-05 	0 	0 	0 	0
0.023523524 	5.6623724e-07 	0.00014704819 	1.0029922 	2.7339288e-05 	0 	0 	0 	0
0.023623624 	5.5380263e-07 	0.00014704827 	1.0030317 	2.7497558e-05 	0 	0 	0 	0
0.023723724 	5.4136801e-07 	0.00014704834 	1.0030711 	2.7655827e-05 	0 	0 	0 	0
0.023823824 	5.289334e-07 	0.00014704841 	1.0031105 	2.7814096e-05 	0 	0 	0 	0
0.023923924 	5.1649879e-07 	0.00014704849 	1.00315 	2.7972365e-05 	0 	0 	0 	0
0.024024024 	5.0406417e-07 	0.00014704856 	1.0031894 	2.8130634e-05 	0 	0 	0 	0
0.024124124 	4.9162956e-07 	0.00014704863 	1.0032289 	2.8288903e-05 	0 	0 	0 	0
0.024224224 	4.7919494e-07 	0.0001470487 	1.0032683 	2.8447172e-05 	0 	0 	0 	0
0.024324324 	4.6676033e-07 	0.00014704878 	1.0033077 	2.8605441e-05 	0 	0 	0 	0
0.024424424 	4.5432572e-07 	0.00014704885 	1.0033472 	2.876371e-05 	0 	0 	0 	0
0.024524525 	4.418911e-07 	0.00014704892 	1.0033866 	2.8921979e-05 	0 	0 	0 	0
0.024624625 	4.2945649e-07 	0.000147049 	1.0034261 	2.9080248e-05 	0 	0 	0 	0
0.024724725 	4.1702188e-07 	0.00014704907 	1.0034655 	2.9238517e-05 	0 	0 	0 	0
0.024824825 	4.0458726e-07 	0.00014704914 	1.0035049 	2.9396786e-05 	0 	0 	0 	0
0.024924925 	3.9215265e-07 	0.00014704922 	1.0035444 	2.9555055e-05 	0 	0 	0 	0
0.025025025 	3.7965728e-07 	0.00014705027 	1.0035838 	2.9716785e-05 	0 	0 	0 	0
0.025125125 	3.6702658e-07 	0.00014705351 	1.0036232 	2.9886224e-05 	0 	0 	0 	0
0.025225225 	3.5439587e-07 	0.00014705676 	1.0036626 	3.0055663e-05 	0 	0 	0 	0
0.025325325 	3.4176517e-07 	0.00014706 	1.003702 	3.0225102e-05 	0 	0 	0 	0
0.025425425 	3.2913447e-07 	0.00014706324 	1.0037414 	3.0394541e-05 	0 	0 	0 	0
0.025525526 	3.1650377e-07 	0.00014706648 	1.0037808 	3.056398e-05 	0 	0 	0 	0
0.025625626 	3.0387307e-07 	0.00014706973 	1.0038202 	3.0733419e-05 	0 	0 	0 	0
0.025725726 	2.9124237e-07 	0.00014707297 	1.0038596 	3.0902858e-05 	0 	0 	0 	0
0.025825826 	2.8726e-07 	0.00014707356 	1.0038719 	3.1054373e-05 	0 	0 	0 	0
0.025925926 	2.8396677e-07 	0.00014707395 	1.0038821 	3.120446e-05 	0 	0 	0 	0
0.026026026 	2.8067355e-07 	0.00014707433 	1.0038923 	3.1354547e-05 	0 	0 	0 	0
0.026126126 	2.7738033e-07 	0.00014707472 	1.0039025 	3.1504634e-05 	0 	0 	0 	0
0.026226226 	2.7408711e-07 	0.0001470751 	1.0039126 	3.1654721e-05 	0 	0 	0 	0
0.026326326 	2.7079389e-07 	0.00014707549 	1.0039228 	3.1804808e-05 	0 	0 	0 	0
0.026426426 	2.6750067e-07 	0.00014707587 	1.003933 	3.1954895e-05 	0 	0 	0 	0
0.026526527 	2.6420745e-07 	0.00014707625 	1.0039431 	3.2104982e-05 	0 	0 	0 	0
0.026626627 	2.6091423e-07 	0.00014707664 	1.0039533 	3.2255069e-05 	0 	0 	0 	0
0.026726727 	2.5762101e-07 	0.00014707702 	1.0039635 	3.2405156e-05 	0 	0 	0 	0
0.026826827 	2.5432779e-07 	0.00014707741 	1.0039737 	3.2555242e-05 	0 	0 	0 	0
0.026926927 	2.5103457e-07 	0.00014707779 	1.0039838 	3.2705329e-05 	0 	0 	0 	0
0.027027027 	2.4774135e-07 	0.00014707817 	1.003994 	3.2855416e-05 	0 	0 	0 	0
0.027127127 	2.4444813e-07 	0.00014707856 	1.0040042 	3.3005503e-05 	0 	0 	0 	0
0.027227227 	2.411549e-07 	0.00014707894 	1.0040143 	3.315559e-05 	0 	0 	0 	0
0.027327327 	2.3786168e-07 	0.00014707933 	1.0040245 	3.3305677e-05 	0 	0 	0 	0
0.027427427 	2.3456846e-07 	0.00014707971 	1.0040347 	3.3455764e-05 	0 	0 	0 	0
0.027527528 	2.3127524e-07 	0.0001470801 	1.0040449 	3.3605851e-05 	0 	0 	0 	0
0.027627628 	2.2798202e-07 	0.00014708048 	1.004055 	3.3755938e-05 	0 	0 	0 	0
0.027727728 	2.246888e-07 	0.00014708086 	1.0040652 	3.3906025e-05 	0 	0 	0 	0
0.027827828 	2.2139558e-07 	0.00014708125 	1.0040754 	3.4056112e-05 	0 	0 	0 	0
0.027927928 	2.1810236e-07 	0.00014708163 	1.0040855 	3.4206199e-05 	0 	0 	0 	0
0.028028028 	2.1480914e-07 	0.00014708202 	1.0040957 	3.4356286e-05 	0 	0 	0 	0
0.028128128 	2.1151592e-07 	0.0001470824 	1.0041059 	3.4506373e-05 	0 	0 	0 	0
0.028228228 	2.082227e-07 	0.00014708278 	1.0041161 	3.465646e-05 	0 	0 	0 	0
0.028328328 	2.0485423e-07 	0.0001470858 	1.0041261 	3.4816406e-05 	0 	0 	0 	0
0.028428428 	2.0147847e-07 	0.00014708906 	1.0041362 	3.4977306e-05 	0 	0 	0 	0
0.028528529 	1.9810272e-07 	0.00014709233 	1.0041463 	3.5138206e-05 	0 	0 	0 	0
0.028628629 	1.9472696e-07 	0.00014709559 	1.0041564 	3.5299106e-05 	0 	0 	0 	0
0.028728729 	1.9135121e-07 	0.00014709886 	1.0041665 	3.5460005e-05 	0 	0 	0 	0
0.028828829 	1.8797545e-07 	0.00014710213 	1.0041765 	3.5620905e-05 	0 	0 	0 	0
0.028928929 	1.845997e-07 	0.00014710539 	1.0041866 	3.5781805e-05 	0 	0 	0 	0
0.029029029 	1.8122394e-07 	0.00014710866 	1.0041967 	3.5942705e-05 	0 	0 	0 	0
0.029129129 	1.7955823e-07 	0.0001471104 	1.0042022 	3.6094595e-05 	3.1165563e-36 	0 	0 	0
0.029229229 	1.7918236e-07 	0.000147111 	1.0042044 	3.6239688e-05 	8.5838646e-36 	0 	0 	0
0.029329329 	1.7880649e-07 	0.0001471116 	1.0042065 	3.638478e-05 	1.4051173e-35 	0 	0 	0
0.029429429 	1.7843063e-07 	0.0001471122 	1.0042086 	3.6529873e-05 	1.9518481e-35 	0 	0 	0
0.02952953 	1.7805476e-07 	0.00014711279 	1.0042108 	3.6674966e-05 	2.498579e-35 	0 	0 	0
0.02962963 	1.7767889e-07 	0.00014711339 	1.0042129 	3.6820059e-05 	3.0453098e-35 	0 	0 	0
0.02972973 	1.7730302e-07 	0.00014711399 	1.004215 	3.6965152e-05 	3.5920406e-35 	0 	0 	0
0.02982983 	1.7692716e-07 	0.00014711459 	1.0042172 	3.7110245e-05 	4.1387715e-35 	0 	0 	0
0.02992993 	1.7655129e-07 	0.00014711519 	1.0042193 	3.7255338e-05 	4.6855023e-35 	0 	0 	0
0.03003003 	1.7617542e-07 	0.00014711578 	1.0042214 	3.7400431e-05 	5.2322331e-35 	0 	0 	0
0.03013013 	1.7579955e-07 	0.00014711638 	1.0042235 	3.7545523e-05 	5.7789639e-35 	0 	0 	0
0.03023023 	1.7542369e-07 	0.00014711698 	1.0042257 	3.7690616e-05 	6.3256948e-35 	0 	0 	0
0.03033033 	1.7504782e-07 	0.00014711758 	1.0042278 	3.7835709e-05 	6.8724256e-35 	0 	0 	0
0.03043043 	1.7467195e-07 	0.00014711818 	1.0042299 	3.7980802e-05 	7.4191564e-35 	0 	0 	0
0.030530531 	1.7429608e-07 	0.00014711877 	1.0042321 	3.8125895e-05 	7.9658873e-35 	0 	0 	0
0.030630631 	1.7392022e-07 	0.00014711937 	1.0042342 	3.8270988e-05 	8.5126181e-35 	0 	0 	0
0.030730731 	1.7354435e-07 	0.00014711997 	1.0042363 	3.8416081e-05 	9.0593489e-35 	0 	0 	0
0.030830831 	1.7316848e-07 	0.00014712057 	1.0042385 	3.8561174e-05 	9.6060798e-35 	0 	0 	0
0.030930931 	1.7279261e-07 	0.00014712116 	1.0042406 	3.8706267e-05 	1.0152811e-34 	0 	0 	0
0.031031031 	1.7241674e-07 	0.00014712176 	1.0042427 	3.8851359e-05 	1.0699541e-34 	0 	0 	0
0.031131131 	1.7204088e-07 	0.00014712236 	1.0042448 	3.8996452e-05 	1.1246272e-34 	0 	0 	0
0.031231231 	1.7166501e-07 	0.00014712296 	1.004247 	3.9141545e-05 	1.1793003e-34 	0 	0 	0
0.031331331 	1.7128914e-07 	0.00014712356 	1.0042491 	3.9286638e-05 	1.2339734e-34 	0 	0 	0
0.031431431 	1.7091327e-07 	0.00014712415 	1.0042512 	3.9431731e-05 	1.2886465e-34 	0 	0 	0
0.031531532 	1.7053741e-07 	0.00014712475 	1.0042534 	3.9576824e-05 	1.3433196e-34 	0 	0 	0
0.031631632 	1.7016154e-07 	0.00014712535 	1.0042555 	3.9721917e-05 	1.3979926e-34 	0 	0 	0
0.031731732 	1.6978567e-07 	0.00014712595 	1.0042576 	3.986701e-05 	1.4526657e-34 	0 	0 	0
0.031831832 	1.694098e-07 	0.00014712654 	1.0042597 	4.0012102e-05 	1.5073388e-34 	0 	0 	0
0.031931932 	1.6902894e-07 	0.00014712795 	1.0042619 	4.016021e-05 	1.5620119e-34 	0 	0 	0
0.032032032 	1.6863697e-07 	0.00014713115 	1.0042639 	4.0315031e-05 	1.616685e-34 	0 	0 	0
0.032132132 	1.68245e-07 	0.00014713436 	1.004266 	4.0469851e-05 	1.6713581e-34 	0 	0 	0
0.032232232 	1.6785302e-07 	0.00014713756 	1.0042681 	4.0624672e-05 	1.7260311e-34 	0 	0 	0
0.032332332 	1.6746105e-07 	0.00014714077 	1.0042702 	4.0779493e-05 	1.7807042e-34 	0 	0 	0
0.032432432 	1.6706907e-07 	0.00014714397 	1.0042722 	4.0934314e-05 	1.8353773e-34 	0 	0 	0
0.032532533 	1.666771e-07 	0.00014714717 	1.0042743 	4.1089135e-05 	1.8900504e-34 	0 	0 	0
0.032632633 	1.6628512e-07 	0.00014715038 	1.0042764 	4.1243955e-05 	1.9447235e-34 	0 	0 	0
0.032732733 	1.6589315e-07 	0.00014715358 	1.0042785 	4.1398776e-05 	1.9993966e-34 	0 	0 	0
0.032832833 	1.6550118e-07 	0.00014715679 	1.0042805 	4.1553597e-05 	2.0540696e-34 	0 	0 	0
0.032932933 	1.6546804e-07 	0.00014715772 	1.0042811 	4.1697776e-05 	2.022296e-34 	0 	0 	0
0.033033033 	1.6548116e-07 	0.00014715837 	1.0042815 	4.1840583e-05 	1.9793781e-34 	0 	0 	0
0.033133133 	1.6549428e-07 	0.00014715901 	1.0042818 	4.1983389e-05 	1.9364603e-34 	0 	0 	0
0.033233233 	1.655074e-07 	0.00014715966 	1.0042822 	4.2126196e-05 	1.8935424e-34 	0 	0 	0
0.033333333 	1.6552053e-07 	0.0001471603 	1.0042826 	4.2269003e-05 	1.8506245e-34 	0 	0 	0
0.033433433 	1.6553365e-07 	0.00014716094 	1.004283 	4.241181e-05 	1.8077067e-34 	0 	0 	0
0.033533534 	1.6554677e-07 	0.00014716159 	1.0042833 	4.2554617e-05 	1.7647888e-34 	0 	0 	0
0.033633634 	1.6555989e-07 	0.00014716223 	1.0042837 	4.2697424e-05 	1.7218709e-34 	0 	0 	0
0.033733734 	1.6557301e-07 	0.00014716288 	1.0042841 	4.284023e-05 	1.678953e-34 	0 	0 	0
0.033833834 	1.6558614e-07 	0.00014716352 	1.0042844 	4.2983037e-05 	1.6360352e-34 	0 	0 	0
0.033933934 	1.6559926e-07 	0.00014716417 	1.0042848 	4.3125844e-05 	1.5931173e-34 	0 	0 	0
0.034034034 	1.6561238e-07 	0.00014716481 	1.0042852 	4.3268651e-05 	1.5501994e-34 	0 	0 	0
0.034134134 	1.656255e-07 	0.00014716545 	1.0042856 	4.3411458e-05 	1.5072815e-34 	0 	0 	0
0.034234234 	1.6563862e-07 	0.0001471661 	1.0042859 	4.3554265e-05 	1.4643637e-34 	0 	0 	0
0.034334334 	1.6565175e-07 	0.00014716674 	1.0042863 	4.3697072e-05 	1.4214458e-34 	0 	0 	0
0.034434434 	1.6566487e-07 	0.00014716739 	1.0042867 	4.3839878e-05 	1.3785279e-34 	0 	0 	0
0.034534535 	1.6567799e-07 	0.00014716803 	1.004287 	4.3982685e-05 	1.33561e-34 	0 	0 	0
0.034634635 	1.6569111e-07 	0.00014716868 	1.0042874 	4.4125492e-05 	1.2926922e-34 	0 	0 	0
0.034734735 	1.6570423e-07 	0.00014716932 	1.0042878 	4.4268299e-05 	1.2497743e-34 	0 	0 	0
0.034834835 	1.6571735e-07 	0.00014716996 	1.0042882 	4.4411106e-05 	1.2068564e-34 	0 	0 	0
0.034934935 	1.6573048e-07 	0.00014717061 	1.0042885 	4.4553913e-05 	1.1639386e-34 	0 	0 	0
0.035035035 	1.657436e-07 	0.00014717125 	1.0042889 	4.4696719e-05 	1.1210207e-34 	0 	0 	0
0.035135135 	1.6575672e-07 	0.0001471719 	1.0042893 	4.4839526e-05 	1.0781028e-34 	0 	0 	0
0.035235235 	1.6576984e-07 	0.00014717254 	1.0042896 	4.4982333e-05 	1.0351849e-34 	0 	0 	0
0.035335335 	1.6578296e-07 	0.00014717319 	1.00429 	4.512514e-05 	9.9226706e-35 	0 	0 	0
0.035435435 	1.6579609e-07 	0.00014717383 	1.0042904 	4.5267947e-05 	9.4934919e-35 	0 	0 	0