/*--------------------------------*- C++ -*----------------------------------*\
| =========                 |                                                 |
| \\      /  F ield         | OpenFOAM: The Open Source CFD Toolbox           |
|  \\    /   O peration     | Version:  2206                                  |
|   \\  /    A nd           | Website:  www.openfoam.com                      |
|    \\/     M anipulation  |                                                 |
\*---------------------------------------------------------------------------*/
FoamFile
{
    version     2.0;
    format      ascii;
    arch        "LSB;label=32;scalar=64";
    class       volScalarField;
    location    "1200";
    object      k;
}
// * * * * * * * * * * * * * * * * * * * * * * * * * * * * * * * * * * * * * //

dimensions      [0 2 -2 0 0 0 0];

internalField   nonuniform List<scalar> 
7480
(
0.011444572
0.0141087
0.011690204
0.0076591385
0.0045412733
0.0027808392
0.0019366393
0.001525629
0.0012978421
0.0011495378
0.0010349887
0.00093675074
0.00085116675
0.00077712885
0.00071293344
0.00065695128
0.00060809073
0.00056520145
0.00052703845
0.00049283317
0.00046212082
0.00043439437
0.00040918736
0.00038620532
0.00036521484
0.00034596346
0.00032822699
0.00031186286
0.00029675831
0.00028278437
0.00026982875
0.00025781816
0.00024668819
0.00023636694
0.00022679401
0.00021792841
0.00020973279
0.00020217056
0.0001952169
0.00018885941
0.00018308773
0.00017789107
0.00017326931
0.00016922403
0.00016576515
0.00016293139
0.00016074969
0.00015927094
0.00015848315
0.00015837171
0.00015891579
0.00016008634
0.00016182185
0.00016400989
0.00016654027
0.00016933704
0.00017223301
0.00017497725
0.00017733466
0.00017912592
0.00018032321
0.00018094315
0.0001810415
0.00018069483
0.00017999985
0.00017904466
0.00017790682
0.00017664846
0.00017531412
0.00017393687
0.0001725419
0.00017114399
0.00016975265
0.00016837793
0.00016702228
0.00016568709
0.00016437283
0.0001630253
0.00016164907
0.0001602604
0.00015886591
0.00015746879
0.0001560637
0.00015464863
0.00015322311
0.00015178681
0.00015034201
0.00014888935
0.00014743211
0.00014597137
0.00014450945
0.00014304729
0.00014158815
0.00014012392
0.00013867885
0.00013716462
0.00013584439
0.0001339414
0.00013287031
0.0001299702
0.0014156861
0.0025664023
0.0028346338
0.0024739594
0.0020070109
0.0015607511
0.0011994163
0.00093120374
0.00073501292
0.00059084464
0.00048465063
0.00040592082
0.0003468194
0.00030170347
0.00026650792
0.00023839279
0.00021546215
0.00019640672
0.00018029426
0.00016649358
0.00015457974
0.00014423054
0.00013519194
0.00012727377
0.00012019424
0.00011381318
0.00010804479
0.00010283843
9.8160785e-05
9.398275e-05
9.0281447e-05
8.7042977e-05
8.425732e-05
8.1915305e-05
8.0011695e-05
7.8546664e-05
7.75245e-05
7.6956793e-05
7.6866722e-05
7.7290042e-05
7.8273455e-05
7.9874956e-05
8.2166788e-05
8.523444e-05
8.9182334e-05
9.4120533e-05
0.00010013687
0.0001072895
0.00011559856
0.00012505756
0.00013563475
0.00014733404
0.00015989277
0.00017301393
0.00018640909
0.0001996477
0.00021209014
0.00022315297
0.00023247966
0.00024001488
0.00024590423
0.00025041239
0.00025380152
0.00025616448
0.00025772217
0.00025867359
0.00025917642
0.00025934729
0.00025927145
0.00025901098
0.00025860893
0.0002580918
0.00025748348
0.00025680234
0.00025605524
0.00025524326
0.00025434671
0.00025316063
0.00025177073
0.00025024774
0.00024861453
0.00024687756
0.00024503895
0.00024310574
0.00024108458
0.00023898556
0.0002368187
0.00023459407
0.00023232267
0.00023001355
0.00022767572
0.00022531718
0.00022294577
0.00022056621
0.00021818243
0.00021579286
0.00021343496
0.00021076295
0.00020884738
0.00020445201
0.00020999883
0.00055718623
0.00084134777
0.00095101416
0.00092894638
0.00084353524
0.00075616324
0.00069797761
0.00065926808
0.00062430884
0.00059310368
0.00056405369
0.00053577429
0.00050885209
0.00048355
0.00045989191
0.00043793958
0.00041771173
0.00039921097
0.00038244592
0.00036740599
0.00035404897
0.00034232744
0.00033217806
0.00032244603
0.00031325873
0.00030473022
0.00029698989
0.00029016515
0.00028437466
0.00027973717
0.0002763702
0.0002743831
0.00027388142
0.00027497558
0.00027778114
0.00028242542
0.00028907625
0.0002979592
0.00030936029
0.00032362459
0.00034116184
0.0003624544
0.0003880559
0.00041862044
0.00045476695
0.00049697025
0.00054544136
0.00060019738
0.00066108743
0.00072757761
0.00079923856
0.00087485906
0.00095271328
0.0010311191
0.0011075313
0.0011784774
0.0012410241
0.0012936285
0.0013363079
0.0013700261
0.0013963683
0.001416143
0.0014304542
0.0014405875
0.001447585
0.0014522493
0.0014551651
0.001456758
0.0014573366
0.0014571113
0.0014562114
0.0014547614
0.001452853
0.00145052
0.0014477634
0.001444467
0.0014394511
0.0014332765
0.0014263296
0.0014187238
0.0014104898
0.0014016453
0.0013922329
0.0013822919
0.0013718806
0.0013610544
0.0013498705
0.0013383889
0.0013266608
0.0013147358
0.0013026598
0.0012904751
0.0012782192
0.0012658861
0.0012535742
0.0012411781
0.0012276353
0.001217396
0.0011948618
3.6612051e-05
0.00011641255
0.00022888483
0.00032890005
0.00038969289
0.00041114062
0.00040817717
0.00039503388
0.0003806276
0.00036976754
0.00036654527
0.00037468463
0.00038617734
0.0003959946
0.00040417662
0.00041046089
0.00041545501
0.00041965919
0.00042339267
0.00042691581
0.00043044528
0.00043416922
0.00043824341
0.00044277596
0.00044760529
0.00045254575
0.00045764434
0.00046311411
0.00046923222
0.00047629977
0.00048463513
0.00049457052
0.00050644632
0.00052061303
0.00053743551
0.0005572907
0.00058059502
0.0006078794
0.00063980297
0.00067714241
0.00072078306
0.00077172205
0.00083107499
0.00090006789
0.00098008917
0.0010721378
0.0011767835
0.0012939375
0.0014230858
0.0015633664
0.0017133446
0.0018699519
0.0020313176
0.002193877
0.00235432
0.0025072839
0.0026463338
0.0027670597
0.0028680018
0.0029501885
0.0030160938
0.0030681829
0.0031080734
0.0031385164
0.0031617923
0.0031796665
0.0031934699
0.0032041623
0.003212435
0.0032187853
0.0032235456
0.0032269192
0.0032291229
0.0032303066
0.0032305185
0.0032297431
0.003227787
0.0032223201
0.0032146568
0.003205464
0.0031949051
0.0031830332
0.0031698937
0.0031555717
0.0031401508
0.003123743
0.0031064538
0.0030883913
0.0030696658
0.003050375
0.0030306077
0.0030104543
0.0029899908
0.0029692988
0.0029483435
0.0029274079
0.0029059558
0.0028832159
0.0028646452
0.002827208
1.2523659e-05
2.7573714e-05
5.8627611e-05
9.9477223e-05
0.00013898315
0.00016943054
0.00018921393
0.0002002714
0.00020549171
0.00020735675
0.00020803544
0.00020959723
0.00021295847
0.00021862188
0.00022752026
0.00024063417
0.0002552823
0.00027045109
0.00028571973
0.00030135243
0.00031749794
0.00033433999
0.00035195205
0.00037026592
0.00038900489
0.00040786334
0.00042732067
0.0004478258
0.00046970453
0.00049323511
0.00051869759
0.00054640375
0.00057671128
0.0006100253
0.00064679162
0.00068749216
0.00073272699
0.00078335591
0.00084041406
0.00090504249
0.0009784843
0.0010620911
0.0011573268
0.0012657603
0.0013891187
0.0015278271
0.0016815585
0.0018495548
0.0020308459
0.002224092
0.0024272977
0.0026372432
0.0028492269
0.0030592467
0.0032641879
0.0034560864
0.0036272017
0.0037742133
0.0038973487
0.0039988497
0.0040813311
0.0041476334
0.0042007372
0.0042434125
0.0042780203
0.0043064141
0.004329999
0.0043498016
0.0043665653
0.0043808266
0.0043929385
0.0044031209
0.0044116392
0.0044186535
0.004424201
0.0044282397
0.0044305871
0.0044302755
0.0044274917
0.0044225315
0.0044155559
0.0044066585
0.0043959294
0.0043834977
0.0043694983
0.0043540895
0.0043374213
0.0043196415
0.0043008978
0.0042813236
0.0042610343
0.0042401535
0.0042187779
0.0041970193
0.0041748359
0.0041526146
0.0041295415
0.0041056422
0.0040847732
0.0040463121
9.3804432e-06
1.1752456e-05
1.8506138e-05
3.0347519e-05
4.5493706e-05
6.1123731e-05
7.5212897e-05
8.6941893e-05
9.6294839e-05
0.00010358827
0.00010922001
0.00011369804
0.00011751596
0.00012112446
0.00012503053
0.00012980831
0.00013573398
0.00014308306
0.00015228136
0.00016377738
0.0001768939
0.00019191209
0.00020811257
0.00022551721
0.00024420785
0.00026424209
0.00028584799
0.00030932801
0.00033501761
0.00036329574
0.00039458147
0.0004293334
0.00046805301
0.00051127715
0.00055959048
0.00061370893
0.00067462992
0.00074337781
0.00082096944
0.00090849728
0.0010071699
0.0011183171
0.0012433817
0.0013839334
0.001541651
0.0017147538
0.0019012875
0.0021004402
0.0023115383
0.0025334011
0.0027639933
0.0030000058
0.0032366343
0.0034696125
0.003695719
0.003903958
0.0040874632
0.0042459817
0.0043811141
0.0044954056
0.0045918487
0.0046731445
0.0047417407
0.0047999148
0.0048497059
0.0048927533
0.0049303476
0.0049634799
0.0049928873
0.005019112
0.005042508
0.0050633024
0.0050818274
0.0050982407
0.0051125617
0.0051247265
0.005134592
0.0051415057
0.0051454248
0.0051465345
0.0051450122
0.0051409992
0.0051346379
0.0051261041
0.005115584
0.0051032807
0.0050893843
0.0050740784
0.0050575436
0.0050399445
0.0050214177
0.0050021152
0.0049821508
0.0049616578
0.0049406002
0.004919415
0.00489716
0.0048744504
0.0048537496
0.0048170796
8.9897643e-06
9.2309578e-06
1.039209e-05
1.3067039e-05
1.7353708e-05
2.2793765e-05
2.876445e-05
3.4798219e-05
4.0624811e-05
4.6102856e-05
5.1149466e-05
5.5733495e-05
5.9873752e-05
6.362612e-05
6.7094619e-05
7.0435938e-05
7.3815827e-05
7.7408805e-05
8.1427276e-05
8.6127861e-05
9.1697233e-05
9.8411349e-05
0.00010651013
0.00011620102
0.00012735592
0.00014018161
0.00015492611
0.0001714393
0.00018974836
0.00021022082
0.00023329517
0.0002594917
0.00028942146
0.00032376798
0.00036329791
0.00040892204
0.00046181911
0.00052346064
0.00059538984
0.00067925897
0.00077681562
0.00088988415
0.0010203497
0.0011702122
0.0013415906
0.0015227343
0.0017160067
0.0019249383
0.0021499824
0.0023895886
0.0026406455
0.0028984444
0.003156869
0.0034119101
0.0036610841
0.0038826822
0.004075548
0.0042466309
0.0043984514
0.0045330697
0.004652512
0.0047583042
0.0048518356
0.004934705
0.0050084782
0.0050744372
0.0051337259
0.0051873187
0.0052359674
0.0052802587
0.0053206439
0.005357451
0.0053909771
0.005421402
0.005448758
0.0054729981
0.0054940385
0.0055114672
0.0055251702
0.0055352741
0.0055419819
0.0055454956
0.0055460232
0.0055437993
0.0055390709
0.0055320935
0.0055231046
0.0055123298
0.005499991
0.0054862899
0.0054714041
0.0054555046
0.0054387234
0.0054212168
0.0054029695
0.0053844324
0.0053646716
0.005344576
0.0053257966
0.0052922633
8.940729e-06
8.8617926e-06
8.9453077e-06
9.3734876e-06
1.0288543e-05
1.1705832e-05
1.3542287e-05
1.56945e-05
1.8078673e-05
2.0628868e-05
2.3283407e-05
2.598372e-05
2.8679673e-05
3.1330693e-05
3.3912425e-05
3.6422808e-05
3.8879158e-05
4.131431e-05
4.3780828e-05
4.6354545e-05
4.9122722e-05
5.2194579e-05
5.5698113e-05
5.9779131e-05
6.45699e-05
7.024846e-05
7.7055125e-05
8.5135818e-05
9.45559e-05
0.00010555492
0.00011844125
0.00013359252
0.00015135796
0.00017185612
0.00019572039
0.00022372148
0.00025683356
0.00029630223
0.00034366287
0.00040074691
0.00046972016
0.00055309488
0.0006536879
0.00077454272
0.0009187859
0.0010825624
0.0012631477
0.0014616168
0.0016783426
0.0019124438
0.0021612862
0.0024201853
0.0026829632
0.0029480845
0.0032141178
0.0034582572
0.0036787264
0.0038799066
0.0040626764
0.004229858
0.004383251
0.004523326
0.0046507518
0.0047668264
0.004872667
0.0049691358
0.0050572899
0.0051380921
0.0052122738
0.0052804906
0.0053433115
0.0054011609
0.0054543778
0.0055031915
0.0055476561
0.005587769
0.0056235227
0.0056547258
0.005681299
0.0057033486
0.0057210969
0.0057347998
0.0057447323
0.0057511936
0.0057544965
0.0057549551
0.0057528595
0.0057484853
0.0057421044
0.0057339632
0.005724279
0.0057132557
0.0057010533
0.0056878561
0.0056736823
0.0056589775
0.0056429043
0.0056264087
0.0056107748
0.0055810126
8.9327292e-06
8.8090876e-06
8.7105196e-06
8.6773593e-06
8.7584117e-06
8.987353e-06
9.3746655e-06
9.9176693e-06
1.0611356e-05
1.1450613e-05
1.2427366e-05
1.352843e-05
1.4737124e-05
1.6033967e-05
1.7399223e-05
1.8816106e-05
2.0272452e-05
2.1760778e-05
2.3280362e-05
2.4839484e-05
2.645499e-05
2.8153202e-05
2.997152e-05
3.1959548e-05
3.4175898e-05
3.6693277e-05
3.9606251e-05
4.3019163e-05
4.7041203e-05
5.1816873e-05
5.7540431e-05
6.4401784e-05
7.261624e-05
8.2427062e-05
9.4180148e-05
0.00010831906
0.00012542184
0.00014624014
0.00017146755
0.00020215666
0.00023987526
0.00028663024
0.00034496721
0.00041806824
0.0005098503
0.00062311986
0.00075701115
0.00091180101
0.0010885265
0.0012875316
0.0015078493
0.001746613
0.0019991027
0.0022629369
0.00253544
0.0028005581
0.003043605
0.0032703328
0.0034831241
0.0036835648
0.0038727127
0.0040492829
0.0042133901
0.004366404
0.0045087056
0.0046404915
0.0047627406
0.0048762126
0.004981403
0.0050789981
0.0051696191
0.005253711
0.0053316274
0.0054036409
0.0054697817
0.0055300937
0.0055846597
0.0056334704
0.0056765357
0.0057139859
0.0057460641
0.0057730672
0.0057953327
0.0058132242
0.0058271223
0.0058374052
0.0058444219
0.005848507
0.0058499933
0.0058491821
0.005846341
0.005841718
0.0058355107
0.0058279399
0.00581907
0.0058093357
0.0057980475
0.0057860949
0.005774662
0.0057492287
8.9300305e-06
8.7998664e-06
8.6731367e-06
8.5570288e-06
8.4632007e-06
8.4038839e-06
8.3885808e-06
8.4242371e-06
8.5169682e-06
8.6727284e-06
8.8966912e-06
9.1921882e-06
9.560635e-06
1.0001268e-05
1.0511554e-05
1.1087824e-05
1.1725674e-05
1.2420434e-05
1.3168085e-05
1.3966191e-05
1.4814465e-05
1.5715309e-05
1.6674994e-05
1.7704773e-05
1.8821e-05
2.0045951e-05
2.1409949e-05
2.2951445e-05
2.4716868e-05
2.676434e-05
2.9169327e-05
3.2023443e-05
3.5439032e-05
3.9554858e-05
4.4552992e-05
5.0627875e-05
5.805421e-05
6.7200085e-05
7.849538e-05
9.2502943e-05
0.00011000861
0.00013207842
0.00016014612
0.00019612627
0.00024246116
0.00030210821
0.00037781406
0.00047156184
0.00058578663
0.00072275713
0.00088416257
0.0010705213
0.0012806185
0.0015123979
0.0017632102
0.0020238827
0.0022815545
0.0025301889
0.0027636219
0.0029863619
0.003200405
0.0034057084
0.0036020635
0.003789741
0.0039678165
0.0041351859
0.0042930522
0.0044416165
0.0045808622
0.0047114766
0.0048339047
0.0049484661
0.0050554545
0.0051551704
0.0052474482
0.0053323405
0.0054100188
0.0054805763
0.0055441008
0.0056007734
0.005650857
0.0056946718
0.0057326051
0.0057650729
0.0057925152
0.0058153768
0.0058340669
0.005848985
0.0058605322
0.0058690737
0.0058749397
0.0058784335
0.0058798032
0.0058793162
0.005877095
0.0058735682
0.0058682219
0.0058618455
0.005855668
0.0058352464
8.9284353e-06
8.7967926e-06
8.6655695e-06
8.5357608e-06
8.409581e-06
8.2900511e-06
8.1804095e-06
8.083897e-06
8.0039259e-06
7.9441904e-06
7.9085383e-06
7.9007209e-06
7.9242165e-06
7.9820219e-06
8.0765824e-06
8.2097817e-06
8.3828871e-06
8.5965844e-06
8.8511493e-06
9.1466825e-06
9.4833318e-06
9.8615652e-06
1.0282486e-05
1.074829e-05
1.1262668e-05
1.1831277e-05
1.2462411e-05
1.3167672e-05
1.3962456e-05
1.4866875e-05
1.5907349e-05
1.7117628e-05
1.8540589e-05
2.023063e-05
2.2258147e-05
2.4709992e-05
2.7699885e-05
3.1380707e-05
3.5950067e-05
4.1644693e-05
4.8801712e-05
5.788328e-05
6.9526577e-05
8.4612689e-05
0.00010434255
0.00013034048
0.00016463939
0.0002094567
0.00026740524
0.00034143817
0.00043471226
0.00055027886
0.00069058214
0.00085716217
0.001050532
0.0012679997
0.0015024061
0.0017454747
0.0019878634
0.0022268561
0.0024574111
0.0026783415
0.0028931435
0.0031024178
0.0033056569
0.0035019117
0.003691134
0.0038723887
0.0040444927
0.0042082724
0.0043636429
0.0045107057
0.0046494774
0.004779818
0.0049014458
0.0050144349
0.0051189501
0.005215054
0.0053028514
0.0053825448
0.0054543798
0.0055186662
0.005575811
0.0056262486
0.0056704473
0.0057089129
0.0057421141
0.0057705111
0.0057945719
0.0058147285
0.0058313824
0.0058449028
0.005855604
0.0058638099
0.0058697134
0.0058737494
0.0058755923
0.0058759286
0.0058761119
0.0058615359
8.9274323e-06
8.795109e-06
8.6628362e-06
8.5306584e-06
8.3989095e-06
8.2681654e-06
8.1392214e-06
8.0130679e-06
7.8908964e-06
7.7741088e-06
7.6642979e-06
7.5632113e-06
7.4727165e-06
7.3947447e-06
7.3312361e-06
7.2841044e-06
7.2551928e-06
7.2462179e-06
7.2587534e-06
7.2942432e-06
7.3540226e-06
7.4393655e-06
7.551527e-06
7.6918653e-06
7.8619841e-06
8.0638929e-06
8.3003019e-06
8.5749517e-06
8.8928479e-06
9.2605679e-06
9.6867834e-06
1.0182916e-05
1.0763883e-05
1.144898e-05
1.2263334e-05
1.3239261e-05
1.4418639e-05
1.5856924e-05
1.7627314e-05
1.9824134e-05
2.2574839e-05
2.6055206e-05
3.0507915e-05
3.6265049e-05
4.3802275e-05
5.3791355e-05
6.7158522e-05
8.5111586e-05
0.00010922001
0.00014149081
0.00018442867
0.00024103817
0.00031470873
0.00040899502
0.00052733153
0.00067211779
0.0008432937
0.0010379912
0.0012502302
0.0014743229
0.0017031718
0.0019315141
0.002158351
0.0023799383
0.002594285
0.0028047918
0.003011574
0.0032142473
0.0034115276
0.0036031034
0.0037877923
0.0039648774
0.0041343171
0.0042952945
0.0044472344
0.0045901394
0.0047239414
0.0048484777
0.0049637452
0.0050698564
0.0051669555
0.0052552757
0.0053351843
0.0054070733
0.0054713963
0.0055286936
0.0055794645
0.0056242165
0.0056634785
0.0056977436
0.005727489
0.005753156
0.0057751356
0.0057938203
0.0058094853
0.0058225871
0.0058329954
0.0058413091
0.0058490546
0.0058413283
8.9268794e-06
8.7941767e-06
8.6615009e-06
8.5287955e-06
8.3960868e-06
8.263449e-06
8.1310402e-06
7.9991213e-06
7.8680535e-06
7.738289e-06
7.6103648e-06
7.4849027e-06
7.3626163e-06
7.24431e-06
7.1308727e-06
7.0232714e-06
6.9225413e-06
6.8297683e-06
6.7460724e-06
6.6725988e-06
6.6105043e-06
6.5609482e-06
6.5250968e-06
6.5041371e-06
6.4992944e-06
6.5118626e-06
6.543286e-06
6.5952714e-06
6.669873e-06
6.7695753e-06
6.8975118e-06
7.0577063e-06
7.255326e-06
7.4971137e-06
7.7919191e-06
8.1510931e-06
8.5893391e-06
9.1259811e-06
9.7865609e-06
1.060458e-05
1.1624718e-05
1.2907926e-05
1.453804e-05
1.6631203e-05
1.9352487e-05
2.2939394e-05
2.7731076e-05
3.4200378e-05
4.3011096e-05
5.5082149e-05
7.1673133e-05
9.4482328e-05
0.00012574047
0.00016826963
0.00022548352
0.00030117351
0.00039888606
0.00052108508
0.00066814191
0.00083850962
0.0010282844
0.0012323013
0.001446335
0.0016649201
0.0018835689
0.0021020078
0.0023176365
0.0025280125
0.0027359743
0.0029415296
0.0031443477
0.0033426455
0.0035359391
0.0037232758
0.0039027862
0.0040743245
0.0042373741
0.0043912588
0.0045356395
0.0046703694
0.0047953604
0.0049106285
0.0050164025
0.005112941
0.0052006127
0.0052799415
0.0053513953
0.0054154951
0.0054728089
0.0055238683
0.0055692195
0.0056093715
0.0056447933
0.0056759539
0.0057032179
0.0057270766
0.005747597
0.0057653131
0.0057819629
0.0057822873
8.9265682e-06
8.7936346e-06
8.6607594e-06
8.5279012e-06
8.3950498e-06
8.2621978e-06
8.1293698e-06
7.9966414e-06
7.8641363e-06
7.732014e-06
7.6004608e-06
7.4696903e-06
7.3399497e-06
7.2115276e-06
7.0847574e-06
6.9600215e-06
6.8377542e-06
6.7184417e-06
6.6026208e-06
6.4908784e-06
6.3838481e-06
6.2822059e-06
6.1866688e-06
6.0979941e-06
6.0169792e-06
5.9444625e-06
5.881338e-06
5.8285781e-06
5.7872556e-06
5.7585755e-06
5.7439374e-06
5.7450088e-06
5.7638042e-06
5.8028375e-06
5.8653175e-06
5.9552897e-06
6.077905e-06
6.239833e-06
6.4498375e-06
6.7195131e-06
7.0641565e-06
7.5041907e-06
8.067393e-06
8.7919759e-06
9.7315441e-06
1.0962922e-05
1.2597102e-05
1.4793988e-05
1.7785133e-05
2.1905957e-05
2.7640581e-05
3.5683647e-05
4.7031737e-05
6.3088169e-05
8.5784107e-05
0.00011767651
0.00016192921
0.00022207185
0.00030147293
0.00040278852
0.00052723128
0.00067420118
0.0008417873
0.0010264316
0.0012235927
0.0014299074
0.0016411727
0.0018531221
0.0020658303
0.0022773492
0.0024853342
0.0026913811
0.0028957099
0.003098001
0.0032964512
0.0034901174
0.0036781033
0.0038584555
0.0040303581
0.0041933657
0.004346881
0.0044904141
0.0046239544
0.0047474658
0.0048610903
0.004965254
0.0050602726
0.0051466146
0.0052248382
0.0052954619
0.0053590759
0.0054162306
0.0054674599
0.0055133061
0.0055542193
0.0055907336
0.0056231094
0.0056518353
0.0056789048
0.0056886965
8.9263872e-06
8.793267e-06
8.6602341e-06
8.5272766e-06
8.3943929e-06
8.2615719e-06
8.1288169e-06
7.9961616e-06
7.8636676e-06
7.7314143e-06
7.5994899e-06
7.4679878e-06
7.3370099e-06
7.2066702e-06
7.0770985e-06
6.9484428e-06
6.820873e-06
6.6945836e-06
6.5697956e-06
6.4467593e-06
6.3257556e-06
6.2070975e-06
6.0911309e-06
5.9782358e-06
5.8688277e-06
5.7633568e-06
5.6623118e-06
5.5662242e-06
5.4756725e-06
5.3912902e-06
5.313782e-06
5.2439441e-06
5.1826859e-06
5.1310698e-06
5.0903706e-06
5.0621426e-06
5.048299e-06
5.0512332e-06
5.0740027e-06
5.120607e-06
5.1962322e-06
5.3076586e-06
5.4639629e-06
5.6774825e-06
5.9654026e-06
6.3518147e-06
6.8711219e-06
7.5732064e-06
8.5310454e-06
9.8522594e-06
1.1696618e-05
1.4301753e-05
1.8023486e-05
2.3394415e-05
3.1205337e-05
4.2609107e-05
5.9244802e-05
8.3314429e-05
0.00011756194
0.00016511807
0.0002291444
0.0003123457
0.00041661294
0.00054252795
0.00068910359
0.00085440087
0.0010353303
0.0012277926
0.0014289768
0.0016354355
0.0018431476
0.0020521315
0.0022605003
0.0024658105
0.0026702108
0.0028736777
0.0030753218
0.0032732434
0.0034663093
0.0036534584
0.0038327561
0.0040030116
0.0041640417
0.0043151297
0.0044559706
0.0045868133
0.0047075767
0.0048185813
0.0049202909
0.005013108
0.0050976181
0.005174352
0.0052438732
0.0053067768
0.0053635747
0.0054148413
0.0054610154
0.0055025514
0.0055417536
0.0055626622
8.9263156e-06
8.7930304e-06
8.6598435e-06
8.5267699e-06
8.3938233e-06
8.2610032e-06
8.1283154e-06
7.9957857e-06
7.8634589e-06
7.7313922e-06
7.5996473e-06
7.4682862e-06
7.337372e-06
7.2069702e-06
7.0771501e-06
6.947986e-06
6.8195587e-06
6.691957e-06
6.5652791e-06
6.4396344e-06
6.315145e-06
6.1919475e-06
6.0701944e-06
5.950056e-06
5.8317221e-06
5.7154032e-06
5.6013324e-06
5.4897676e-06
5.3809936e-06
5.275324e-06
5.1731064e-06
5.074728e-06
4.9806218e-06
4.8912766e-06
4.8072537e-06
4.7292076e-06
4.657911e-06
4.5942905e-06
4.5394796e-06
4.4948978e-06
4.4623417e-06
4.444108e-06
4.4431996e-06
4.4636027e-06
4.5107625e-06
4.5921551e-06
4.7182549e-06
4.9041054e-06
5.1717659e-06
5.5538549e-06
6.0988666e-06
6.8800345e-06
8.0091892e-06
9.6586237e-06
1.209504e-05
1.5730204e-05
2.1195228e-05
2.9432759e-05
4.1791976e-05
6.0099679e-05
8.6674535e-05
0.00012422402
0.00017565727
0.00024374867
0.00033071122
0.00043794362
0.00056570256
0.00071282699
0.00087741554
0.0010566888
0.001246841
0.0014453457
0.0016488596
0.0018536288
0.0020600753
0.0022658939
0.0024694822
0.002672356
0.002874962
0.0030753962
0.0032717956
0.003462979
0.0036478768
0.0038241543
0.0039910433
0.0041486018
0.0042958191
0.0044328251
0.0045598393
0.0046769493
0.0047846636
0.0048833747
0.0049736138
0.005055978
0.005130989
0.0051992432
0.0052613234
0.0053176458
0.0053708964
0.0054048125
8.9263493e-06
8.7929244e-06
8.6595951e-06
8.5263964e-06
8.3933557e-06
8.2604846e-06
8.1277961e-06
7.9953163e-06
7.8630854e-06
7.7311531e-06
7.5995729e-06
7.4683991e-06
7.3376852e-06
7.2074852e-06
7.0778535e-06
6.9488451e-06
6.8205165e-06
6.6929256e-06
6.5661325e-06
6.4402001e-06
6.3151948e-06
6.1911873e-06
6.0682537e-06
5.9464761e-06
5.8259441e-06
5.7067559e-06
5.5890195e-06
5.4728539e-06
5.3583909e-06
5.2457763e-06
5.1351718e-06
5.0267575e-06
4.9207341e-06
4.8173264e-06
4.7167874e-06
4.6194055e-06
4.5255112e-06
4.4354877e-06
4.3497863e-06
4.2689479e-06
4.1936313e-06
4.12465e-06
4.0630306e-06
4.0100949e-06
3.967579e-06
3.9378157e-06
3.9240106e-06
3.9306691e-06
3.9643142e-06
4.034518e-06
4.1554183e-06
4.3483934e-06
4.6463995e-06
5.1007868e-06
5.7921183e-06
6.8483879e-06
8.473531e-06
1.0990359e-05
1.489908e-05
2.095218e-05
3.0236617e-05
4.4246959e-05
6.4916775e-05
9.4594441e-05
0.00013591116
0.0001915774
0.00026408388
0.00035531305
0.0004663392
0.00059718882
0.00074653733
0.0009124449
0.0010921066
0.0012818285
0.0014794117
0.0016811154
0.0018842363
0.0020891003
0.0022927343
0.0024947866
0.0026961683
0.0028973946
0.0030957434
0.003289564
0.0034776253
0.0036589849
0.0038307136
0.0039930774
0.0041457244
0.0042880655
0.0044204811
0.0045429895
0.0046560019
0.0047600202
0.004855479
0.0049429591
0.0050231196
0.0050963182
0.0051656979
0.0052147361
8.9264796e-06
8.7929428e-06
8.6594915e-06
8.5261748e-06
8.3930309e-06
8.2600817e-06
8.1273477e-06
7.9948575e-06
7.86265e-06
7.7307716e-06
7.5992728e-06
7.4682049e-06
7.3376194e-06
7.2075676e-06
7.0781012e-06
6.9492712e-06
6.8211287e-06
6.6937244e-06
6.5671092e-06
6.4413335e-06
6.316448e-06
6.1925038e-06
6.0695525e-06
5.9476467e-06
5.8268405e-06
5.7071901e-06
5.5887542e-06
5.4715948e-06
5.3557781e-06
5.2413754e-06
5.1284636e-06
5.017127e-06
4.9074581e-06
4.7995592e-06
4.6935438e-06
4.5895393e-06
4.4876891e-06
4.3881561e-06
4.2911269e-06
4.1968187e-06
4.1054864e-06
4.0174341e-06
3.9330311e-06
3.8527355e-06
3.7771258e-06
3.7069516e-06
3.643212e-06
3.5872733e-06
3.5410575e-06
3.5073334e-06
3.4901614e-06
3.4956212e-06
3.5330546e-06
3.6170337e-06
3.7704872e-06
4.030252e-06
4.4564517e-06
5.1465418e-06
6.2579675e-06
8.0419772e-06
1.0890393e-05
1.5396329e-05
2.2426703e-05
3.3195373e-05
4.9320274e-05
7.2827562e-05
0.00010609454
0.00015171309
0.00021226798
0.0002900591
0.00038670804
0.00050299797
0.00063863074
0.00079199111
0.00096103897
0.0011426477
0.001333441
0.0015314486
0.0017320619
0.0019341755
0.0021375248
0.0023390595
0.0025392105
0.0027393638
0.0029382715
0.0031335633
0.0033237771
0.0035077573
0.003683812
0.0038501792
0.0040072343
0.0041541354
0.0042911024
0.0044183587
0.0045360898
0.0046447969
0.0047450898
0.0048372357
0.0049248746
0.0049913143
8.9266946e-06
8.7930715e-06
8.6595212e-06
8.5261019e-06
8.39286e-06
8.2598261e-06
8.1270271e-06
7.9944948e-06
7.8622683e-06
7.7303923e-06
7.5989151e-06
7.4678869e-06
7.3373581e-06
7.2073797e-06
7.0780025e-06
6.9492772e-06
6.8212542e-06
6.6939831e-06
6.5675131e-06
6.4418923e-06
6.3171681e-06
6.193387e-06
6.0705947e-06
5.9488358e-06
5.8281545e-06
5.708594e-06
5.5901976e-06
5.473008e-06
5.3570684e-06
5.2424225e-06
5.1291149e-06
5.0171917e-06
4.9067013e-06
4.7976947e-06
4.6902264e-06
4.5843554e-06
4.4801462e-06
4.3776699e-06
4.2770059e-06
4.1782437e-06
4.0814856e-06
3.9868495e-06
3.8944741e-06
3.804525e-06
3.7172035e-06
3.6327606e-06
3.5515179e-06
3.4739005e-06
3.4004865e-06
3.3320854e-06
3.2698606e-06
3.2155257e-06
3.1716722e-06
3.1423108e-06
3.1337559e-06
3.1561503e-06
3.226198e-06
3.3712973e-06
3.6366612e-06
4.0970448e-06
4.8739512e-06
6.1614091e-06
8.2640557e-06
1.164807e-05
1.7004723e-05
2.5320698e-05
3.7944226e-05
5.6633799e-05
8.3528722e-05
0.00012108441
0.00017190221
0.00023848694
0.00032295123
0.0004266073
0.00054988343
0.00069198376
0.00085096965
0.0010246639
0.001209332
0.0014020958
0.0016007629
0.0018005586
0.0020017243
0.0022026999
0.0024023026
0.0026002548
0.0027988138
0.0029946569
0.0031861467
0.0033718926
0.0035509306
0.0037205969
0.0038810344
0.0040318731
0.0041727795
0.0043040894
0.0044261284
0.0045390431
0.0046468944
0.0047330555
8.9269818e-06
8.7932944e-06
8.6596661e-06
8.5261615e-06
8.3928329e-06
8.2597179e-06
8.1268493e-06
7.9942621e-06
7.861996e-06
7.7300952e-06
7.5986067e-06
7.4675797e-06
7.3370639e-06
7.2071098e-06
7.0777682e-06
6.9490896e-06
6.8211244e-06
6.6939223e-06
6.5675323e-06
6.4420026e-06
6.3173802e-06
6.1937111e-06
6.0710399e-06
5.94941e-06
5.8288633e-06
5.7094404e-06
5.5911805e-06
5.4741214e-06
5.3582998e-06
5.2437512e-06
5.1305098e-06
5.0186093e-06
4.9080828e-06
4.7989628e-06
4.6912821e-06
4.5850736e-06
4.4803713e-06
4.3772104e-06
4.275628e-06
4.1756638e-06
4.0773613e-06
3.9807683e-06
3.8859387e-06
3.7929344e-06
3.7018277e-06
3.612705e-06
3.5256728e-06
3.4408662e-06
3.3584627e-06
3.2787026e-06
3.2019215e-06
3.1286026e-06
3.0594618e-06
2.9955896e-06
2.9386878e-06
2.8914734e-06
2.8583968e-06
2.8468157e-06
2.869006e-06
2.9456554e-06
3.1112549e-06
3.4226802e-06
3.9733857e-06
4.9135094e-06
6.4800066e-06
9.0390057e-06
1.3142274e-05
1.9596461e-05
2.9532086e-05
4.4467646e-05
6.6344084e-05
9.7454479e-05
0.0001403737
0.00019772334
0.00027191614
0.0003647918
0.00047725089
0.00060926515
0.00075932646
0.00092514129
0.0011041764
0.0012923098
0.001487262
0.0016853857
0.0018846198
0.0020845699
0.0022830013
0.002480127
0.0026767875
0.0028723339
0.0030642954
0.0032511487
0.0034318002
0.003604412
0.0037676574
0.0039217101
0.004066158
0.0042010256
0.0043305182
0.0044385224
8.9273296e-06
8.7935956e-06
8.6599075e-06
8.5263337e-06
8.392931e-06
8.2597427e-06
8.1268065e-06
7.994161e-06
7.8618471e-06
7.7299086e-06
7.5983922e-06
7.4673461e-06
7.3368198e-06
7.2068631e-06
7.0775266e-06
6.9488606e-06
6.8209156e-06
6.6937412e-06
6.5673865e-06
6.4418999e-06
6.3173285e-06
6.1937184e-06
6.0711144e-06
5.9495597e-06
5.8290963e-06
5.7097644e-06
5.5916028e-06
5.4746484e-06
5.3589366e-06
5.244501e-06
5.1313736e-06
5.0195847e-06
4.9091631e-06
4.800136e-06
4.6925294e-06
4.586368e-06
4.4816752e-06
4.378474e-06
4.2767863e-06
4.1766342e-06
4.0780393e-06
3.9810239e-06
3.8856112e-06
3.7918259e-06
3.6996948e-06
3.6092485e-06
3.5205224e-06
3.4335592e-06
3.348413e-06
3.2651546e-06
3.1838798e-06
3.1047235e-06
3.0278813e-06
2.9536459e-06
2.8824681e-06
2.8150603e-06
2.7525795e-06
2.6969358e-06
2.6513286e-06
2.6211879e-06
2.6157296e-06
2.6505051e-06
2.7518207e-06
2.9633526e-06
3.3567318e-06
4.0483495e-06
5.2230049e-06
7.1701333e-06
1.0332872e-05
1.5372759e-05
2.3245821e-05
3.5270692e-05
5.3189562e-05
7.916687e-05
0.00011569895
0.00016548471
0.00023112752
0.00031487122
0.00041810453
0.000541141
0.00068327046
0.00084220552
0.0010153876
0.0011993021
0.0013907135
0.0015873595
0.0017845413
0.0019827279
0.002180006
0.0023760791
0.0025708715
0.0027655837
0.0029574359
0.0031449547
0.0033267647
0.0035015892
0.003667319
0.0038240615
0.0039756049
0.0041069275
8.927728e-06
8.7939612e-06
8.6602281e-06
8.526599e-06
8.3931341e-06
8.2598812e-06
8.1268827e-06
7.9941799e-06
7.8618156e-06
7.7298341e-06
7.5982817e-06
7.4672064e-06
7.3366571e-06
7.2066835e-06
7.0773357e-06
6.9486639e-06
6.8207184e-06
6.6935486e-06
6.5672039e-06
6.4417323e-06
6.3171812e-06
6.1935967e-06
6.0710238e-06
5.9495058e-06
5.8290849e-06
5.7098015e-06
5.5916944e-06
5.4748006e-06
5.3591556e-06
5.2447927e-06
5.1317438e-06
5.0200385e-06
4.909705e-06
4.8007694e-06
4.6932559e-06
4.5871872e-06
4.482584e-06
4.3794657e-06
4.2778497e-06
4.1777523e-06
4.0791883e-06
3.9821715e-06
3.8867146e-06
3.7928296e-06
3.7005281e-06
3.6098216e-06
3.5207219e-06
3.433242e-06
3.3473972e-06
3.2632063e-06
3.1806945e-06
3.0998965e-06
3.0208622e-06
2.943666e-06