/*--------------------------------*- C++ -*----------------------------------*\
| =========                 |                                                 |
| \\      /  F ield         | OpenFOAM: The Open Source CFD Toolbox           |
|  \\    /   O peration     | Version:  2206                                  |
|   \\  /    A nd           | Website:  www.openfoam.com                      |
|    \\/     M anipulation  |                                                 |
\*---------------------------------------------------------------------------*/
FoamFile
{
    version     2.0;
    format      ascii;
    arch        "LSB;label=32;scalar=64";
    class       volScalarField;
    location    "1200";
    object      nut;
}
// * * * * * * * * * * * * * * * * * * * * * * * * * * * * * * * * * * * * * //

dimensions      [0 2 -1 0 0 0 0];

internalField   nonuniform List<scalar> 
7480
(
1.512012e-06
1.8586557e-06
1.5440552e-06
1.0160503e-06
6.0449078e-07
3.7087386e-07
2.585248e-07
2.0375063e-07
1.7337276e-07
1.5358658e-07
1.3829945e-07
1.2518606e-07
1.1375948e-07
1.038727e-07
9.5298958e-08
8.7821161e-08
8.1293872e-08
7.5563706e-08
7.0464534e-08
6.5893808e-08
6.1789538e-08
5.808405e-08
5.4715076e-08
5.164331e-08
4.8837598e-08
4.6264231e-08
4.3893268e-08
4.1705673e-08
3.9686391e-08
3.7818198e-08
3.6086093e-08
3.4480289e-08
3.2992187e-08
3.1612179e-08
3.0332197e-08
2.9146767e-08
2.80509e-08
2.7039709e-08
2.6109878e-08
2.5259755e-08
2.4487954e-08
2.3793038e-08
2.3174993e-08
2.2634033e-08
2.2171486e-08
2.1792532e-08
2.1500775e-08
2.1303023e-08
2.1197671e-08
2.1182769e-08
2.1255529e-08
2.1412065e-08
2.1644154e-08
2.1936758e-08
2.2275141e-08
2.2649146e-08
2.3036413e-08
2.3403388e-08
2.3718633e-08
2.3958167e-08
2.4118273e-08
2.4201174e-08
2.4214326e-08
2.4167968e-08
2.4075033e-08
2.3947301e-08
2.3795145e-08
2.3626871e-08
2.3448436e-08
2.3264263e-08
2.3077719e-08
2.2890783e-08
2.2704723e-08
2.2520887e-08
2.2339599e-08
2.2161047e-08
2.1985294e-08
2.1805091e-08
2.1621048e-08
2.1435343e-08
2.1248858e-08
2.1062021e-08
2.0874117e-08
2.0684879e-08
2.0494242e-08
2.0302163e-08
2.0108947e-08
1.9914679e-08
1.9719797e-08
1.9524448e-08
1.9328939e-08
1.9133398e-08
1.893826e-08
1.8742441e-08
1.8549184e-08
1.8346676e-08
1.8170114e-08
1.7915613e-08
1.7772368e-08
1.7384513e-08
1.4110942e-06
1.6300722e-06
1.5384721e-06
1.2880047e-06
1.0361369e-06
8.1126889e-07
6.4376124e-07
5.17972e-07
4.214132e-07
3.4674538e-07
2.8963279e-07
2.4636084e-07
2.1350006e-07
1.8820761e-07
1.6833033e-07
1.5234132e-07
1.3920435e-07
1.2818728e-07
1.1878424e-07
1.1066186e-07
1.0359355e-07
9.7403236e-08
9.195704e-08
8.7156918e-08
8.283154e-08
7.8900294e-08
7.5319452e-08
7.2067171e-08
6.9130139e-08
6.6496516e-08
6.4158724e-08
6.2114356e-08
6.0362224e-08
5.8901207e-08
5.7732829e-08
5.6861832e-08
5.6295193e-08
5.6045002e-08
5.6131652e-08
5.6584359e-08
5.7440022e-08
5.8743792e-08
6.055131e-08
6.2927583e-08
6.5951887e-08
6.9707152e-08
7.4260019e-08
7.9653173e-08
8.5900976e-08
9.2997891e-08
1.0091648e-07
1.0965333e-07
1.1901685e-07
1.2878505e-07
1.3874337e-07
1.4857255e-07
1.5779961e-07
1.6599755e-07
1.7290851e-07
1.7850005e-07
1.8288581e-07
1.8626373e-07
1.8882328e-07
1.9063472e-07
1.9186248e-07
1.9265104e-07
1.9311443e-07
1.933362e-07
1.9337735e-07
1.9328222e-07
1.9308146e-07
1.9279374e-07
1.9243624e-07
1.9202217e-07
1.915562e-07
1.9103912e-07
1.9045573e-07
1.8965371e-07
1.8869768e-07
1.8764025e-07
1.8649848e-07
1.8527708e-07
1.8397766e-07
1.8260575e-07
1.8116632e-07
1.7966701e-07
1.7811528e-07
1.7651864e-07
1.748853e-07
1.7322193e-07
1.715353e-07
1.6983132e-07
1.6811583e-07
1.6639253e-07
1.6466382e-07
1.6293072e-07
1.6121683e-07
1.59266e-07
1.5789925e-07
1.5464759e-07
1.1013851e-06
1.4047728e-06
1.435832e-06
1.3409564e-06
1.2076002e-06
1.0740726e-06
9.6688178e-07
8.8441908e-07
8.2033018e-07
7.6807311e-07
7.2390939e-07
6.796796e-07
6.3737021e-07
6.022427e-07
5.7251268e-07
5.4697303e-07
5.2494132e-07
5.0592592e-07
4.8956733e-07
4.7562814e-07
4.6394497e-07
4.5438046e-07
4.4683689e-07
4.4120953e-07
4.3361377e-07
4.2648202e-07
4.1998407e-07
4.1432856e-07
4.0972131e-07
4.0636046e-07
4.0445758e-07
4.0423284e-07
4.0589928e-07
4.0967074e-07
4.1577631e-07
4.2445705e-07
4.3597466e-07
4.5066363e-07
4.6895678e-07
4.9138826e-07
5.1859155e-07
5.5131209e-07
5.9042279e-07
6.3691829e-07
6.91968e-07
7.566998e-07
8.3199405e-07
9.1830901e-07
1.0157469e-06
1.1241003e-06
1.2423812e-06
1.369777e-06
1.5043666e-06
1.6431918e-06
1.7833275e-06
1.9204342e-06
2.0485981e-06
2.1627755e-06
2.2601836e-06
2.3407327e-06
2.4060268e-06
2.4587933e-06
2.5000029e-06
2.5317259e-06
2.5562503e-06
2.5753622e-06
2.5904235e-06
2.6024064e-06
2.6120107e-06
2.6197392e-06
2.6259299e-06
2.6307828e-06
2.6344973e-06
2.6372214e-06
2.639e-06
2.6398323e-06
2.6394958e-06
2.6357154e-06
2.6295798e-06
2.6218488e-06
2.6127553e-06
2.6023646e-06
2.5907129e-06
2.5778905e-06
2.5639743e-06
2.549079e-06
2.5333094e-06
2.5167733e-06
2.4995836e-06
2.481834e-06
2.4636185e-06
2.4450218e-06
2.4261216e-06
2.4069956e-06
2.387614e-06
2.3682358e-06
2.3485133e-06
2.326576e-06
2.3112029e-06
2.2731045e-06
5.0848161e-07
9.5917498e-07
1.1798107e-06
1.2284706e-06
1.2004132e-06
1.1428896e-06
1.0803903e-06
1.0213377e-06
9.698724e-07
9.3007565e-07
9.0613095e-07
9.0236344e-07
9.0579534e-07
8.5769935e-07
8.2199705e-07
7.9458171e-07
7.7457689e-07
7.6008014e-07
7.5006488e-07
7.4389613e-07
7.4117242e-07
7.4160868e-07
7.4503691e-07
7.5129939e-07
7.5986747e-07
7.7022724e-07
7.8224337e-07
7.9613312e-07
8.1228684e-07
8.3118287e-07
8.5337048e-07
8.7946537e-07
9.101405e-07
9.4612794e-07
9.8822588e-07
1.0372906e-06
1.0942912e-06
1.1605003e-06
1.2375086e-06
1.3272132e-06
1.4318138e-06
1.5538315e-06
1.6961375e-06
1.86196e-06
2.0548727e-06
2.2782931e-06
2.5345052e-06
2.8250727e-06
3.1504525e-06
3.510057e-06
3.9019783e-06
4.3202929e-06
4.7616876e-06
5.2184449e-06
5.6821143e-06
6.1410463e-06
6.5801137e-06
6.985382e-06
7.3478531e-06
7.6646207e-06
7.9382556e-06
8.1726501e-06
8.3704382e-06
8.5386034e-06
8.6835671e-06
8.8106184e-06
8.923905e-06
9.0264773e-06
9.1205167e-06
9.2075637e-06
9.2886491e-06
9.3643704e-06
9.4352422e-06
9.5016597e-06
9.5637245e-06
9.6213678e-06
9.6741092e-06
9.7002496e-06
9.7153833e-06
9.7242513e-06
9.7275765e-06
9.7256219e-06
9.7185549e-06
9.7067013e-06
9.6903613e-06
9.6699413e-06
9.6458182e-06
9.6183719e-06
9.5879946e-06
9.5550192e-06
9.5197663e-06
9.4825436e-06
9.4436167e-06
9.403295e-06
9.3614254e-06
9.3191763e-06
9.2745677e-06
9.2241305e-06
9.1898516e-06
9.0976933e-06
2.2507889e-07
4.2728263e-07
6.9867126e-07
8.9334207e-07
9.8971114e-07
1.0235326e-06
1.0250511e-06
1.01076e-06
9.8912859e-07
9.6536412e-07
9.4377921e-07
9.2877681e-07
9.2203373e-07
9.2308673e-07
9.3205677e-07
9.4904385e-07
9.6935873e-07
9.5336286e-07
9.2973908e-07
9.1689064e-07
9.1370247e-07
9.1852692e-07
9.3044596e-07
9.4883355e-07
9.73331e-07
1.0037709e-06
1.0384901e-06
1.0775459e-06
1.1214806e-06
1.1708266e-06
1.2261867e-06
1.2882953e-06
1.3580628e-06
1.4366106e-06
1.5253046e-06
1.6257585e-06
1.7396122e-06
1.8684981e-06
2.0151732e-06
2.1829675e-06
2.3756824e-06
2.597592e-06
2.8534785e-06
3.1486742e-06
3.4889303e-06
3.879237e-06
4.3214977e-06
4.8170482e-06
5.366438e-06
5.9695173e-06
6.6246444e-06
7.3268177e-06
8.0666774e-06
8.8345701e-06
9.6198151e-06
1.04086e-05
1.1177123e-05
1.1902122e-05
1.2568947e-05
1.3171467e-05
1.3708494e-05
1.4182716e-05
1.4600413e-05
1.4970019e-05
1.5300135e-05
1.5598422e-05
1.5871332e-05
1.6123936e-05
1.6360026e-05
1.6582363e-05
1.6792776e-05
1.6992227e-05
1.7181883e-05
1.7362509e-05
1.7534268e-05
1.7696963e-05
1.7849725e-05
1.7986766e-05
1.8108028e-05
1.8215033e-05
1.8308851e-05
1.8390081e-05
1.8459076e-05
1.8516412e-05
1.8562725e-05
1.8598821e-05
1.8625527e-05
1.864366e-05
1.8654081e-05
1.8657555e-05
1.8654741e-05
1.8646367e-05
1.8633076e-05
1.8615525e-05
1.8593754e-05
1.8569345e-05
1.8540856e-05
1.8499779e-05
1.8478856e-05
1.8401865e-05
1.7530603e-07
2.1589168e-07
3.1858568e-07
4.649764e-07
6.052828e-07
7.1036529e-07
7.7990251e-07
8.2294471e-07
8.4805353e-07
8.6131215e-07
8.6700735e-07
8.6872293e-07
8.6926086e-07
8.7065217e-07
8.7465721e-07
8.829539e-07
8.9638335e-07
9.1558796e-07
9.4167324e-07
9.7590057e-07
1.0156966e-06
1.0618877e-06
1.0571018e-06
1.056301e-06
1.0671302e-06
1.0882803e-06
1.119728e-06
1.1617807e-06
1.214923e-06
1.2798621e-06
1.3575679e-06
1.4493701e-06
1.5571949e-06
1.6840693e-06
1.8350652e-06
2.0182146e-06
2.2360269e-06
2.475261e-06
2.7408876e-06
3.0385844e-06
3.3741432e-06
3.7536761e-06
4.1839276e-06
4.6727884e-06
5.2302426e-06
5.8556065e-06
6.5396419e-06
7.2801429e-06
8.0788237e-06
8.9368302e-06
9.8532144e-06
1.0823429e-05
1.183766e-05
1.2882522e-05
1.3946745e-05
1.4998209e-05
1.6006069e-05
1.6955018e-05
1.7838655e-05
1.8656231e-05
1.9410072e-05
2.0103282e-05
2.074047e-05
2.1327917e-05
2.187226e-05
2.2379955e-05
2.2857107e-05
2.3308877e-05
2.37393e-05
2.4151512e-05
2.4546571e-05
2.4924088e-05
2.5288856e-05
2.5641584e-05
2.5982065e-05
2.6309602e-05
2.6622502e-05
2.6918945e-05
2.7195724e-05
2.7451439e-05
2.7686003e-05
2.7899665e-05
2.8092646e-05
2.8265512e-05
2.8419043e-05
2.8554307e-05
2.8672492e-05
2.877483e-05
2.8862666e-05
2.8937259e-05
2.8999077e-05
2.9049856e-05
2.9090856e-05
2.9123125e-05
2.9147117e-05
2.9164438e-05
2.9175475e-05
2.916511e-05
2.9175059e-05
2.9133549e-05
1.6890601e-07
1.7480226e-07
1.9623052e-07
2.4160144e-07
3.0838009e-07
3.8396055e-07
4.5675809e-07
5.2099395e-07
5.7525006e-07
6.1999604e-07
6.5628263e-07
6.8544595e-07
7.0895791e-07
7.2826909e-07
7.4483457e-07
7.6013173e-07
7.7549748e-07
7.9216961e-07
8.1148131e-07
8.3493315e-07
8.634824e-07
8.9848848e-07
9.4053684e-07
9.8988937e-07
1.0450513e-06
1.1061717e-06
1.1742019e-06
1.2083576e-06
1.2332984e-06
1.2729361e-06
1.3285577e-06
1.4020535e-06
1.4958897e-06
1.6130801e-06
1.7575573e-06
1.934818e-06
2.1514206e-06
2.4125005e-06
2.7238853e-06
3.0927734e-06
3.5277767e-06
4.0393129e-06
4.6407904e-06
5.3516375e-06
6.2045081e-06
6.9697758e-06
7.805189e-06
8.7627459e-06
9.8400713e-06
1.10309e-05
1.2322416e-05
1.3691272e-05
1.510415e-05
1.6564368e-05
1.8073977e-05
1.9178414e-05
2.0096052e-05
2.100391e-05
2.190511e-05
2.279841e-05
2.367888e-05
2.4541519e-05
2.5382612e-05
2.6199669e-05
2.699115e-05
2.7757573e-05
2.8500737e-05
2.9222257e-05
2.9923725e-05
3.0606894e-05
3.1273003e-05
3.1922324e-05
3.2555338e-05
3.3172124e-05
3.3771864e-05
3.435325e-05
3.4913828e-05
3.5451874e-05
3.5964321e-05
3.6448245e-05
3.6901988e-05
3.7324859e-05
3.7716616e-05
3.8077603e-05
3.8408586e-05
3.8710778e-05
3.8985636e-05
3.9234765e-05
3.9460012e-05
3.9663182e-05
3.9845982e-05
4.0010161e-05
4.0157361e-05
4.0289079e-05
4.0406432e-05
4.0510752e-05
4.0605193e-05
4.0668549e-05
4.0745131e-05
4.0789846e-05
1.681811e-07
1.6866198e-07
1.7195871e-07
1.8126283e-07
1.9895978e-07
2.2490976e-07
2.5729566e-07
2.9359842e-07
3.318384e-07
3.7055742e-07
4.0859272e-07
4.4503257e-07
4.7927479e-07
5.110013e-07
5.4019028e-07
5.6710333e-07
5.9219704e-07
6.1605396e-07
6.3940013e-07
6.6312462e-07
6.881541e-07
7.1554979e-07
7.4639052e-07
7.817449e-07
8.2237331e-07
8.6921854e-07
9.2359038e-07
9.8586398e-07
1.0558739e-06
1.1348124e-06
1.2243845e-06
1.3267347e-06
1.4276128e-06
1.4948441e-06
1.5856619e-06
1.7047593e-06
1.8584107e-06
2.0546785e-06
2.3033381e-06
2.6160503e-06
3.0068643e-06
3.4926363e-06
4.0933202e-06
4.8323745e-06
5.7384455e-06
6.7099806e-06
7.7077892e-06
8.8172926e-06
1.0049966e-05
1.1405954e-05
1.2870007e-05
1.4407239e-05
1.5972116e-05
1.7627227e-05
1.9393175e-05
2.067009e-05
2.1768868e-05
2.2850179e-05
2.3924651e-05
2.5000654e-05
2.6080679e-05
2.7165578e-05
2.8250457e-05
2.9330003e-05
3.0400763e-05
3.1461539e-05
3.2510811e-05
3.3546416e-05
3.4567793e-05
3.5575242e-05
3.6568332e-05
3.7546288e-05
3.8508177e-05
3.9452712e-05
4.0377608e-05
4.1280411e-05
4.2157672e-05
4.300629e-05
4.3823165e-05
4.4604813e-05
4.5348234e-05
4.6051434e-05
4.6713271e-05
4.7333456e-05
4.7912409e-05
4.8451177e-05
4.8951185e-05
4.9414165e-05
4.9842301e-05
5.023781e-05
5.0603107e-05
5.0940371e-05
5.1251685e-05
5.1538951e-05
5.1804077e-05
5.2047932e-05
5.2276643e-05
5.2465018e-05
5.2652352e-05
5.2845304e-05
1.6814567e-07
1.6787305e-07
1.6803259e-07
1.6934736e-07
1.7271486e-07
1.7877519e-07
1.8776013e-07
1.996152e-07
2.1420245e-07
2.3140471e-07
2.5108749e-07
2.7275736e-07
2.9594546e-07
3.2017894e-07
3.4502155e-07
3.7012354e-07
3.9523724e-07
4.2021645e-07
4.450409e-07
4.698371e-07
4.948601e-07
5.2049744e-07
5.4726976e-07
5.7582301e-07
6.0686193e-07
6.4119298e-07
6.7980289e-07
7.2366721e-07
7.7367714e-07
8.3099286e-07
8.971636e-07
9.7362285e-07
1.0618835e-06
1.1633076e-06
1.2801054e-06
1.4151497e-06
1.572234e-06
1.7565012e-06
1.9284283e-06
2.1213237e-06
2.3730369e-06
2.7009024e-06
3.1274606e-06
3.6820565e-06
4.4017272e-06
5.3210768e-06
6.2974838e-06
7.3654333e-06
8.5758061e-06
9.9378747e-06
1.1453287e-05
1.3111295e-05
1.4888048e-05
1.6777077e-05
1.8775065e-05
2.0624664e-05
2.1909548e-05
2.3189978e-05
2.443844e-05
2.5675492e-05
2.6933816e-05
2.8217679e-05
2.9509125e-05
3.0810371e-05
3.2127463e-05
3.3455906e-05
3.47901e-05
3.6126739e-05
3.7465149e-05
3.8803169e-05
4.0136975e-05
4.1464485e-05
4.2783851e-05
4.4091672e-05
4.5382857e-05
4.6653006e-05
4.7896828e-05
4.9109089e-05
5.0285705e-05
5.142254e-05
5.2515412e-05
5.3561002e-05
5.455696e-05
5.5501873e-05
5.639541e-05
5.7238042e-05
5.80307e-05
5.8774864e-05
5.9472732e-05
6.0126662e-05
6.0739353e-05
6.1313402e-05
6.1851258e-05
6.2355138e-05
6.2827727e-05
6.3269344e-05
6.3688763e-05
6.4059317e-05
6.4409072e-05
6.4820298e-05
1.6818998e-07
1.6781427e-07
1.6749289e-07
1.6735587e-07
1.6761862e-07
1.6851685e-07
1.7024737e-07
1.7296431e-07
1.7680707e-07
1.8191588e-07
1.8842187e-07
1.9640382e-07
2.0589358e-07
2.1687379e-07
2.2935839e-07
2.4329862e-07
2.5852424e-07
2.7487622e-07
2.9222672e-07
3.1048685e-07
3.2961585e-07
3.4963379e-07
3.7063352e-07
3.927941e-07
4.1637908e-07
4.4174577e-07
4.6937372e-07
4.9985399e-07
5.3386975e-07
5.7224194e-07
6.1599858e-07
6.6633227e-07
7.2462647e-07
7.9245362e-07
8.7176965e-07
9.645401e-07
1.0734978e-06
1.2022322e-06
1.3545229e-06
1.5352745e-06
1.7514854e-06
2.0125186e-06
2.3305864e-06
2.7213351e-06
3.1864744e-06
3.7660425e-06
4.5193325e-06
5.3771564e-06
6.3843489e-06
7.5553898e-06
8.9026462e-06
1.0432362e-05
1.2140945e-05
1.4023077e-05
1.6074356e-05
1.824592e-05
2.0452643e-05
2.2483726e-05
2.3873572e-05
2.5255653e-05
2.666038e-05
2.8074721e-05
2.9489092e-05
3.0935554e-05
3.2434737e-05
3.3955573e-05
3.5497968e-05
3.7071398e-05
3.8672228e-05
4.0293116e-05
4.1929629e-05
4.3581653e-05
4.5244545e-05
4.6911779e-05
4.8574572e-05
5.0225754e-05
5.1856787e-05
5.3460098e-05
5.5029921e-05
5.6560352e-05
5.8045671e-05
5.9481247e-05
6.0863085e-05
6.2188053e-05
6.3454572e-05
6.4661966e-05
6.5810049e-05
6.6899511e-05
6.7932016e-05
6.8909595e-05
6.9834787e-05
7.0710278e-05
7.1538677e-05
7.232233e-05
7.3064554e-05
7.376506e-05
7.4434663e-05
7.5047333e-05
7.5616164e-05
7.6319658e-05
1.6824352e-07
1.6785092e-07
1.6745972e-07
1.6708855e-07
1.6677839e-07
1.6658722e-07
1.6657982e-07
1.6682354e-07
1.6739149e-07
1.6836561e-07
1.6983538e-07
1.7189162e-07
1.7462227e-07
1.7810766e-07
1.8242401e-07
1.8763837e-07
1.9379842e-07
2.0093487e-07
2.0906644e-07
2.1820592e-07
2.2839323e-07
2.3971278e-07
2.5218319e-07
2.6581119e-07
2.8064823e-07
2.9680083e-07
3.1443928e-07
3.338116e-07
3.5525043e-07
3.7917955e-07
4.0614023e-07
4.3680829e-07
4.720203e-07
5.1280156e-07
5.6042915e-07
6.1640895e-07
6.8262579e-07
7.615036e-07
8.5598654e-07
9.6942421e-07
1.106407e-06
1.272978e-06
1.4770988e-06
1.7292149e-06
2.0425608e-06
2.4336015e-06
2.9205231e-06
3.519307e-06
4.2472976e-06
5.123032e-06
6.165674e-06
7.3932632e-06
8.8198598e-06
1.0455582e-05
1.2307795e-05
1.4363637e-05
1.6578933e-05
1.8899878e-05
2.1256533e-05
2.3634174e-05
2.5606235e-05
2.7114012e-05
2.8631361e-05
3.0183869e-05
3.1769902e-05
3.3372494e-05
3.5018961e-05
3.6741994e-05
3.8508396e-05
4.0313078e-05
4.2167715e-05
4.4073733e-05
4.601703e-05
4.7987831e-05
4.9978359e-05
5.1977669e-05
5.3973263e-05
5.5956737e-05
5.7919675e-05
5.985252e-05
6.174775e-05
6.359887e-05
6.5399137e-05
6.7143091e-05
6.882716e-05
7.0448585e-05
7.2005367e-05
7.3496646e-05
7.4922668e-05
7.6284426e-05
7.7583707e-05
7.8822712e-05
8.0003875e-05
8.1129313e-05
8.2202704e-05
8.3223057e-05
8.4202535e-05
8.5117115e-05
8.5963705e-05
8.7033366e-05
1.6834524e-07
1.6795308e-07
1.6755461e-07
1.6715122e-07
1.6674937e-07
1.6636053e-07
1.6600055e-07
1.6568906e-07
1.654499e-07
1.6531196e-07
1.6530953e-07
1.6548204e-07
1.6587349e-07
1.6653152e-07
1.6750691e-07
1.6885292e-07
1.7062361e-07
1.7287223e-07
1.7565054e-07
1.7900887e-07
1.8299866e-07
1.8767608e-07
1.9309595e-07
1.9931197e-07
2.0638185e-07
2.1437277e-07
2.2337395e-07
2.3354651e-07
2.4509376e-07
2.5817775e-07
2.7299638e-07
2.8983624e-07
3.0908909e-07
3.3127088e-07
3.57055e-07
3.8728578e-07
4.2302414e-07
4.6563246e-07
5.168494e-07
5.7883495e-07
6.5439063e-07
7.4721094e-07
8.6216282e-07
1.0055899e-06
1.1860106e-06
1.4145691e-06
1.7051563e-06
2.0734617e-06
2.5370296e-06
3.1151564e-06
3.8287245e-06
4.6997202e-06
5.7501689e-06
7.0013573e-06
8.4736809e-06
1.0180151e-05
1.2116135e-05
1.4259333e-05
1.6565703e-05
1.9000199e-05
2.1510582e-05
2.4054191e-05
2.6628623e-05
2.8807025e-05
3.0461474e-05
3.2134655e-05
3.3856229e-05
3.5628558e-05
3.743582e-05
3.9302807e-05
4.1271143e-05
4.3313888e-05
4.5416101e-05
4.7584823e-05
4.9808863e-05
5.20707e-05
5.4360138e-05
5.6669474e-05
5.8984092e-05
6.1290557e-05
6.358041e-05
6.5843039e-05
6.8067654e-05
7.0246383e-05
7.2372502e-05
7.443978e-05
7.6443553e-05
7.8380367e-05
8.0247995e-05
8.2045505e-05
8.3773115e-05
8.5431737e-05
8.7022992e-05
8.854826e-05
9.0011153e-05
9.1409733e-05
9.2756823e-05
9.4030979e-05
9.521394e-05
9.6720376e-05
1.6852038e-07
1.6817127e-07
1.6780865e-07
1.6743206e-07
1.6704287e-07
1.6664381e-07
1.6623892e-07
1.6583364e-07
1.6543476e-07
1.650508e-07
1.6469229e-07
1.6437211e-07
1.6410581e-07
1.6391176e-07
1.6381123e-07
1.6382849e-07
1.6399074e-07
1.6432788e-07
1.6487224e-07
1.6565846e-07
1.6672349e-07
1.6810686e-07
1.6985056e-07
1.71999e-07
1.7459929e-07
1.7770207e-07
1.8136408e-07
1.8565516e-07
1.9066111e-07
1.9647893e-07
2.0322227e-07
2.1103124e-07
2.2008438e-07
2.3065529e-07
2.4312288e-07
2.5783811e-07
2.7523123e-07
2.9590548e-07
3.2067876e-07
3.5063435e-07
3.8719431e-07
4.3224008e-07
4.8828472e-07
5.5870333e-07
6.4811374e-07
7.6285242e-07
9.1144571e-07
1.1048701e-06
1.3569985e-06
1.6847118e-06
2.1078588e-06
2.6488821e-06
3.3320481e-06
4.1824866e-06
5.2256595e-06
6.4854746e-06
7.9795484e-06
9.7151664e-06
1.1684022e-05
1.38698e-05
1.6241271e-05
1.876019e-05
2.140109e-05
2.4120877e-05
2.6880315e-05
2.9682999e-05
3.2159868e-05
3.3990368e-05
3.5843981e-05
3.7759375e-05
3.9741061e-05
4.1770171e-05
4.3879188e-05
4.6121617e-05
4.8442563e-05
5.0832851e-05
5.3305663e-05
5.5841653e-05
5.8418022e-05
6.1025598e-05
6.3653731e-05
6.6283398e-05
6.8901527e-05
7.1498002e-05
7.4060617e-05
7.6578867e-05
7.9044548e-05
8.145019e-05
8.379004e-05
8.6060252e-05
8.8258283e-05
9.0382677e-05
9.2433254e-05
9.4409855e-05
9.6315296e-05
9.8146164e-05
9.9915173e-05
0.0001016033
0.00010318011
0.00010518851
1.6867654e-07
1.6839195e-07
1.6809285e-07
1.677778e-07
1.6744668e-07
1.6710017e-07
1.6673958e-07
1.6636669e-07
1.6598358e-07
1.6559261e-07
1.6519657e-07
1.6479898e-07
1.6440428e-07
1.6401806e-07
1.6364732e-07
1.6330055e-07
1.6298798e-07
1.6272169e-07
1.6251569e-07
1.6238607e-07
1.6235105e-07
1.6243106e-07
1.626489e-07
1.6302981e-07
1.6360159e-07
1.643947e-07
1.6544285e-07
1.6678414e-07
1.684622e-07
1.7052699e-07
1.7303644e-07
1.7605891e-07
1.796764e-07
1.8399395e-07
1.8914935e-07
1.9530859e-07
2.0267441e-07
2.1150532e-07
2.2215468e-07
2.3517782e-07
2.5118557e-07
2.7088921e-07
2.9531071e-07
3.2589157e-07
3.6466261e-07
4.1447615e-07
4.7933777e-07
5.6483099e-07
6.7868957e-07
8.3145659e-07
1.037162e-06
1.3138913e-06
1.6841826e-06
2.1745622e-06
2.8143478e-06
3.6335259e-06
4.6594551e-06
5.91328e-06
7.4070017e-06
9.1449841e-06
1.1122046e-05
1.3323943e-05
1.5734635e-05
1.8326836e-05
2.1065663e-05
2.3930945e-05
2.6888374e-05
2.9895251e-05
3.295997e-05
3.573934e-05
3.777124e-05
3.9819653e-05
4.1937426e-05
4.4134309e-05
4.6390905e-05
4.8758666e-05
5.1282068e-05
5.389237e-05
5.6588502e-05
5.9380287e-05
6.2238073e-05
6.5138003e-05
6.8073004e-05
7.1026153e-05
7.3977453e-05
7.6914103e-05
7.9822412e-05
8.2689638e-05
8.5505947e-05
8.8263259e-05
9.0954737e-05
9.3575223e-05
9.6121427e-05
9.8590423e-05
0.00010098308
0.00010329363
0.00010553364
0.00010768575
0.00010971177
0.00011227997
1.6876872e-07
1.6852908e-07
1.6827912e-07
1.6801706e-07
1.6774195e-07
1.6745343e-07
1.6715167e-07
1.668372e-07
1.6651068e-07
1.6617276e-07
1.6582405e-07
1.654652e-07
1.6509708e-07
1.6472088e-07
1.6433822e-07
1.6395128e-07
1.6356291e-07
1.6317674e-07
1.6279734e-07
1.6243031e-07
1.6208242e-07
1.6176177e-07
1.6147788e-07
1.6124187e-07
1.6106656e-07
1.6096666e-07
1.6095891e-07
1.6106242e-07
1.6129902e-07
1.6169363e-07
1.6227493e-07
1.6307615e-07
1.6413602e-07
1.6550076e-07
1.6722703e-07
1.6938412e-07
1.7205694e-07
1.7535097e-07
1.7940154e-07
1.8439385e-07
1.9056482e-07
1.9821301e-07
2.0773383e-07
2.196853e-07
2.3495871e-07
2.545935e-07
2.8000597e-07
3.133332e-07
3.5773055e-07
4.1779779e-07
5.0016787e-07
6.1433558e-07
7.7375491e-07
9.9702817e-07
1.3088441e-06
1.7400006e-06
2.3257755e-06
3.1012541e-06
4.0952544e-06
5.3266155e-06
6.803689e-06
8.5270296e-06
1.0494814e-05
1.270059e-05
1.51309e-05
1.7772202e-05
2.0602106e-05
2.35865e-05
2.670828e-05
2.9938071e-05
3.3229618e-05
3.6594264e-05
3.9601593e-05
4.1821957e-05
4.407727e-05
4.6419299e-05
4.8850395e-05
5.134921e-05
5.401032e-05
5.6837105e-05
5.9754198e-05
6.2777407e-05
6.5905303e-05
6.909923e-05
7.2339244e-05
7.561448e-05
7.8900068e-05
8.2179965e-05
8.544006e-05
8.8665865e-05
9.1845055e-05
9.4967311e-05
9.8024807e-05
0.00010101017
0.00010392087
0.00010674749
0.00010949903
0.00011215853
0.00011468473
0.00011786056
1.6881502e-07
1.6859872e-07
1.683758e-07
1.6814484e-07
1.6790485e-07
1.6765517e-07
1.673955e-07
1.6712589e-07
1.6684655e-07
1.6655765e-07
1.6625927e-07
1.659514e-07
1.65634e-07
1.6530705e-07
1.6497063e-07
1.6462492e-07
1.6427032e-07
1.6390745e-07
1.6353724e-07
1.6316099e-07
1.6278046e-07
1.6239796e-07
1.6201642e-07
1.6163952e-07
1.6127177e-07
1.6091866e-07
1.6058677e-07
1.6028394e-07
1.6001941e-07
1.5980404e-07
1.5965057e-07
1.5957395e-07
1.5959165e-07
1.5972427e-07
1.5999634e-07
1.6043731e-07
1.6108272e-07
1.619758e-07
1.6317005e-07
1.647337e-07
1.6675397e-07
1.6934205e-07
1.7264246e-07
1.7684858e-07
1.8223601e-07
1.8917419e-07
1.9816837e-07
2.099434e-07
2.2567591e-07
2.4704334e-07
2.7629082e-07
3.1693366e-07
3.7437839e-07
4.5682792e-07
5.765479e-07
7.5151645e-07
1.0071452e-06
1.3769111e-06
1.9003702e-06
2.6175563e-06
3.5613012e-06
4.7512159e-06
6.1948113e-06
7.8921146e-06
9.8401431e-06
1.2037399e-05
1.4480345e-05
1.7157375e-05
2.0056759e-05
2.3158674e-05
2.6427937e-05
2.9848734e-05
3.3388075e-05
3.6999998e-05
4.0698146e-05
4.3790161e-05
4.6218982e-05
4.8700151e-05
5.128849e-05
5.3969042e-05
5.6738212e-05
5.9725498e-05
6.2874444e-05
6.6131625e-05
6.9508879e-05
7.2988378e-05
7.6529603e-05
8.0122756e-05
8.3746561e-05
8.7377383e-05
9.0998346e-05
9.4591972e-05
9.8145053e-05
0.00010164371
0.0001050807
0.00010844139
0.00011173028
0.00011492951
0.00011799682
0.00012181393
1.6883674e-07
1.6863122e-07
1.6842113e-07
1.6820552e-07
1.6798364e-07
1.6775489e-07
1.6751891e-07
1.6727562e-07
1.670251e-07
1.6676743e-07
1.6650262e-07
1.6623059e-07
1.6595118e-07
1.656642e-07
1.6536944e-07
1.6506667e-07
1.647557e-07
1.6443638e-07
1.6410863e-07
1.6377243e-07
1.6342791e-07
1.6307536e-07
1.6271527e-07
1.6234837e-07
1.6197572e-07
1.6159874e-07
1.612193e-07
1.6083983e-07
1.6046334e-07
1.6009361e-07
1.5973527e-07
1.5939394e-07
1.5907645e-07
1.58791e-07
1.5854745e-07
1.5835771e-07
1.5823613e-07
1.5820011e-07
1.5827084e-07
1.5847455e-07
1.5884398e-07
1.5942026e-07
1.6025582e-07
1.6141864e-07
1.6299967e-07
1.6512141e-07
1.6795102e-07
1.7172254e-07
1.767847e-07
1.8365187e-07
1.9306684e-07
2.0615515e-07
2.2478773e-07
2.518024e-07
2.9138311e-07
3.5033325e-07
4.3945023e-07
5.7530853e-07
7.8222629e-07
1.0935232e-06
1.5504094e-06
2.1971561e-06
3.0725825e-06
4.2024124e-06
5.5968195e-06
7.2561817e-06
9.1785588e-06
1.1362713e-05
1.3810179e-05
1.6520406e-05
1.9482159e-05
2.2683741e-05
2.6102672e-05
2.9701625e-05
3.3465588e-05
3.7346939e-05
4.1312926e-05
4.5377661e-05
4.8389153e-05
5.1036227e-05
5.3764214e-05
5.6615606e-05
5.9556179e-05
6.266977e-05
6.6003697e-05
6.9489617e-05
7.3110062e-05
7.6863237e-05
8.0713964e-05
8.4630874e-05
8.8596586e-05
9.2582792e-05
9.6571944e-05
0.00010054144
0.00010447906
0.00010836276
0.00011219065
0.00011594305
0.00011957195
0.00012404334
1.6884626e-07
1.6864535e-07
1.6844088e-07
1.6823221e-07
1.6801883e-07
1.6780025e-07
1.6757618e-07
1.6734655e-07
1.6711139e-07
1.6687079e-07
1.6662479e-07
1.6637337e-07
1.6611643e-07
1.6585385e-07
1.6558544e-07
1.6531102e-07
1.6503036e-07
1.6474325e-07
1.6444945e-07
1.6414873e-07
1.6384088e-07
1.635257e-07
1.6320304e-07
1.628728e-07
1.6253495e-07
1.6218958e-07
1.6183691e-07
1.6147732e-07
1.6111143e-07
1.6074009e-07
1.6036451e-07
1.5998627e-07
1.5960743e-07
1.5923063e-07
1.5885917e-07
1.5849719e-07
1.5814982e-07
1.5782341e-07
1.5752578e-07
1.5726657e-07
1.5705781e-07
1.5691447e-07
1.5685535e-07
1.5690443e-07
1.5709271e-07
1.5746097e-07
1.5806387e-07
1.5897627e-07
1.6030449e-07
1.6220279e-07
1.6489667e-07
1.6872394e-07
1.7421749e-07
1.8221406e-07
1.9401767e-07
2.1174074e-07
2.3911472e-07
2.8173608e-07
3.4870862e-07
4.5456723e-07
6.2127382e-07
8.7996675e-07
1.2711523e-06
1.8415509e-06
2.6366098e-06
3.6907639e-06
5.0218559e-06
6.6336334e-06
8.5244103e-06
1.0694723e-05
1.3146977e-05
1.5885646e-05
1.891024e-05
2.2207275e-05
2.576348e-05
2.9546935e-05
3.3521281e-05
3.7672623e-05
4.1927348e-05
4.628007e-05
5.0560817e-05
5.3454727e-05
5.6334268e-05
5.9333565e-05
6.2456814e-05
6.5686844e-05
6.9197032e-05
7.2902965e-05
7.6781276e-05
8.0806404e-05
8.4960006e-05
8.9201344e-05
9.3511155e-05
9.7857765e-05
0.00010222403
0.00010657814
0.00011091047
0.00011519892
0.00011937581
0.00012448443
1.6884982e-07
1.6865069e-07
1.6844844e-07
1.6824267e-07
1.68033e-07
1.6781909e-07
1.676007e-07
1.6737776e-07
1.671503e-07
1.6691843e-07
1.666822e-07
1.6644163e-07
1.6619671e-07
1.6594739e-07
1.6569357e-07
1.6543514e-07
1.6517198e-07
1.6490394e-07
1.6463085e-07
1.6435254e-07
1.6406882e-07
1.6377949e-07
1.6348434e-07
1.6318315e-07
1.6287573e-07
1.6256188e-07
1.6224141e-07
1.6191418e-07
1.6158011e-07
1.6123915e-07
1.6089138e-07
1.6053697e-07
1.6017625e-07
1.5980974e-07
1.5943821e-07
1.590627e-07
1.5868465e-07
1.5830593e-07
1.5792895e-07
1.5755683e-07
1.5719351e-07
1.56844e-07
1.5651466e-07
1.5621355e-07
1.5595104e-07
1.5574054e-07
1.5559974e-07
1.5555239e-07
1.5563124e-07
1.5588263e-07
1.5637344e-07
1.5720254e-07
1.5852122e-07
1.6056593e-07
1.6371021e-07
1.6855861e-07
1.7614028e-07
1.8813646e-07
2.0734503e-07
2.3866139e-07
2.8977052e-07
3.7287394e-07
5.0705531e-07
7.2032881e-07
1.0509086e-06
1.5458599e-06
2.2556298e-06
3.2245675e-06
4.4812331e-06
6.0370693e-06
7.8927294e-06
1.0048149e-05
1.2507955e-05
1.5277675e-05
1.8363233e-05
2.1759608e-05
2.5449475e-05
2.9416974e-05
3.3613437e-05
3.8008058e-05
4.2578406e-05
4.7237029e-05
5.2007368e-05
5.5897374e-05
5.9008684e-05
6.2159374e-05
6.5465203e-05
6.8875145e-05
7.2531404e-05
7.6444193e-05
8.0561954e-05
8.4860695e-05
8.9309656e-05
9.3880808e-05
9.8545517e-05
0.00010326383
0.0001080174
0.0001127792
0.00011744981
0.00012313013
1.6885054e-07
1.6865187e-07
1.684503e-07
1.6824555e-07
1.6803735e-07
1.6782545e-07
1.6760965e-07
1.6738989e-07
1.671662e-07
1.6693867e-07
1.6670736e-07
1.6647233e-07
1.662336e-07
1.6599115e-07
1.6574496e-07
1.6549499e-07
1.6524117e-07
1.6498345e-07
1.6472173e-07
1.6445592e-07
1.6418591e-07
1.6391158e-07
1.6363279e-07
1.633494e-07
1.6306125e-07
1.6276818e-07
1.6247e-07
1.6216653e-07
1.6185759e-07
1.6154299e-07
1.6122256e-07
1.6089614e-07
1.605636e-07
1.6022486e-07
1.5987991e-07
1.5952878e-07
1.5917166e-07
1.5880886e-07
1.5844085e-07
1.5806836e-07
1.5769239e-07
1.5731429e-07
1.5693587e-07
1.5655953e-07
1.5618837e-07
1.5582651e-07
1.5547935e-07
1.5515409e-07
1.5486056e-07
1.5461241e-07
1.5442908e-07
1.5433891e-07
1.5438436e-07
1.5463092e-07
1.5518165e-07
1.562026e-07
1.5797112e-07
1.6095072e-07
1.6592411e-07
1.7425024e-07
1.8821303e-07
2.1162394e-07
2.5108193e-07
3.168199e-07
4.2500715e-07
6.002177e-07
8.7742016e-07
1.3024671e-06
1.928779e-06
2.8091603e-06
3.9850616e-06
5.478303e-06
7.2955432e-06
9.4370565e-06
1.1906974e-05
1.4713666e-05
1.7864155e-05
2.1363489e-05
2.519614e-05
2.9339585e-05
3.3769542e-05
3.8423412e-05
4.3279797e-05
4.8272985e-05
5.3371193e-05
5.8444224e-05
6.1811706e-05
6.5158644e-05
6.8616968e-05
7.2219127e-05
7.6016155e-05
8.0137567e-05
8.4473976e-05
8.9059074e-05
9.3822376e-05
9.8736366e-05
0.00010376719
0.00010887861
0.00011395187
0.00012006259
1.6884996e-07
1.6865119e-07
1.684496e-07
1.6824502e-07
1.6803725e-07
1.6782609e-07
1.6761138e-07
1.6739308e-07
1.671712e-07
1.669458e-07
1.6671696e-07
1.6648473e-07
1.6624914e-07
1.6601021e-07
1.6576796e-07
1.6552236e-07
1.6527341e-07
1.6502109e-07
1.6476536e-07
1.6450618e-07
1.6424351e-07
1.6397729e-07
1.6370745e-07
1.6343393e-07
1.6315663e-07
1.6287547e-07
1.6259034e-07
1.6230113e-07
1.6200769e-07
1.617099e-07
1.6140762e-07
1.6110067e-07
1.6078891e-07
1.6047217e-07
1.6015029e-07
1.5982312e-07
1.5949052e-07
1.5915239e-07
1.5880868e-07
1.5845937e-07
1.5810454e-07
1.5774436e-07
1.5737915e-07
1.570094e-07
1.5663581e-07
1.5625938e-07
1.5588152e-07
1.5550411e-07
1.5512981e-07
1.5476233e-07
1.5440697e-07
1.5407141e-07
1.5376713e-07
1.5351167e-07
1.5333247e-07
1.5327358e-07
1.5340774e-07
1.5385705e-07
1.5482908e-07
1.5668409e-07
1.6004396e-07
1.659762e-07
1.7634382e-07
1.9427067e-07
2.2496208e-07
2.772885e-07
3.6479193e-07
5.0873288e-07
7.4057547e-07
1.1037582e-06
1.6528202e-06
2.4470937e-06
3.5398542e-06
4.9669206e-06
6.7432869e-06
8.8725859e-06
1.135741e-05
1.4207721e-05
1.7433037e-05
2.1038459e-05
2.5022335e-05
2.9355639e-05
3.4011577e-05
3.8938463e-05
4.4089153e-05
4.9438584e-05
5.4880081e-05
6.044516e-05
6.4709611e-05
6.829375e-05
7.1933873e-05
7.5735038e-05
7.9676954e-05
8.4011732e-05
8.860115e-05