/*--------------------------------*- C++ -*----------------------------------*\
| =========                 |                                                 |
| \\      /  F ield         | OpenFOAM: The Open Source CFD Toolbox           |
|  \\    /   O peration     | Version:  2206                                  |
|   \\  /    A nd           | Website:  www.openfoam.com                      |
|    \\/     M anipulation  |                                                 |
\*---------------------------------------------------------------------------*/
FoamFile
{
    version     2.0;
    format      ascii;
    arch        "LSB;label=32;scalar=64";
    class       volScalarField;
    location    "1200";
    object      omega;
}
// * * * * * * * * * * * * * * * * * * * * * * * * * * * * * * * * * * * * * //

dimensions      [0 0 -1 0 0 0 0];

internalField   nonuniform List<scalar> 
7480
(
7569.1014
7590.8089
7571.1052
7538.1493
7512.5601
7498.0727
7491.1161
7487.7266
7485.8474
7484.6238
7483.6785
7482.8678
7482.1614
7481.5502
7481.0203
7480.5579
7480.1546
7479.8005
7479.4854
7479.2029
7478.9493
7478.7204
7478.5122
7478.3224
7478.149
7477.99
7477.8436
7477.7084
7477.5836
7477.4682
7477.3612
7477.262
7477.1701
7477.0848
7477.0058
7476.9325
7476.8648
7476.8024
7476.7449
7476.6924
7476.6447
7476.6018
7476.5636
7476.5302
7476.5016
7476.4782
7476.4602
7476.448
7476.4415
7476.4405
7476.445
7476.4547
7476.469
7476.4871
7476.508
7476.5311
7476.555
7476.5777
7476.5971
7476.612
7476.6218
7476.627
7476.6278
7476.6249
7476.6192
7476.6113
7476.6019
7476.5915
7476.5805
7476.5691
7476.5576
7476.546
7476.5345
7476.5232
7476.512
7476.5009
7476.4901
7476.4789
7476.4676
7476.4561
7476.4446
7476.433
7476.4214
7476.4097
7476.398
7476.3861
7476.3742
7476.3622
7476.3501
7476.3381
7476.326
7476.3139
7476.3018
7476.2898
7476.2778
7476.2653
7476.2544
7476.2387
7476.2298
7476.2059
1003.2541
1574.4102
1842.4993
1920.769
1937.0132
1923.8395
1863.1385
1797.7878
1744.1621
1703.9727
1673.3279
1647.6678
1624.4464
1603.0354
1583.2436
1564.8597
1547.8119
1532.1857
1517.8298
1504.5254
1492.1753
1480.7572
1470.1641
1460.2831
1451.0685
1442.4938
1434.4872
1426.9803
1419.942
1413.3485
1407.1578
1401.3343
1395.8618
1390.7237
1385.896
1381.3601
1377.1069
1373.125
1369.4007
1365.9259
1362.6989
1359.7174
1356.9779
1354.4846
1352.2332
1350.2278
1348.4627
1346.9583
1345.7188
1344.7355
1344.0296
1343.6349
1343.4465
1343.4318
1343.5532
1343.7724
1344.0473
1344.3149
1344.5241
1344.6208
1344.5779
1344.397
1344.1219
1343.7452
1343.2651
1342.7053
1342.0873
1341.4316
1340.754
1340.0663
1339.3773
1338.6939
1338.0197
1337.3577
1336.7108
1336.0785
1335.4637
1334.8572
1334.2545
1333.657
1333.0647
1332.4776
1331.8951
1331.3148
1330.7362
1330.1583
1329.581
1329.0045
1328.4288
1327.8547
1327.282
1326.7116
1326.1439
1325.5776
1325.0174
1324.4455
1323.9
1323.3392
1322.6623
1322.0511
190.66793
396.63797
585.96533
709.20586
769.24995
785.36148
782.0638
789.1933
803.66187
812.82476
819.30652
823.52221
825.0191
824.12113
821.39336
817.37252
811.90763
805.25052
797.66147
789.35846
780.55285
771.44883
762.19008
752.88052
743.62498
734.51803
725.57565
716.79802
708.20125
699.8089
691.63538
683.69062
675.98813
668.54036
661.35461
654.43873
647.80238
641.44571
635.36601
629.56385
624.04524
618.81799
613.88958
609.27109
604.97081
600.98728
597.32429
593.96277
590.89265
588.10358
585.63153
583.48079
581.54643
579.79434
578.19952
576.70881
575.26045
573.81088
572.35549
570.89299
569.41431
567.90797
566.45655
565.01149
563.55496
562.08985
560.62236
559.16137
557.71517
556.29071
554.89343
553.5278
552.19694
550.90292
549.64758
548.43005
547.2511
546.13297
545.05913
544.01673
542.99913
542.00313
541.02686
540.06673
539.12082
538.1868
537.2634
536.34967
535.44473
534.54858
533.66045
532.78044
531.90865
531.04342
530.18874
529.3283
528.49523
527.6575
526.73698
525.65193
72.002704
121.36738
194.00132
267.73132
324.63229
359.73784
377.80529
386.78085
392.45121
397.56716
404.51689
415.22585
426.2076
437.93257
452.28207
470.55331
485.14087
496.52928
505.29689
511.85389
516.52412
519.59917
521.33814
522.01044
521.93185
521.34872
519.99026
517.80444
514.87926
511.3389
507.30255
502.87401
498.14412
493.19329
488.09613
482.92699
477.73344
472.49853
467.22187
461.92056
456.62076
451.35018
446.13433
440.99714
435.97057
431.03668
426.18886
421.38786
416.62089
411.89884
407.2433
402.75308
398.32909
393.98319
389.75079
385.58697
381.45643
377.40246
373.5128
369.85779
366.45433
363.31986
360.48908
357.88695
355.4638
353.18429
351.0215
348.95664
346.9769
345.07352
343.24044
341.47411
339.77241
338.13298
336.55425
335.03364
333.5703
332.1894
330.88316
329.63608
328.43793
327.28326
326.16924
325.09208
324.04889
323.03639
322.05187
321.09294
320.15723
319.24321
318.34895
317.47329
316.61501
315.77216
314.946
314.12732
313.3252
312.57319
311.71833
310.76097
55.641199
64.532729
83.913013
111.35401
140.428
165.53507
184.58976
198.13941
207.75025
214.79641
220.42809
225.67018
230.96603
236.83785
244.10558
253.55432
263.35173
273.15504
282.75058
292.0079
300.83349
309.30768
317.72388
326.71525
337.34653
349.83328
359.69207
366.92276
372.20367
375.98509
378.57333
380.18955
381.01214
381.20874
380.97026
380.50815
379.80079
378.45589
376.46941
373.92617
370.92139
367.53765
363.84303
359.8984
355.77906
351.47893
346.94535
342.14735
337.11236
331.88742
326.52144
321.07454
315.61993
310.16718
304.75237
299.32993
293.92529
288.66108
283.65655
278.99229
274.73055
270.88547
267.41694
264.26841
261.38604
258.72336
256.24088
253.90756
251.69976
249.59972
247.59466
245.67655
243.83815
242.07364
240.37899
238.7504
237.18678
235.691
234.26589
232.90739
231.60975
230.36852
229.18104
228.044
226.9545
225.90916
224.90474
223.93818
223.00631
222.10661
221.2367
220.39433
219.5773
218.78333
218.01188
217.258
216.51788
215.84973
215.09976
214.2835
53.50896
54.43682
58.088418
65.266794
75.161076
86.045492
96.438845
105.64731
113.54807
120.26798
125.97357
130.87952
135.19067
139.11923
142.94804
147.01595
151.42403
156.27451
161.71359
167.82179
174.16017
180.7273
187.52879
194.61675
202.10327
210.0719
218.05374
225.69094
232.80929
239.34775
245.31989
250.80517
255.97444
261.1576
266.96449
274.11597
281.5303
286.10236
288.74979
290.08006
290.44745
290.06926
289.09833
287.68059
285.99741
284.19633
281.83194
278.80943
275.22999
271.2019
266.82539
262.19863
257.42198
252.52687
247.56562
242.61055
237.71616
232.96611
228.43982
224.19
220.23693
216.58736
213.22458
210.12041
207.24478
204.56737
202.05913
199.69597
197.45774
195.32791
193.29396
191.34764
189.48154
187.68974
185.968
184.31242
182.7221
181.19194
179.72339
178.31806
176.97501
175.69229
174.46824
173.30043
172.18641
171.1232
170.10773
169.13687
168.20728
167.31606
166.46042
165.63775
164.84546
164.0811
163.34326
162.6288
161.93038
161.30189
160.62997
159.8905
53.223473
52.807999
52.958585
54.085104
56.273762
59.364862
62.975238
66.791983
70.621133
74.35992
77.938168
81.309832
84.453183
87.366223
90.079893
92.662806
95.185128
97.717463
100.34399
103.1554
106.19467
109.5299
113.24398
117.38789
121.86571
126.72681
131.94163
137.42621
143.08382
148.83053
154.59381
160.31653
165.96748
171.55662
177.13947
182.82208
188.52575
193.80111
198.43581
202.38476
205.68445
208.42231
210.75014
212.947
215.47824
218.4768
219.85461
219.67296
218.49256
216.62681
214.29607
211.70015
209.00673
205.97888
202.56107
199.0571
195.6201
192.29686
189.04675
185.8794
182.82136
179.88638
177.0758
174.39183
171.83466
169.39712
167.06962
164.84533
162.71495
160.66953
158.70202
156.80761
154.98242
153.22374
151.52917
149.89578
148.32328
146.8075
145.34716
143.94393
142.59897
141.31233
140.08355
138.91119
137.79344
136.72797
135.71224
134.74348
133.81852
132.93452
132.08854
131.27797
130.5003
129.7531
129.03466
128.34246
127.66979
127.05753
126.4352
125.73456
53.161319
52.541732
52.020092
51.712133
51.71167
52.046794
52.633172
53.45567
54.480352
55.669827
56.98439
58.38611
59.839727
61.312354
62.778666
64.226052
65.652402
67.06281
68.471722
69.903217
71.383316
72.943322
74.623286
76.468846
78.516531
80.817949
83.429977
86.356556
89.55227
93.01531
96.735338
100.69271
104.86442
109.23088
113.78312
118.52173
123.42681
128.40584
133.35476
138.17722
142.79245
147.13848
151.17205
154.87727
158.27688
161.33615
163.87937
165.76707
166.99983
167.67065
167.93201
167.98398
167.97794
167.24607
165.73448
163.88637
162.05942
160.2792
158.32375
156.29529
154.25588
152.20498
150.13843
148.07823
146.04107
144.03074
142.05357
140.12176
138.23373
136.39004
134.59234
132.84191
131.13942
129.48785
127.88787
126.33794
124.83941
123.39065
121.98969
120.6374
119.33538
118.0848
116.88625
115.73931
114.64285
113.5955
112.59562
111.6411
110.72922
109.85761
109.02367
108.22503
107.45958
106.72507
106.01988
105.34178
104.68591
104.08045
103.48819
102.80755
53.124944
52.474697
51.838276
51.240003
50.710239
50.271814
49.928946
49.683939
49.538912
49.483059
49.494165
49.598769
49.796756
50.078144
50.429382
50.837367
51.291858
51.784689
52.310613
52.86829
53.459533
54.08903
54.765534
55.502381
56.315772
57.226573
58.261375
59.446059
60.802111
62.355377
64.135941
66.146542
68.384374
70.855775
73.572183
76.542473
79.773011
83.2565
86.970318
90.883714
94.960815
99.16119
103.44084
107.75372
112.06014
116.25998
120.20851
123.79462
126.92994
129.55804
131.6521
133.21438
134.27567
134.88267
135.04294
134.79456
134.3761
133.84726
132.99768
132.01509
130.99472
129.84912
128.54948
127.1672
125.72786
124.23087
122.69853
121.14956
119.59076
118.03155
116.48127
114.94744
113.43528
111.95718
110.51532
109.10783
107.73937
106.40952
105.11621
103.86067
102.64455
101.46935
100.33629
99.245847
98.197383
97.190916
96.226
95.301385
94.414832
93.564872
92.749652
91.967265
91.216373
90.495043
89.801993
89.135357
88.492241
87.89091
87.317179
86.648142
53.094903
52.438128
51.782119
51.130737
50.490815
49.869696
49.272896
48.705061
48.17097
47.674388
47.21687
46.802492
46.434837
46.115612
45.830256
45.5729
45.356187
45.185552
45.061193
44.981588
44.944638
44.947913
44.990517
45.073929
45.201598
45.378932
45.613864
45.916299
46.297563
46.771021
47.352913
48.059271
48.90662
49.914414
51.106381
52.489135
54.079485
55.896096
57.950576
60.25173
62.808749
65.62842
68.714946
72.06987
75.693331
79.564296
83.599527
87.697252
91.753543
95.66113
99.31458
102.61543
105.47931
107.85064
109.69087
110.92248
111.55304
111.75986
111.743
111.56298
111.32512
110.96224
110.42143
109.77401
109.01759
108.09591
107.07249
105.97196
104.79975
103.5774
102.32135
101.04703
99.764817
98.507038
97.268382
96.046369
94.844434
93.664439
92.506593
91.37247
90.263948
89.182839
88.131072
87.110062
86.119306
85.160452
84.235663
83.344468
82.485288
81.657387
80.859856
80.091449
79.352073
78.639946
77.954415
77.294162
76.657882
76.056903
75.49202
74.82767
53.068523
52.408368
51.747188
51.085253
50.423685
49.764028
49.108046
48.457771
47.815609
47.184164
46.565905
45.963386
45.379187
44.815714
44.27368
43.753213
43.255704
42.78294
42.336538
41.917665
41.521948
41.139088
40.773875
40.435805
40.130905
39.862683
39.63376
39.446417
39.303137
39.20801
39.167134
39.187965
39.279219
39.451187
39.716254
40.08701
40.578434
41.208875
41.998402
42.958173
44.108281
45.470762
47.069687
48.931274
51.084181
53.55868
56.373255
59.516462
62.958912
66.647676
70.50523
74.429767
78.29854
81.981301
85.355016
88.278458
90.621402
92.353756
93.517764
94.221871
94.586845
94.756368
94.785684
94.711056
94.547488
94.225213
93.785517
93.228114
92.52285
91.717725
90.83299
89.897392
88.920785
87.937835
86.942076
85.934615
84.92126
83.906003
82.891973
81.883023
80.882489
79.893532
78.919603
77.963526
77.026999
76.112404
75.222259
74.357787
73.519305
72.70711
71.921245
71.161443
70.427672
69.719245
69.036127
68.377352
67.742962
67.139527
66.576938
65.912737
53.030502
52.366465
51.701568
51.035573
50.368464
49.700283
49.031291
48.362081
47.69357
47.0269
46.363315
45.704122
45.050699
44.404475
43.766767
43.138753
42.521624
41.916611
41.32497
40.747942
40.186211
39.639391
39.107641
38.59209
38.094358
37.616218
37.158773
36.716248
36.283454
35.868962
35.483194
35.133342
34.824534
34.560781
34.345783
34.184735
34.084673
34.054593
34.105319
34.248337
34.497497
34.869947
35.385329
36.063457
36.932447
38.026672
39.385553
41.048062
43.050349
45.420129
48.169741
51.287771
54.730346
58.416533
62.231696
66.022379
69.600881
72.793809
75.471005
77.595128
79.17832
80.298446
81.053797
81.522613
81.795151
81.937145
81.960197
81.886429
81.679462
81.361107
80.926324
80.397727
79.795094
79.12618
78.398843
77.626554
76.819723
75.984536
75.127479
74.255374
73.3736
72.487226
71.601512
70.72067
69.848132
68.987519
68.142025
67.314049
66.50531
65.71708
64.950296
64.205554
63.483355
62.783791
62.107247
61.453122
60.822498
60.219047
59.658272
58.995358
52.972107
52.292978
51.615342
50.938844
50.263064
49.587495
48.911771
48.235819
47.559855
46.884285
46.2096
45.53633
44.865055
44.196401
43.531036
42.869658
42.213
41.561834
40.916969
40.279251
39.649507
39.028438
38.416692
37.81497
37.224059
36.644833
36.078181
35.524309
34.98287
34.45446
33.940729
33.443894
32.96611
32.503541
32.049304
31.613222
31.207719
30.840865
30.51827
30.243986
30.022957
29.862862
29.773694
29.767503
29.859708
30.070553
30.425374
30.954208
31.695758
32.695294
34.002815
35.668755
37.736691
40.231959
43.149294
46.43816
49.988551
53.636248
57.184238
60.455781
63.313051
65.687037
67.582308
69.024028
70.072426
70.81521
71.309242
71.626436
71.817305
71.88931
71.862348
71.7253
71.496752
71.186571
70.775303
70.288223
69.738641
69.131417
68.47496
67.779143
67.051659
66.299431
65.529929
64.749111
63.962332
63.17506
62.39161
61.615694
60.850462
60.098289
59.361176
58.640661
57.937975
57.254012
56.589724
55.945043
55.321905
54.722227
54.164869
53.50535
52.921219
52.22123
51.523664
50.828545
50.13566
49.444581
48.75489
48.06636
47.379001
46.692991
46.008587
45.326071
44.645735
43.967886
43.292841
42.620932
41.952506
41.28793
40.627589
39.971891
39.321262
38.676137
38.036954
37.404165
36.778245
36.159698
35.549061
34.946837
34.353437
33.76929
33.194958
32.631173
32.078804
31.538198
31.008922
30.491694
29.988518
29.502015
29.033093
28.572053
28.123258
27.702065
27.318322
26.978225
26.686433
26.450066
26.28022
26.191884
26.205108
26.346483
26.650206
27.158751
27.925556
29.011895
30.48099
32.386314
34.75282
37.554766
40.701074
44.044748
47.404164
50.600727
53.499003
56.007028
58.084698
59.751397
61.036519
61.987174
62.676947
63.150391
63.470696
63.660739
63.740504
63.739998
63.64864
63.473375
63.226467
62.89202
62.479156
62.003427
61.472327
60.892059
60.273261
59.623529
58.949943
58.260484
57.560726
56.855991
56.151161
55.449891
54.755519
54.070678
53.397521
52.737866
52.093357
51.464603
50.854322
50.26347
49.712915
49.060265
52.891241
52.176555
51.463508
50.752446
50.043491
49.336533
48.631383
47.92793
47.226204
46.526363
45.828636
45.133284
44.440579
43.750799
43.064227
42.381143
41.701832
41.02658
40.35567
39.689387
39.028018
38.371844
37.721146
37.0762
36.437282
35.804662
35.178617
34.559422
33.947339
33.342626
32.745551
32.156414
31.575556
31.0033
30.43988
29.885579
29.340862
28.806417
28.282938
27.769945
27.267532
26.777549
26.30271
25.843708
25.389153
24.948848
24.539198
24.169818
23.847685
23.581406
23.385385
23.280034
23.293534
23.464147
23.841905
24.487985
25.473139
26.864754
28.706871
30.998684
33.679435
36.630071
39.69703
42.716752
45.542802
48.075128
50.253613
52.054889
53.503138
54.627282
55.467011
56.077954
56.500658
56.777804
56.951187
57.034069
57.043757
56.97437
56.825927
56.609874
56.315386
55.943963
55.514262
55.031641
54.50356
53.941868
53.352226
52.741955
52.118195
51.485938
50.850256
50.215078
49.583713
48.959139
48.343822
47.739219
47.148832
46.573217
46.034586
45.393735
52.876313
52.1536
51.431639
50.710863
49.991547
49.273776
48.557552
47.842891
47.129887
46.418716
45.709615
45.002851
44.298706
43.597475
42.899455
42.204946
41.514246
40.827655
40.145469
39.467978
38.795472
38.128234
37.466537
36.810652
36.160837
35.517343
34.880409
34.250266
33.627131
33.011206
32.402679
31.801732
31.208536
30.623252
30.046022
29.47698
28.916268
28.364055
27.820545
27.285842
26.760032
26.243382
25.736425
25.239686
24.752312
24.274744
23.809323
23.359178
22.916783
22.481298
22.074083
21.708122
21.3933
21.142805
20.978379
20.931284
21.044857
21.375932
21.991491
22.960224
24.337884
26.145733
28.355547
30.88509
33.608375
36.381914
39.066924
41.54639
43.746627
45.628208
47.178902
48.422346
49.384686
50.098078
50.618406
50.9834
51.220615
51.363275
51.435107
51.437488
51.367404
51.223986
51.020107
50.73899
50.389043
49.989552
49.540125
49.051666
48.534032
47.992745
47.435237
46.86677
46.292106
45.715735
45.14107
44.570682
44.008929
43.456392
42.936527
42.313954
52.869709
52.142922
51.416323
50.690348
49.965316
49.241394
48.518679
47.797259
47.077267
46.35889
45.642362
44.927947
44.215926
43.506593
42.800251
42.097203
41.397757
40.702218
40.010892
39.32408
38.642082
37.965191
37.293695
36.627876
35.968009
35.31436
34.667186
34.026734
33.393241
32.766932
32.148016
31.536691
30.933139
30.337528
29.750005
29.170702
28.599734
28.037198
27.483182
26.937751
26.400947
25.872809
25.353404
24.842824
24.341025
23.848002
23.364018
22.889651
22.424532
21.968292
21.523211
21.092819
20.670165
20.257101
19.878017
19.54821
19.282117
19.103417
19.04702
19.160252
19.502343
20.138286
21.127757
22.509557
24.283641
26.401957
28.771824
31.270091
33.767788
36.148556
38.319025
40.224622
41.838881
43.156849
44.206953
45.013472
45.608882
46.038079
46.340194
46.530297
46.635802
46.683851
46.666843
46.581716
46.431372
46.229099
45.947511
45.609993
45.227515
44.802668
44.346818
43.865679
43.365832
42.853654
42.333526
41.809544
41.287013
40.766963
40.274442
39.67828
52.867501
52.13866
51.409678
50.680987
49.952919
49.225683
48.49942
47.77426
47.050354
46.32789
45.607096
44.888223
44.171544
43.457344
42.745915
42.037557
41.332568
40.631252
39.933908
39.240836
38.552332
37.868688
37.190193
36.517128
35.84977
35.188389
34.533248
33.884602
33.242695
32.607766
31.980041
31.359735
30.747053
30.142186
29.545313
28.956598
28.376188
27.804214
27.240792
26.686018
26.139969
25.6027
25.074255
24.554663
24.043928
23.542035
23.048986
22.564835
22.089572
21.623139
21.165749
20.717992
20.279563
19.850465
19.43373
19.0339
18.637296
18.267245
17.946122
17.691502
17.529136
17.496489
17.642813
18.025771
18.705943
19.732382
21.12656
22.870285
24.901192
27.121704
29.414218
31.663677
33.771688
35.663589
37.302375
38.672294
39.778938
40.651501
41.311029
41.792838
42.133097
42.368228
42.503363
42.575675
42.59181
42.548638
42.441933
42.280472
42.062857
41.779809
41.452339
41.082183
40.678628
40.250003
39.801198
39.338468
38.867964
38.391715
37.936889
37.377149
52.867657
52.137775
51.407548
50.677406
49.947688
49.218632
48.490413
47.763186
47.037116
46.312396
45.589243
44.867902
44.148635
43.431715
42.717425
42.006053
41.29789
40.593228
39.892359
39.195574
38.50316
37.815401
37.132577
36.454963
35.782829
35.116438
34.456047
33.801906
33.154257
32.513334
31.879363
31.252563
30.633139
30.021291
29.417205
28.821058
28.233015
27.653228
27.081836
26.518963
25.964721
25.419203
24.882488
24.354641
23.835709
23.325723
22.824704
22.332672
21.849639
21.375605
20.910587
20.454667
20.007872
19.570221
19.142092
18.72435
18.316071
17.919425
17.539177
17.166769
16.820038
16.524107
16.298135
16.17049
16.180972
16.379685
16.822009
17.563223
18.639673
20.05682
21.779818
23.734414
25.819667
27.923575
29.944806
31.801298
33.437611
34.832404
35.977637
36.889436
37.595651
38.117525
38.489244
38.749369
38.917096
38.996095
39.034849
39.018041
38.945333
38.817753
38.645324
38.408987
38.124942
37.802268
37.444431
37.060967
36.657942
36.23928
35.834351
35.323409
52.869133
52.138729
51.407841
50.676892
49.946233
49.216123
48.486763
47.758334
47.031014
46.305
45.58051
44.857782
44.13707
43.41864
42.702766
41.989729
41.279811
40.573296
39.870467
39.171607
38.476994
37.786905
37.10161
36.421376
35.746464
35.077129
34.413618
33.756172
33.105026
32.460406
31.82253
31.191608
30.567842
29.951424
29.342537
28.741357
28.148046
27.56276
26.985641
26.416822
25.856424
25.304557
24.761316
24.226788
23.701045
23.184148
22.676148
22.17709
21.687012
21.205947
20.733928
20.270991
19.817175
19.372514
18.937084
18.511046
18.094426
17.687499
17.291074
16.904742
16.530497
16.173407
15.825056
15.508841
15.246818
15.059545
14.978313
15.045647
15.311286
15.829516
16.648195
17.789173
19.241021
20.951802
22.836711
24.79272
26.71556
28.518991
30.136619
31.532187
32.697404
33.633395
34.363886
34.913643
35.311554
35.582071
35.76749
35.870187
35.913151
35.913472
35.863883
35.763108
35.618093
35.424339
35.177741
34.894489
34.57685
34.232454
33.891613
33.444839
52.871377
52.140726
51.409486
50.678074
49.946847
49.216082
48.486006
47.756819
47.028717
46.301904
45.576599
44.853039
44.131475
43.412167
42.695384
41.981401
41.270495
40.562944
39.859025
39.159015
38.463186
37.771807
37.085144
36.403455
35.726995
35.056011
34.390744
33.731426
33.078285
32.431539
31.791397
31.158062
30.531726
29.912576
29.300787
28.696525
28.099948
27.511204
26.930432
26.357761
25.79331
25.237187
24.689492
24.150312
23.619726
23.097804
22.584604
22.080183
21.584587
21.097863
20.620053
20.151198
19.691343
19.24053
18.798811
18.366247
17.942898
17.528842
17.12423
16.729126
16.34382
15.969188
15.60486
15.253731
14.921323
14.599774
14.317764
14.094102
13.95249
13.927652
14.064337
14.413298
15.025919
15.938823
17.157649
18.651238
20.350373
22.16198
23.983459
25.721513
27.306423
28.689736
29.854176
30.799933
31.543213
32.107706
32.517103
32.802095
32.993016
33.109067
33.156156
33.166531
33.132558
33.052789
32.930299
32.769224
32.554688
32.303582
32.042906
31.678808
52.874085
52.143339
51.411916
50.680231
49.948642
49.217442
48.486879
47.757174
47.028536
46.301179
45.575328
44.851221
44.129106
43.409242
42.691896
41.977337
41.26584
40.557678
39.853125
39.152454
38.455932
37.763826
37.076394
36.393893
35.716571
35.044671
34.378428
33.71807
33.063819
32.415886
31.774475
31.139782
30.511995
29.89129
29.277838
28.671798
28.073321
27.482548
26.899612
26.324635
25.757731
25.199002
24.648543
24.106438
23.572763
23.047584
22.530961
22.022943
21.523579
21.03291
20.550975
20.077813
19.61346
19.157955
18.711339
18.273655
17.84495
17.425272
17.014672
16.613196
16.220906
15.837944
15.464377
15.100635
14.747809
14.40575
14.078389
13.766692
13.477135
13.232882
13.052904
12.96538
13.009215
13.231319
13.683272
14.410666
15.433167
16.736957
18.268688
19.943578
21.66371
23.33233
24.872449
26.231263
27.383196
28.326623
29.069278
29.637002
30.05131
30.342262
30.533782
30.655427
30.710336
30.723149
30.700432
30.636627
30.533417
30.394622
30.230208
29.96915
52.877085
52.146327
51.41482
50.682971
49.95114
49.219634
48.488716
47.758625
47.029587
46.301825
45.575571
44.851065
44.128556
43.408302
42.690568
41.975623
41.263737
40.555182
39.85023
39.14915
38.452207
37.759665
37.07178
36.388805
35.710985
35.038561
34.371764
33.710819
33.055943
32.407345
31.765224
31.129772
30.501173
29.879598
29.265213
28.658173
28.058623
27.4667
26.88253
26.30623
25.737909
25.177665
24.625586
24.081752
23.546233
23.019091
22.500379
21.990144
21.488425
20.995257
20.510673
20.034699
19.567364
19.108691
18.658709
18.217445
17.784929
17.361189
16.946253
16.540144
16.142884
15.754494
15.374992
15.004445
14.643037
14.290901
13.948676
13.617031
13.297467
12.994602
12.706361
12.45182
12.248776
12.119604
12.097578
12.225819
12.554238
13.132129
13.992177
15.133209
16.516357
18.06628
19.688063
21.284735
22.774071
24.100165
25.229488
26.157439
26.890932
27.452499
27.864635
28.153874
28.344447
28.465429
28.526107
28.540049
28.526485
28.475253
28.406646
28.266697
52.880273
52.149553
51.418018
50.686071
49.954072
49.222337
48.491145
47.76075
47.031391
46.303304
45.576726
44.851901
44.129081
43.408525
42.690496
41.975261
41.263092
40.554256
39.849025
39.147665
38.450442
37.757614
37.069439
36.386166
35.708039
35.035296
34.368166
33.706873
33.051631
32.402646
31.760116
31.12423
30.495168
29.8731
29.258187
28.650582
28.050427
27.457855
26.872988
26.29594
25.726816
25.165709
24.612705
24.067878
23.531295
23.003014
22.483082
21.971542
21.468427
20.973765
20.487582
20.009895
19.540721
19.080074
18.627967
18.184414
17.749425
17.323014
16.905191
16.49596
16.095326
15.703282
15.319818
14.944929
14.578626
14.22093
13.871933
13.531804
13.20088
12.880086
12.569907
12.273544
11.994821
11.736913
11.520364
11.363977
11.295949
11.35524
11.58961
12.049691
12.776465
13.780149
15.033611
16.470832
18.000336
19.526008
20.961488
22.246411
23.34506
24.248917
24.965598
25.513408
25.917876
26.199175
26.386435
26.503796
26.568263
26.586932
26.593977
26.549004
52.883587
52.15293
51.421403
50.689398
49.957279
49.225367
48.493954
47.763307
47.033678
46.305313
45.578458
44.85336
44.130276
43.409464
42.691189
41.975717
41.263318
40.554261
39.848813
39.147241
38.449809
37.756775
37.068394
36.384915
35.706579
35.033624
34.366279
33.704763
33.049291
32.400067
31.757287
31.12114
30.491801
29.869442
29.254221
28.646287
28.045782
27.452836
26.867569
26.290094
25.72051
25.158911
24.605379
24.059985
23.522794
22.993859
22.473226
21.960933
21.457009
20.961479
20.474361
19.995666
19.525405
19.063583
18.610202
18.165262
17.728765
17.300708
16.881085
16.469888
16.067107
15.672721
15.286704
14.909029
14.539666
14.178587
13.825775
13.481231
13.144999
12.817233
12.498128
12.188288
11.888763
11.600902
11.328917
11.073825
10.851454
10.678775
10.579818
10.589608
10.753174
11.121379
11.739884
12.629423
13.771919
15.109794
16.555072
18.011253
19.390567
20.629352
21.69135
22.564578
23.25826
23.785964
24.175885
24.446582
24.629082
24.743832
24.823712
24.850966
52.886985
52.156406
51.424906
50.692872
49.960664
49.228611
48.497013
47.76615
47.036285
46.307675
45.580572
44.85523
44.131909
43.410868
42.692373
41.976692
41.264093
40.554844
39.849213
39.147464
38.449861
37.756662
37.068119
36.384481
35.705989
35.032879
34.365378
33.703706
33.048076
32.398691
31.755747
31.119429
30.489915
29.867372
29.251959
28.643824
28.043107
27.449936
26.864432
26.286703
25.71685
25.154963
24.601123
24.0554
23.517856
22.988544
22.467506
21.954777
21.450387
20.954354
20.466694
19.987416
19.516522
19.054014
18.599886
18.154133
17.716744
17.287708
16.867009
16.454628
16.050543
15.654723
15.267133
14.88773
14.51647
14.153306
13.79819
13.451076
13.111926
12.780726
12.457484
12.142284
11.835339
11.53701
11.248197
10.969803
10.704968
10.456942
10.233547
10.051817
9.9325045
9.9070732
10.017794
10.315164
10.847529
11.643627
12.693038
13.9445
15.313346
16.7031
18.025768
19.215453
20.23637
21.073632
21.73734
22.240772
22.613368
22.87289
23.06329
23.179472
52.890439
52.159946
51.428485
50.696438
49.964164
49.231995
48.500239
47.769187
47.039112
46.310279
45.582949
44.857383
44.133841
43.412587
42.693889
41.978014
41.26523
40.555805
39.850007
39.1481
38.450346
37.757002
37.068321
36.384549
35.705928
35.032692
34.365068
33.703275
33.047526
32.398021
31.754957
31.118519
30.488883
29.866215
29.250674
28.642407
28.041552
27.448238
26.862584
26.284698
25.714679
25.152616
24.59859
24.052669
23.514914
22.985377
22.4641
21.951116
21.446451
20.950125
20.462149
19.98253
19.511268
19.048361
18.593799
18.14757
17.709661
17.280052
16.858722
16.445643
16.040787
15.644115
15.255582
14.875139
14.502734
14.138307
13.781797
13.433143
13.09228
12.759151
12.433702
12.115895
11.805724
11.503226
11.208555
10.921961
10.644099
10.375989
10.11966
9.8794381
9.658629
9.473016
9.3411064
9.2912882
9.363431
9.607019
10.072182
10.793154
11.7656
12.943093
14.243749
15.571233
16.837961
17.976597
18.951709
19.748569
20.379378
20.856912
21.225626
21.475242
52.893931
52.163525
51.432111
50.700062
49.967738
49.235472
48.503579
47.772359
47.042093
46.313056
45.585515
44.859736
44.135986
43.41453
42.695638
41.979577
41.266616
40.557025
39.851069
39.149014
38.451118
37.757641
37.068832
36.38494
35.706204
35.032857
34.365127
33.703232
33.047383
32.397781
31.754622
31.11809
30.48836
29.865599
29.249964
28.641603
28.040651
27.447239
26.861483
26.283492
25.713364
25.151188
24.597043
24.050997
23.513111
22.983435
22.462011
21.948871
21.444041
20.947539
20.459375
19.979554
19.508075
19.044933
18.590116
18.14361
17.705397
17.275454
16.853754
16.440267
16.034958
15.637784
15.248695
14.867637
14.49455
14.12937
13.772027
13.422452
13.080571
12.746309
12.419593
12.100352
11.788519
11.484042
11.186893
10.897077
10.614688
10.339941
10.073304
9.8157945
9.5687584
9.3357614
9.1203236
8.934848
8.7961864
8.730358
8.7750948
8.9787674
9.392568
10.054459
10.964735
12.080248
13.321157
14.590915
15.802242
16.887769
17.815429
18.570036
19.183057
19.638873
52.897446
52.167127
51.435762
50.70372
49.971356
49.239008
48.506995
47.775623
47.045183
46.315956
45.588217
44.862237
44.138287
43.416637
42.697556
41.981315
41.268184
40.55843
39.852321
39.150121
38.452089
37.758483
37.069553
36.385546
35.706702
35.033252
34.365425
33.703436
33.047498
32.397812
31.75457
31.117958
30.48815
29.865314
29.249604
28.641168
28.040143
27.446657
26.860826
26.28276
25.712555
25.1503
24.596073
24.049944
23.511971
22.982205
22.460686
21.947448
21.442514
20.945902
20.457623
19.977679
19.50607
19.042787
18.587818
18.141148
17.702755
17.272615
16.850698
16.436972
16.031396
15.633927
15.244511
14.863089
14.489599
14.123971
13.766135
13.416012
13.073525
12.738591
12.411129
12.091054
11.778285
11.472741
11.174345
10.883032
10.598754
10.321499
10.051316
9.788386
9.5330474
9.2861019
9.048743
8.8238839
8.615435
8.4325578
8.2913253
8.2156235
8.2416365
8.4165192
8.7923381
9.4091689
10.271082
11.336115
12.525257
13.740935
14.899283
15.931491
16.830549
17.552231
52.900972
52.170739
51.439424
50.707392
49.974998
49.242579
48.51046
47.778951
47.04835
46.318946
45.591019
44.864848
44.140706
43.418868
42.699604
41.983186
41.269887
40.559973
39.853713
39.151369
38.453203
37.75947
37.070421
36.386302
35.707352
35.033804
34.365883
33.703806
33.047784
32.398018
31.7547
31.118016
30.488139
29.865235
29.249461
28.640962
28.039876
27.446329
26.860439
26.282313
25.712049
25.149735
24.595449
24.049259
23.511225