/*--------------------------------*- C++ -*----------------------------------*\
| =========                 |                                                 |
| \\      /  F ield         | OpenFOAM: The Open Source CFD Toolbox           |
|  \\    /   O peration     | Version:  2206                                  |
|   \\  /    A nd           | Website:  www.openfoam.com                      |
|    \\/     M anipulation  |                                                 |
\*---------------------------------------------------------------------------*/
FoamFile
{
    version     2.0;
    format      ascii;
    arch        "LSB;label=32;scalar=64";
    class       volScalarField;
    location    "1200";
    object      p;
}
// * * * * * * * * * * * * * * * * * * * * * * * * * * * * * * * * * * * * * //

dimensions      [0 2 -2 0 0 0 0];

internalField   nonuniform List<scalar> 
7480
(
0.054677989
0.042423357
0.028301369
0.016492726
0.0058846359
0.00043712865
-0.00081913973
0.00019690113
0.0017500302
0.0027804336
0.0032560979
0.0034593757
0.0035508687
0.0035803688
0.003583361
0.0035891837
0.0035974412
0.003591579
0.003575817
0.0035588003
0.0035392792
0.0035130543
0.0034829535
0.0034523263
0.0034198944
0.0033832509
0.003343814
0.0033031428
0.00326035
0.0032146312
0.0031671013
0.0031185324
0.0030683111
0.0030162447
0.0029631897
0.0029097526
0.002855979
0.0028025243
0.002750618
0.0027012825
0.0026553633
0.0026144128
0.0025809388
0.002557426
0.0025478431
0.0025571453
0.0025880917
0.0026404945
0.0027144524
0.0028100062
0.0029253515
0.0030576071
0.0032022754
0.0033530403
0.0035076922
0.0036598258
0.0037913571
0.0038894044
0.0039459279
0.0039635791
0.0039453521
0.0038977144
0.0038293999
0.0037473967
0.0036568364
0.0035616836
0.0034653014
0.0033689794
0.0032736335
0.003179822
0.0030876684
0.0029966745
0.0029068705
0.0028182305
0.0027299591
0.0026426467
0.0025553734
0.0024660218
0.002375005
0.0022824429
0.0021891488
0.0020947103
0.0019979894
0.0019000389
0.0017999363
0.0016983421
0.0015950821
0.0014902251
0.0013843903
0.0012771848
0.0011699072
0.0010622351
0.00095601076
0.0008506193
0.00075287515
0.00064931833
0.0005970321
0.00031425669
0.00084022427
-0.00087553699
0.049699748
0.039186785
0.027235148
0.016343616
0.0064853409
0.0012382417
-0.00011224802
0.00066640606
0.0019768332
0.0029042635
0.0033337606
0.0035185265
0.0036016672
0.0036243573
0.0036231553
0.0036267971
0.0036291436
0.0036183775
0.0035997312
0.0035804106
0.0035587532
0.0035305728
0.0034988567
0.0034668358
0.003433123
0.0033953164
0.003354874
0.0033133041
0.0032696746
0.0032231909
0.0031749791
0.0031257855
0.0030749784
0.0030223701
0.0029688175
0.0029149142
0.0028606986
0.0028068265
0.0027545233
0.0027048044
0.0026585114
0.0026171968
0.0025833662
0.0025594969
0.0025496702
0.0025586195
0.0025890422
0.0026411363
0.0027148016
0.002810062
0.0029251364
0.0030571542
0.0032016238
0.0033522409
0.0035068048
0.0036589033
0.003790455
0.0038886018
0.003945278
0.003963124
0.0039450723
0.0038976208
0.0038294495
0.0037475569
0.0036570764
0.0035619777
0.0034656291
0.003369325
0.0032739859
0.0031801734
0.0030880136
0.0029970103
0.0029071949
0.0028185423
0.0027302582
0.0026429334
0.0025556539
0.0024663016
0.0023752814
0.0022827133
0.0021894124
0.0020949676
0.0019982411
0.0019002854
0.0018001778
0.0016985787
0.0015953136
0.0014904514
0.0013846111
0.0012774001
0.0011701168
0.001062439
0.00095620898
0.00085081177
0.00075306322
0.00064949881
0.00059727561
0.00031523596
0.00084243918
-0.00087510393
0.045639352
0.037505722
0.026871607
0.016617806
0.0078599475
0.002766789
0.0010607726
0.0013282894
0.0023131999
0.0030885491
0.0034546657
0.0036193524
0.0036897682
0.0036974127
0.0036870349
0.0036835279
0.0036773331
0.0036593118
0.0036359412
0.0036129708
0.0035877441
0.003556205
0.0035219511
0.0034877994
0.0034520392
0.0034123871
0.0033704636
0.0033276211
0.0032827849
0.0032352022
0.003186056
0.0031360251
0.0030844246
0.0030310905
0.002976892
0.0029223927
0.0028676136
0.0028132218
0.0027604388
0.0027102633
0.0026635283
0.0026217913
0.0025875555
0.0025632868
0.0025531863
0.0025618886
0.0025917463
0.0026433135
0.0027166477
0.0028115462
0.0029262646
0.0030579391
0.0032020818
0.0033524084
0.0035067535
0.0036586832
0.0037900903
0.0038881975
0.0039449597
0.0039629089
0.0039450767
0.0038978314
0.0038298273
0.0037480728
0.0036576939
0.0035626634
0.0034663556
0.0033700686
0.0032747302
0.0031809067
0.0030887277
0.0029976998
0.0029078573
0.0028191757
0.0027308617
0.0026435078
0.0025561993
0.0024668247
0.0023757884
0.0022832025
0.0021898844
0.0020954231
0.0019986817
0.0019007131
0.0018005932
0.0016989827
0.0015957063
0.0014908331
0.0013849819
0.0012777599
0.0011704659
0.0010627771
0.00095653682
0.00085112875
0.0007533729
0.00064979195
0.00059767338
0.0003168106
0.00084636336
-0.00087452171
0.042918603
0.036204205
0.026516771
0.016917418
0.0091463644
0.0042295577
0.002142652
0.0020221907
0.0027051061
0.0033259621
0.0036365321
0.0037768309
0.0038241168
0.0038021033
0.0037711533
0.0037557843
0.003739028
0.0037105636
0.0036806239
0.0036533728
0.0036237148
0.0035876537
0.0035502027
0.0035134748
0.00347509
0.0034330018
0.003389273
0.0033449663
0.0032987022
0.0032498288
0.0031996749
0.0031487823
0.0030963515
0.0030422758
0.0029874626
0.0029324162
0.0028771275
0.0028223018
0.0027691609
0.0027186677
0.0026716377
0.0026296449
0.002595189
0.0025707187
0.0025604861
0.0025692794
0.0025988876
0.0026499301
0.00272304
0.0028176205
0.0029319425
0.0030631607
0.0032067823
0.003356554
0.0035103736
0.0036617667
0.003792631
0.003890219
0.0039467596
0.0039644847
0.0039466195
0.0038994047
0.0038314414
0.0037497377
0.0036593968
0.0035643844
0.0034680745
0.0033717628
0.0032763833
0.0031825069
0.0030902661
0.0029991704
0.0029092586
0.0028205061
0.0027321205
0.0026446965
0.002557287
0.0024678135
0.0023767204
0.0022840873
0.0021907255
0.0020962232
0.0019994445
0.0019014436
0.0018012936
0.0016996562
0.0015963544
0.0014914573
0.0013855834
0.0012783395
0.0011710247
0.0010633155
0.00095705627
0.00085162856
0.00075385902
0.00065025112
0.00059828492
0.00031930238
0.00085278335
-0.0008734353
0.040449662
0.034610754
0.025892186
0.017269836
0.010214343
0.0054361058
0.00318162
0.002790834
0.0031813095
0.0036247971
0.0038583008
0.0039479673
0.0039632444
0.0039233217
0.0038814033
0.0038563805
0.0038267888
0.0037826679
0.0037418016
0.0037077332
0.0036716347
0.003629236
0.0035875446
0.0035476965
0.0035060612
0.0034607736
0.0034147064
0.0033685147
0.0033203423
0.003269732
0.0032182865
0.003166327
0.0031128662
0.0030579044
0.0030024222
0.0029468201
0.0028910253
0.002835819
0.0027824427
0.0027317903
0.0026846405
0.0026425944
0.0026081445
0.0025837005
0.0025736001
0.0025827452
0.0026122588
0.0026629312
0.0027358114
0.0028300047
0.0029437961
0.0030743468
0.0032171457
0.0033659925
0.0035189239
0.0036694655
0.0037993387
0.0038958065
0.003951742
0.0039688185
0.0039505025
0.0039030677
0.0038349501
0.0037531492
0.003662729
0.0035676378
0.0034712445
0.0033748334
0.0032793441
0.0031853491
0.0030929823
0.0030017559
0.0029117155
0.0028228345
0.0027343198
0.0026467695
0.0025591951
0.0024695602
0.0023783585
0.0022856301
0.0021921812
0.0020975974
0.0020007437
0.0019026771
0.0018024664
0.0017007748
0.0015974226
0.0014924789
0.0013865618
0.0012792764
0.0011719235
0.0010641772
0.00095788391
0.00085242205
0.00075462629
0.00065097834
0.00059922263
0.00032300293
0.00086227007
-0.00087127
0.038136253
0.033018596
0.025304014
0.01758175
0.011099265
0.006533248
0.0041808205
0.0035382965
0.0036790732
0.0039473273
0.0040927603
0.0041302589
0.0041146189
0.0040604102
0.0040051568
0.0039616424
0.0039166441
0.0038627471
0.0038151025
0.0037751316
0.0037314733
0.0036811821
0.0036335776
0.0035895107
0.0035437892
0.0034945984
0.0034458227
0.0033975371
0.0033471885
0.0032945631
0.0032416621
0.0031885088
0.0031338785
0.0030779668
0.0030219001
0.0029659249
0.0029097421
0.0028542004
0.0028006659
0.0027499691
0.0027028403
0.0026609191
0.0026266902
0.0026024968
0.0025927287
0.0026021926
0.0026315311
0.0026818853
0.0027542689
0.0028477932
0.0029607874
0.003090388
0.0032320306
0.0033795796
0.0035312802
0.003680593
0.0038089735
0.0039038674
0.0039589776
0.0039751296
0.0039560934
0.0039083475
0.0038399983
0.0037580326
0.003667468
0.0035722372
0.0034757055
0.0033791424
0.0032834931
0.0031893308
0.003096787
0.0030053812
0.00291517
0.0028261184
0.0027374312
0.00264971
0.0025619499
0.0024721413
0.0023807924
0.0022879204
0.0021943381
0.0020996284
0.0020026577
0.0019044871
0.0018041796
0.0017024014
0.0015989685
0.0014939509
0.0013879652
0.0012806148
0.0011732018
0.0010653986
0.00095905287
0.00085353982
0.0007557011
0.00065200132
0.00060052328
0.00032803788
0.00087494524
-0.00086760248
0.036035181
0.031540086
0.024751409
0.017811249
0.011857299
0.0075315485
0.0051169554
0.0042466426
0.0041633753
0.0042781719
0.0043384684
0.0043259001
0.0042782182
0.0042059501
0.0041332508
0.0040710033
0.0040121768
0.0039502332
0.0038945231
0.0038448731
0.003792814
0.0037372873
0.0036855877
0.0036375916
0.0035872496
0.0035336415
0.0034815788
0.003430592
0.0033775465
0.0033225564
0.003268042
0.0032136026
0.0031576823
0.0031007461
0.0030441171
0.0029878153
0.0029312837
0.0028755046
0.002821987
0.0027714645
0.0027246046
0.0026831156
0.0026494988
0.0026261164
0.0026164988
0.0026253926
0.002654522
0.0027047653
0.0027767251
0.0028695724
0.0029816331
0.0031099849
0.0032501102
0.0033961053
0.0035454769
0.0036918223
0.0038180269
0.0039114371
0.0039660933
0.0039815269
0.0039619253
0.0039141
0.0038456944
0.0037636894
0.0036730604
0.0035777388
0.0034810967
0.0033843907
0.0032885803
0.003194243
0.003101509
0.0030099063
0.0029195049
0.0028302597
0.002741373
0.0026534518
0.002565483
0.0024754812
0.0023839571
0.0022909062
0.0021971532
0.00210228
0.0020051548
0.0019068452
0.0018064072
0.0017045111
0.0016009685
0.0014958497
0.0013897706
0.0012823318
0.0011748375
0.0010669574
0.00096054081
0.00085495967
0.00075705997
0.00065329877
0.0006021628
0.00033435096
0.00089046234
-0.00086234223
0.03413661
0.030158312
0.024184739
0.017954824
0.012504038
0.0084228062
0.0059797799
0.0049241049
0.0046455987
0.004619037
0.0045943148
0.0045304557
0.0044485838
0.0043548812
0.0042643406
0.0041854256
0.0041132484
0.0040418845
0.0039764479
0.003916843
0.0038575575
0.0037973751
0.0037408976
0.0036873223
0.0036321726
0.0035753934
0.0035207531
0.0034670756
0.0034110491
0.0033534129
0.0032970265
0.0032410534
0.0031834267
0.0031249941
0.003067436
0.0030104509
0.0029532854
0.0028971497
0.0028436388
0.002793343
0.0027468495
0.002705964
0.0026732256
0.0026510071
0.0026415923
0.0026496708
0.0026784798
0.002728684
0.0028003331
0.00289255
0.0030035702
0.0031303746
0.0032687495
0.0034132569
0.0035593445
0.003701236
0.0038248861
0.0039171905
0.003971862
0.0039869668
0.0039671647
0.0039196038
0.0038514137
0.0037695854
0.0036790564
0.0035837663
0.0034871002
0.0033903063
0.0032943718
0.0031998845
0.0031069775
0.0030151843
0.0029245892
0.0028351408
0.0027460395
0.0026579004
0.0025697008
0.0024794843
0.0023877656
0.0022945115
0.0022005612
0.0021054952
0.0020081852
0.0019097076
0.0018091103
0.0017070692
0.0016033907
0.0014981463
0.001391951
0.0012844027
0.001176808
0.0010688325
0.00096232727
0.00085666203
0.00075868332
0.00065485282
0.0006041082
0.00034181742
0.00090829275
-0.00085566916
0.032416029
0.028866941
0.023610357
0.018034167
0.013054173
0.0092138007
0.0067738566
0.0055731767
0.005124299
0.0049661318
0.0048577774
0.0047417982
0.0046248309
0.0045080468
0.004398906
0.0043034867
0.0042174913
0.0041356132
0.0040606219
0.0039920252
0.0039256016
0.0038599513
0.0037979358
0.0037387577
0.0036793543
0.0036194985
0.0035617285
0.0035047002
0.0034458364
0.003386199
0.0033282026
0.0032705599
0.0032110064
0.0031508905
0.0030922121
0.0030343423
0.0029763197
0.0029194913
0.0028655259
0.0028149846
0.002768411
0.0027277142
0.0026954765
0.0026739566
0.0026650576
0.0026731013
0.0027015618
0.0027513381
0.0028223709
0.0029137708
0.0030236843
0.0031489988
0.0032857645
0.003428861
0.0035721632
0.0037098576
0.0038305892
0.0039217436
0.0039763378
0.0039913122
0.0039716121
0.0039245549
0.0038567692
0.00377531
0.0036850601
0.0035899385
0.0034933542
0.003396555
0.0033005629
0.0032059757
0.0031129317
0.0030209751
0.0029302068
0.0028405667
0.0027512536
0.0026628953
0.0025744564
0.0024840149
0.0023920936
0.0022986249
0.0022044629
0.0021091869
0.0020116726
0.0019130072
0.00181223
0.0017100239
0.0016061894
0.0015008
0.00139447
0.0012867944
0.0011790828
0.001070996
0.00096438667
0.00085862327
0.00076054864
0.0006566429
0.00060631679
0.00035028913
0.00092785239
-0.00084764802
0.030852827
0.027667302
0.023039679
0.018059386
0.013515626
0.0099114254
0.0075012768
0.0061902724
0.0055942031
0.0053156014
0.0051271509
0.0049595065
0.0048069309
0.0046656907
0.0045372959
0.0044250156
0.0043250051
0.0042320219
0.0041470193
0.0040695541
0.0039957613
0.0039241277
0.0038566631
0.0037923267
0.0037286336
0.0036652033
0.0036040114
0.0035437691
0.0034823118
0.0034206381
0.0033605754
0.0033008551
0.0032395817
0.0031782227
0.0031185456
0.0030596786
0.0030006421
0.0029429161
0.0028882965
0.0028372752
0.0027902952
0.0027493532
0.0027170742
0.0026955436
0.0026866646
0.0026945779
0.0027225856
0.002771666
0.0028418466
0.0029322812
0.003041094
0.0031651252
0.0033004708
0.003442094
0.0035835161
0.0037184703
0.003836698
0.0039258088
0.0039793305
0.0039942819
0.0039749027
0.0039284657
0.0038612602
0.0037804021
0.0036906315
0.0035958051
0.0034994237
0.0034027393
0.0033067812
0.0032121647
0.0031190466
0.0030269834
0.0029360892
0.0028462925
0.0027567923
0.0026682331
0.0025795643
0.0024889045
0.0023967875
0.0023031064
0.0022087331
0.0021132438
0.0020155185
0.0019166575
0.0018156903
0.0017133085
0.0016093061
0.0015037593
0.0013972821
0.0012894664
0.0011816256
0.001073415
0.00096668921
0.00086081625
0.00076263053
0.00065864583
0.00060874036
0.00035962067
0.00094856998
-0.00083820399
0.029429569
0.026557123
0.022477639
0.018035305
0.013895645
0.01052256
0.0081634826
0.0067726403
0.0060522302
0.0056653248
0.0054012231
0.0051828387
0.0049943603
0.0048275965
0.004679322
0.0045499179
0.0044355858
0.0043310773
0.0042359285
0.0041494539
0.0040681936
0.0039903272
0.0039170409
0.0038474992
0.003779462
0.0037122183
0.0036476187
0.0035843532
0.0035202385
0.0034562127
0.0033939566
0.0033323356
0.0032695052
0.0032068585
0.0031458414
0.003085765
0.0030258125
0.0029673476
0.0029121645
0.0028606262
0.0028131337
0.0027717551
0.0027391737
0.0027172821
0.0027079195
0.0027152305
0.002742476
0.0027905479
0.0028594961
0.0029485772
0.0030559536
0.0031784532
0.0033121903
0.0034522242
0.0035921278
0.0037255151
0.0038421853
0.0039294159
0.0039820028
0.0039969293
0.0039771564
0.0039309066
0.0038645043
0.00378448
0.0036953136
0.0036009178
0.0035049176
0.0034085033
0.0033126674
0.0032181047
0.0031250113
0.0030329207
0.0029419608
0.0028520591
0.0027624154
0.0026736904
0.0025848189
0.002493967
0.0024016784
0.0023078027
0.0022132344
0.0021175441
0.0020196151
0.0019205638
0.0018194084
0.0017168508
0.0016126778
0.0015069694
0.0014003392
0.0012923763
0.0011843987
0.001076056
0.00096920475
0.00086321371
0.00076490373
0.00066083865
0.00061132948
0.00036967826
0.00096991058
-0.00082719969
0.028131021
0.02553151
0.021927966
0.017968336
0.014202765
0.011054443
0.0087627933
0.0073188363
0.0064959721
0.0060130285
0.0056782402
0.0054105609
0.0051863235
0.0049933927
0.0048247563
0.0046780553
0.0045491608
0.0044327994
0.004327353
0.0042317274
0.0041427826
0.0040584542
0.0039792403
0.0039044065
0.0038319075
0.0037608686
0.0036926076
0.0036260648
0.0035593324
0.003492872
0.0034284115
0.0033649595
0.0033005217
0.0032363909
0.0031739708
0.0031128356
0.0030520599
0.0029928283
0.0029368981
0.0028847465
0.0028368063
0.0027950087
0.0027620691
0.0027397315
0.0027297809
0.002736303
0.0027625396
0.0028093087
0.0028766427
0.0029639353
0.00306941
0.0031899001
0.0033215761
0.0034596587
0.0035978104
0.0037295216
0.0038447014
0.00393106
0.0039836254
0.003998744
0.0039789075
0.0039330174
0.0038673849
0.0037876227
0.0036987422
0.0036049864
0.0035095717
0.0034135051
0.0033178824
0.0032235058
0.0031305632
0.0030385125
0.0029475482
0.0028576141
0.00276788
0.0026790356
0.0025900094
0.0024990116
0.0024065914
0.0023125557
0.002217826
0.0021219618
0.0020238505
0.0019246282
0.0018232987
0.0017205761
0.0016162397
0.0015103738
0.0014035922
0.0012954812
0.0011873645
0.0010788857
0.00097190354
0.00086578893
0.00076734362
0.00066319918
0.00061403494
0.00038033716
0.000991364
-0.00081446739
0.026943823
0.024584662
0.021394005
0.01786525
0.014444811
0.011513578
0.0093017576
0.0078278225
0.0069229921
0.0063562666
0.0059563451
0.0056414539
0.005382081
0.0051627314
0.0049734058
0.0048092834
0.0046656499
0.0045371497
0.0044212327
0.0043163326
0.0042195097
0.0041285294
0.0040433011
0.0039630717
0.0038859697
0.0038110048
0.0037389891
0.0036691036
0.0035996627
0.0035308417
0.0034640484
0.0033984918
0.0033324408
0.0032668367
0.0032030143
0.0031408108
0.0030791771
0.003019089
0.0029623862
0.0029097164
0.0028613719
0.002819107
0.0027857156
0.0027629092
0.0027524017
0.0027581183
0.0027832655
0.0028285883
0.002894116
0.0029793715
0.0030826367
0.0032007415
0.0033299275
0.0034656043
0.0036015396
0.0037311384
0.0038445445
0.0039300579
0.003982443
0.0039980104
0.0039791462
0.0039344502
0.0038696661
0.0037902075
0.0037018811
0.0036088321
0.0035135216
0.0034174564
0.0033222091
0.0032281854
0.0031354279
0.0030434674
0.0029526039
0.0028627353
0.0027729583
0.0026840567
0.0025949497
0.0025038595
0.0024113578
0.0023172138
0.00222237
0.0021263696
0.0020281108
0.0019287497
0.0018272714
0.0017244055
0.0016199227
0.001513912
0.0014069883
0.001298735
0.0011904827
0.0010818688
0.00097475438
0.00086851418
0.00076992491
0.00066570484
0.00061680746
0.00039147457
0.0010124116
-0.00079982481
0.025856213
0.023710458
0.020878168
0.01773221
0.014628803
0.011906035
0.0097832516
0.0082990699
0.0073311622
0.0066928084
0.0062338121
0.0058743364
0.0055808577
0.0053351783
0.0051250038
0.0049434023
0.004784923
0.0046440608
0.0045175202
0.0044032429
0.0042983805
0.0042005695
0.0041092175
0.0040234884
0.0039416531
0.003862624
0.0037868055
0.0037135187
0.0036412626
0.0035699983
0.0035008008
0.003433087
0.0033653773
0.0032983142
0.0032330815
0.0031696146
0.0031070273
0.0030461404
0.0029886636
0.0029354447
0.0028866693
0.002843894
0.0028100611
0.0027868307
0.00277575
0.0027806047
0.0028045863
0.0028484228
0.0029121339
0.0029952947
0.0030962243
0.0032117554
0.0033382105
0.0034711782
0.003604535
0.0037316304
0.0038428774
0.0039272026
0.0039790604
0.003994946
0.0039771403
0.0039337618
0.0038701093
0.0037917748
0.0037045847
0.0036122587
0.0035170304
0.0034211845
0.0033263948
0.0032322954
0.0031393702
0.0030476171
0.0029569847
0.0028671998
0.0027774379
0.0026885898
0.0025994857
0.0025083457
0.0024158303
0.0023216447
0.0022267331
0.0021306423
0.002032283
0.0019328241
0.0018312309
0.0017282535
0.0016236502
0.0015175161
0.0014104681
0.0013020858
0.0011937082
0.0010849657
0.00097772265
0.00087135894
0.0007726201
0.0006683314
0.0006195972
0.00040296272
0.0010324826
-0.00078309544
0.024857797
0.022902759
0.020381927
0.017574798
0.014761344
0.012237678
0.010210427
0.0087325477
0.0077187215
0.0070206159
0.0065089577
0.0061079747
0.0057817969
0.0055102102
0.0052792262
0.0050801796
0.0049068252
0.0047534487
0.0046161598
0.0044924187
0.0043793794
0.0042745735
0.004176989
0.0040856665
0.0039989787
0.0039157603
0.0038360771
0.0037593155
0.0036841386
0.0036103345
0.0035386991
0.0034687979
0.0033993552
0.0033307757
0.0032640899
0.0031993139
0.0031357414
0.0030740583
0.0030158176
0.0029619083
0.0029126177
0.0028693627
0.0028350746
0.0028114358
0.002799738
0.0028036626
0.0028264683
0.0028688352
0.0029307203
0.0030117299
0.0031102297
0.0032231117
0.0033467736
0.0034769269
0.0036075349
0.0037319132
0.0038407369
0.003923568
0.0039745539
0.0039904773
0.0039736913
0.0039313944
0.003868896
0.003791803
0.0037057238
0.0036142614
0.0035197525
0.0034246314
0.00333028
0.0032360413
0.0031431387
0.0030516438
0.0029608373
0.0028708443
0.0027812277
0.0026925323
0.0026034363
0.0025123125
0.002419893
0.002325726
0.002230784
0.0021346694
0.0020362627
0.0019367459
0.001835079
0.0017320299
0.0016273379
0.0015211105
0.0014139644
0.0013054743
0.0011969887
0.0010881308
0.00098076842
0.0008742882
0.0007753979
0.00067105162
0.00062235367
0.00041466364
0.0010509085
-0.00076412607
0.023939374
0.022155626
0.019906006
0.017398013
0.014848639
0.012514078
0.010586541
0.0091286257
0.0080842488
0.0073378217
0.0067801427
0.0063411151
0.0059840007
0.0056872505
0.0054357069
0.0052193547
0.0050311753
0.0048652046
0.0047170766
0.0045838042
0.0044624764
0.0043505327
0.0042466136
0.0041496112
0.0040579607
0.0039704348
0.0038868171
0.0038065101
0.0037283151
0.0036518854
0.0035777726
0.0035056366
0.0034343802
0.0033642242
0.0032960517
0.0032299456
0.0031653459
0.0031028224
0.0030437881
0.0029891528
0.0029393147
0.002895625
0.0028607602
0.0028366005
0.0028243461
0.0028273435
0.0028489424
0.0028897988
0.0029498068
0.0030286097
0.0031246415
0.0032348553
0.0033556942
0.0034829604
0.003610706
0.0037322837
0.0038386062
0.0039198172
0.003969778
0.0039855859
0.0039695601
0.0039281089
0.0038666083
0.0037906184
0.0037055778
0.0036150405
0.0035213556
0.0034268996
0.0033330309
0.0032391605
0.0031467219
0.0030554447
0.0029644071
0.0028743947
0.0027848863
0.0026959454
0.0026066769
0.0025157096
0.0024234349
0.0023292948
0.0022344024
0.0021383601
0.002039947
0.001940412
0.0018387247
0.0017356434
0.0016308985
0.0015246156
0.0014174044
0.0013088339
0.0012002649
0.0010913111
0.00098384503
0.00087726075
0.00077822175
0.00067383389
0.00062502596
0.0004264259
0.0010668875
-0.00074280407
0.023092778
0.021463458
0.019450547
0.017206224
0.014896444
0.012740495
0.010914897
0.0094880349
0.0084266769
0.0076427619
0.0070458117
0.0065725174
0.0061865482
0.0058656737
0.0055940319
0.0053606304
0.0051577605
0.0049791911
0.0048201762
0.0046773297
0.0045476301
0.0044284296
0.0043180822
0.0042153198
0.0041186062
0.0040266627
0.0039390391
0.0038551198
0.003773816
0.003694677
0.0036180396
0.0035436196
0.0034704761
0.0033986881
0.0033289953
0.0032615269
0.003195848
0.0031324378
0.0030725803
0.0030172002
0.0029667844
0.0029226222
0.0028871894
0.0028623964
0.0028495316
0.002851662
0.0028719918
0.0029112643
0.002969358
0.0030459213
0.0031394274
0.0032469346
0.0033649369
0.0034892602
0.0036140839
0.003732837
0.0038366286
0.0039161505
0.0039650192
0.003980629
0.0039652495
0.0039245463
0.0038639471
0.003788839
0.0037047018
0.0036149892
0.0035220536
0.0034281901
0.0033348373
0.0032414145
0.0031493679
0.0030583338
0.0029675089
0.0028778295
0.0027883473
0.0026991442
0.0026099001
0.0025189286
0.0024264011
0.0023322589
0.0022375579
0.0021415854
0.0020431992
0.0019437279
0.0018420807
0.0017390003
0.0016342531
0.0015279568
0.0014207143
0.0013120947
0.0012034722
0.001094447
0.00098689876
0.00088022825
0.00078104871
0.00067664088
0.00062756346
0.00043808326
0.0010794848
-0.00071907565
0.022310752
0.020821056
0.019015259
0.017003169
0.014910049
0.012921892
0.011198814
0.0098118148
0.0087452832
0.0079339924
0.0073045089
0.0068009658
0.0063884996
0.0060448086
0.0057537403
0.0055036736
0.0052863382
0.0050952442
0.0049253447
0.0047729113
0.0046347861
0.0045082351
0.0043913772
0.0042827833
0.004180917
0.0040844551
0.0039927547
0.0039051588
0.0038206608
0.0037387304
0.0036595183
0.003582767
0.0035076678
0.0034341912
0.0033629406
0.0032940747
0.003227267
0.0031629269
0.0031022177
0.0030460664
0.0029950335
0.0029503545
0.00291433
0.0028888681
0.0028753451
0.0028765836
0.0028955984
0.0029332315
0.0029893794
0.0030636652
0.0031546065
0.0032593679
0.0033744816
0.003495805
0.0036176495
0.003733533
0.0038347781
0.0039125645
0.0039603342
0.0039757277
0.003960947
0.0039209504
0.0038611949
0.0037869241
0.0037036632
0.0036145894
0.0035222911
0.0034289276
0.0033360053
0.0032429389
0.0031512255
0.0030604657
0.0029699081
0.0028804623
0.0027910807
0.0027020319
0.0026130358
0.0025219408
0.0024292248
0.0023352428
0.0022404589
0.0021442158
0.0020459485
0.0019466237
0.0018450183
0.0017420035
0.0016373333
0.0015310599
0.0014238224
0.0013151908
0.0012065449
0.0010974763
0.00098987082
0.00088313678
0.00078382994
0.00067942937
0.00062991716
0.00044945596
0.0010877074
-0.00069296258
0.021586841
0.020223652
0.018599544
0.016791995
0.014894263
0.013062939
0.011441581
0.010101252
0.0090396664
0.0082102968
0.0075548938
0.0070252837
0.0065889091
0.0062239505
0.0059143301
0.0056481174
0.0054166364
0.0052131727
0.0050324469
0.0048704488
0.0047238757
0.0045899081
0.0044664725
0.0043519856
0.0042448889
0.0041438182
0.004047972
0.0039566378
0.0038688661
0.0037840654
0.003702227
0.0036230978
0.0035459772
0.0034707544
0.0033979066
0.0033276077
0.0032596238
0.0031943102
0.0031327177
0.0030757659
0.0030240761
0.0029788387
0.0029421932
0.0029160356
0.0029018032
0.0029021039
0.0029197707
0.0029557285
0.0030098937
0.0030818596
0.0031701909
0.0032721511
0.0033843161
0.0035025859
0.0036214031
0.0037343884
0.0038330864
0.0039090282
0.0039557119
0.0039708856
0.0039566282
0.0039173268
0.0038583874
0.0037850497
0.0037026562
0.0036141743
0.0035223612
0.003429528
0.0033369723
0.0032441027
0.0031526141
0.0030620575
0.0029716982
0.0028824327
0.0027931885
0.0027043134
0.0026154375
0.0025243923
0.0024318986
0.0023381456
0.0022431604
0.0021467988
0.0020486199
0.0019491351
0.0018474645
0.0017446321
0.0016400339
0.001533821
0.0014266536
0.0013180554
0.0012094169
0.00110034
0.00099270166
0.00088593233
0.0007865138
0.00068215225
0.00063204224
0.0004603561
0.0010906919
-0.0006645719
0.020915295
0.019666905
0.018202602
0.016575308
0.014853419
0.013168003
0.011646427
0.010357827
0.0093097213
0.008470693
0.0077957566
0.0072443493
0.0067868389
0.0064023709
0.0060752638
0.005793562
0.0055483542
0.0053327583
0.0051413256
0.0049698249
0.0048148153
0.0046733945
0.0045433322
0.0044229033
0.004310511
0.0042047523
0.0041046953
0.0040095643
0.0039184453
0.0038306994
0.0037461825
0.003664629
0.0035854244
0.003508398
0.0034339126
0.0033621449
0.0032929382
0.0032266063
0.0031640967
0.0031063137
0.003053928
0.0030080899
0.0029707928
0.0029439065
0.0029289128
0.0029282314
0.00294452
0.0029787647
0.0030309041
0.0031005072
0.0031861834
0.0032852902
0.0033944545
0.0035096224
0.0036253643
0.0037354124
0.0038315416
0.0039055651
0.0039511501
0.003966084
0.0039523085
0.003913692
0.0038555633
0.0037831563
0.0037015787
0.0036138847
0.0035224147
0.003430174
0.0033379255
0.0032452088
0.0031538764
0.003063411
0.0029731422
0.0028839767
0.002794812
0.0027060534
0.0026172598
0.0025263232
0.0024340234
0.0023403892
0.0022454796
0.0021493513
0.0020511858
0.0019515388
0.001849958
0.0017470782
0.0016422524
0.0015361874
0.001429134
0.0013205864
0.0012120141
0.0011029763
0.00099533213
0.00088856651
0.00078905001
0.00068476299
0.00063390381
0.00047059672
0.001087912
-0.00063409287
0.020290992
0.019146894
0.017823515
0.016355242
0.014791378
0.013241143
0.011816496
0.010583167
0.0095556087
0.0087144328
0.0080260306
0.0074571095
0.006981371
0.0065793284
0.0062359744
0.0059395769
0.0056811624
0.0054537558
0.0052518003
0.0050709042
0.0049075059
0.0047586267
0.00462191
0.0044955044
0.0043777653
0.0042672513
0.0041629239
0.0040639418
0.0039694086
0.0038786473
0.0037913995
0.003707376
0.0036260281
0.0035471413
0.0034709769
0.0033977039
0.0033272286
0.0032598329
0.0031963713
0.0031377255
0.0030846041
0.0030381221
0.0030001399
0.0029724901
0.0029566841
0.0029549767
0.0029698547
0.003002346
0.0030524162
0.0031196148
0.0032025914
0.0032987946
0.003404907
0.0035169238
0.0036295404
0.003736617
0.0038301039
0.0039022137
0.0039466691
0.0039613249
0.0039479841
0.0039100377
0.00385273
0.0037812523
0.00370048
0.00361358
0.0035225302
0.0034308238
0.003338875
0.0032463865
0.0031551819
0.0030647482
0.0029745314
0.0028853844
0.0027961908
0.0027074569
0.0026186819
0.0025278091
0.0024356517
0.0023421248
0.0022473568
0.0021513736
0.002053268
0.001953772
0.0018524105
0.0017493748
0.0016444686
0.0015384802
0.0014312669
0.0013227293
0.0012142959
0.0011052907
0.00099769676
0.00089098441
0.00079138629
0.0006872166
0.00063548525
0.0004800057
0.0010792727
-0.00060179601
0.019709366
0.018660089
0.017461302
0.016133523
0.014711545
0.013286105
0.011954821
0.010779006
0.0097777228
0.0089409947
0.0082448016
0.0076625924
0.0071716192
0.006754079
0.0063958725
0.0060857046
0.0058147055
0.0055758942
0.0053636679
0.0051735323
0.0050018321
0.0048455228
0.0047021479
0.0045697477
0.0044466254
0.0043313024
0.0042226524
0.0041197702
0.0040217623
0.0039279204
0.0038378906
0.0037513522
0.0036678049
0.0035870025
0.003509117
0.0034343016
0.0033625125
0.0032940076
0.0032295575
0.0031700157
0.0031161186
0.0030689484
0.0030302458
0.003001796
0.0029851273
0.0029823484
0.0029957812
0.0030264788
0.003074437
0.0031391895
0.0032194226
0.0033126724
0.0034156817
0.0035244981
0.0036339414
0.0037380129
0.0038287886
0.0038989837
0.0039422753
0.003956617
0.0039436582
0.0039063644
0.0038498762
0.0037793275
0.0036993811
0.0036131844
0.0035227634
0.0034314887
0.0033398319
0.0032475956
0.0031565186
0.0030661639
0.002976015
0.0028868269
0.0027975502
0.0027087836
0.0026199337
0.0025290307
0.0024369403
0.0023434774
0.0022488206
0.0021529405
0.0020549273
0.0019555789
0.0018543291
0.0017513628
0.001646683
0.0015406892
0.0014333591
0.0013248787
0.0012163557
0.0011072351
0.0009997812
0.00089309318
0.00079345052
0.00068945424
0.00063677045
0.00048844661
0.0010650712
-0.00056805925
0.019166346
0.018203325
0.017114969
0.015911529
0.014616906
0.013306321
0.012064309
0.010947144
0.0099766568
0.0091500729
0.0084513132
0.0078599184
0.0073567405
0.0069258862
0.0065543547
0.0062314647
0.0059486037
0.0056988782
0.0054767021
0.0052775358
0.0050976619
0.004933986
0.0047839758
0.0046455822
0.0045170567
0.0043968852
0.0042838694
0.0041770442
0.0040755086
0.003978527
0.0038856657
0.0037965691
0.0037107697
0.003627998
0.0035483489
0.0034719537
0.0033988065
0.003329147
0.0032636707
0.0032031986
0.0031484851
0.0031005821
0.0030611213
0.0030318338
0.003014252
0.0030103544
0.0030223059
0.0030511702
0.0030969734
0.0031592381
0.003236684
0.0033269314
0.0034267873