/*--------------------------------*- C++ -*----------------------------------*\
| =========                 |                                                 |
| \\      /  F ield         | OpenFOAM: The Open Source CFD Toolbox           |
|  \\    /   O peration     | Version:  2206                                  |
|   \\  /    A nd           | Website:  www.openfoam.com                      |
|    \\/     M anipulation  |                                                 |
\*---------------------------------------------------------------------------*/
FoamFile
{
    version     2.0;
    format      ascii;
    arch        "LSB;label=32;scalar=64";
    class       surfaceScalarField;
    location    "1200";
    object      phi;
}
// * * * * * * * * * * * * * * * * * * * * * * * * * * * * * * * * * * * * * //

dimensions      [0 3 -1 0 0 0 0];

oriented        oriented;

internalField   nonuniform List<scalar> 
14782
(
0.00061767406
8.777974e-05
-0.0007054538
0.00051028141
0.00010739265
0.00040011162
0.00011016979
0.00030665105
9.3460571e-05
0.00023997919
6.667186e-05
0.00019924386
4.0735333e-05
0.00017532917
2.3914692e-05
0.00016115792
1.4171246e-05
0.00015174857
9.4093558e-06
0.00014417979
7.568773e-06
0.00013730893
6.8708575e-06
0.00013094663
6.3623031e-06
0.00012513739
5.8092414e-06
0.00011984393
5.2934623e-06
0.00011500771
4.8362178e-06
0.0001106042
4.4035092e-06
0.00010659772
4.0064854e-06
0.000102907
3.6907134e-06
9.947978e-05
3.4272217e-06
9.6296187e-05
3.1835937e-06
9.3334591e-05
2.9615957e-06
9.0560231e-05
2.77436e-06
8.7951775e-05
2.6084557e-06
8.5499826e-05
2.4519494e-06
8.3191557e-05
2.3082691e-06
8.1008353e-05
2.1832032e-06
7.8939229e-05
2.069125e-06
7.6979413e-05
1.9598154e-06
7.5121586e-05
1.8578273e-06
7.3356282e-05
1.7653037e-06
7.1678363e-05
1.6779188e-06
7.0085477e-05
1.5928865e-06
6.8573437e-05
1.5120397e-06
6.7137543e-05
1.4358943e-06
6.5775582e-05
1.3619608e-06
6.4486648e-05
1.2889343e-06
6.3269029e-05
1.2176187e-06
6.2121718e-05
1.1473108e-06
6.1045625e-05
1.0760935e-06
6.0042486e-05
1.0031387e-06
5.9113529e-05
9.2895741e-07
5.8260405e-05
8.5312416e-07
5.7486355e-05
7.7404918e-07
5.6793976e-05
6.9237938e-07
5.6188874e-05
6.0510244e-07
5.5679998e-05
5.0887539e-07
5.5276657e-05
4.0334135e-07
5.4982798e-05
2.938591e-07
5.4797893e-05
1.8490488e-07
5.4720561e-05
7.733203e-08
5.4746733e-05
-2.6171837e-08
5.4869591e-05
-1.2285893e-07
5.5076921e-05
-2.0732944e-07
5.5348893e-05
-2.7197189e-07
5.5672353e-05
-3.2346055e-07
5.6034526e-05
-3.6217251e-07
5.6401813e-05
-3.6728717e-07
5.6737802e-05
-3.3598927e-07
5.7006854e-05
-2.6905151e-07
5.7192942e-05
-1.8608878e-07
5.7293334e-05
-1.0039184e-07
5.7311559e-05
-1.822495e-08
5.7257649e-05
5.3910622e-08
5.7144951e-05
1.1269778e-07
5.6986926e-05
1.5802498e-07
5.6795486e-05
1.9143968e-07
5.6581369e-05
2.1411662e-07
5.6352385e-05
2.289846e-07
5.6114377e-05
2.3800783e-07
5.5871805e-05
2.4257246e-07
5.5627908e-05
2.4389677e-07
5.5384386e-05
2.4352179e-07
5.5142759e-05
2.4162655e-07
5.4904293e-05
2.3846633e-07
5.4668888e-05
2.3540509e-07
5.4437155e-05
2.3173329e-07
5.4205788e-05
2.3136697e-07
5.3970333e-05
2.3545487e-07
5.3732088e-05
2.3824535e-07
5.3492383e-05
2.3970476e-07
5.3252124e-05
2.4025925e-07
5.3011203e-05
2.409205e-07
5.2768374e-05
2.4282877e-07
5.2523821e-05
2.4455323e-07
5.227694e-05
2.4688095e-07
5.2027992e-05
2.4894848e-07
5.1777049e-05
2.509424e-07
5.1524226e-05
2.5282365e-07
5.1270038e-05
2.541872e-07
5.1014347e-05
2.5569093e-07
5.0757735e-05
2.5661262e-07
5.0500052e-05
2.5768306e-07
5.0241461e-05
2.5859038e-07
4.9981655e-05
2.5980594e-07
4.9719823e-05
2.618328e-07
4.9456049e-05
2.6377392e-07
4.9210682e-05
2.4536716e-07
4.880741e-05
4.032712e-07
4.881687e-05
-9.4592189e-09
8.4084924e-07
0.00079174241
9.1056088e-05
-0.00079501876
0.00077876676
0.0001203683
0.00075192668
0.00013700987
0.00070877565
0.0001366116
0.00065523582
0.00012021169
0.00060115067
9.4820486e-05
0.00055305972
7.2005646e-05
0.00051312468
5.4106287e-05
0.00048026169
4.2272346e-05
0.00045276344
3.5067018e-05
0.00042913349
3.0500813e-05
0.00040847027
2.7025522e-05
0.00039016041
2.4119094e-05
0.00037371821
2.1735662e-05
0.00035880153
1.9752903e-05
0.00034520663
1.7998413e-05
0.00033275999
1.6453121e-05
0.00032128525
1.5165453e-05
0.0003106475
1.4064973e-05
0.00030075627
1.3074822e-05
0.00029153365
1.2184219e-05
0.000282898
1.1410009e-05
0.000274787
1.0719457e-05
0.00026715479
1.0084159e-05
0.00025995789
9.505165e-06
0.00025315262
8.9884741e-06
0.00024670617
8.515577e-06
0.00024059588
8.070107e-06
0.00023479928
7.6544209e-06
0.00022929312
7.2714688e-06
0.00022406054
6.910493e-06
0.00021909016
6.5632693e-06
0.00021437022
6.2319807e-06
0.00020988926
5.9168514e-06
0.00020563987
5.6113506e-06
0.00020161785
5.3109575e-06
0.00019781952
5.0159527e-06
0.00019424322
4.7236045e-06
0.00019089116
4.4281532e-06
0.00018776825
4.1260512e-06
0.00018488004
3.8171641e-06
0.00018223373
3.4994343e-06
0.00017983964
3.1681473e-06
0.00017770839
2.8236242e-06
0.00017586079
2.4527066e-06
0.00017431374
2.0559192e-06
0.00017308934
1.6277445e-06
0.00017220252
1.1806803e-06
0.00017164946
7.3796732e-07
0.00017142223
3.045599e-07
0.00017150521
-1.0915466e-07
0.00017187432
-4.9196778e-07
0.00017249068
-8.2368917e-07
0.00017329926
-1.0805529e-06
0.00017425195
-1.2761497e-06
0.00017529394
-1.4041661e-06
0.00017633117
-1.4045106e-06
0.00017726517
-1.26999e-06
0.0001779972
-1.0010893e-06
0.00017848892
-6.7780671e-07
0.00017873507
-3.4654371e-07
0.00017874499
-2.8142317e-08
0.00017854792
2.5098044e-07
0.00017818002
4.8059621e-07
0.0001776802
6.5784963e-07
0.00017708297
7.8867135e-07
0.00017641842
8.7866629e-07
0.00017570953
9.3787653e-07
0.00017497365
9.738866e-07
0.00017422386
9.9235649e-07
0.00017346958
9.9817602e-07
0.00017271647
9.9663032e-07
0.00017196913
9.8896875e-07
0.00017123102
9.7658231e-07
0.00017050273
9.6369142e-07
0.000169785
9.4946075e-07
0.00016906692
9.4944887e-07
0.0001683367
9.6568073e-07
0.00016759859
9.7635288e-07
0.00016685685
9.8144362e-07
0.00016611326
9.8384474e-07
0.00016536712
9.8706532e-07
0.00016461572
9.9422602e-07
0.00016385873
1.0015412e-06
0.00016309499
1.0106267e-06
0.00016232492
1.0190197e-06
0.00016154884
1.0270203e-06
0.00016076731
1.034351e-06
0.00015998154
1.0399543e-06
0.00015919174
1.0454919e-06
0.00015839915
1.0492056e-06
0.00015760402
1.0528101e-06
0.00015680639
1.0562277e-06
0.00015600698
1.0592096e-06
0.00015519988
1.0689319e-06
0.00015439729
1.0663638e-06
0.00015358828
1.0543843e-06
0.00015257239
1.4191552e-06
0.00015201916
5.4377243e-07
2.5340253e-06
0.00083154082
8.6585931e-05
-0.00082707066
0.00083705743
0.00011485168
0.00084158605
0.00013248126
0.00084048981
0.00013770783
0.00083137437
0.00012932713
0.00081409119
0.00011210367
0.00079124612
9.4850715e-05
0.00076525281
8.009959e-05
0.00073801235
6.9512805e-05
0.00071103561
6.2043757e-05
0.00068516218
5.6374251e-05
0.00066068907
5.1498629e-05
0.00063762418
4.7183981e-05
0.00061586497
4.3494878e-05
0.00059534636
4.0271508e-05
0.00057603891
3.7305862e-05
0.0005578841
3.4607932e-05
0.0005407873
3.2262253e-05
0.00052466442
3.0187852e-05
0.00050945034
2.8288902e-05
0.00049507965
2.6554915e-05
0.00048147858
2.5011074e-05
0.00046858689
2.3611149e-05
0.00045635716
2.2313891e-05
0.00044474321
2.111911e-05
0.00043369659
2.0035097e-05
0.00042317833
1.903384e-05
0.00041315859
1.8089841e-05
0.00040360865
1.7204367e-05
0.00039450032
1.6379794e-05
0.00038581216
1.5598653e-05
0.00037752837
1.4847056e-05
0.00036963397
1.4126382e-05
0.00036211541
1.3435412e-05
0.00035496387
1.2762892e-05
0.00034817473
1.2100099e-05
0.00034174528
1.1445401e-05
0.00033567585
1.0793035e-05
0.0003299714
1.0132603e-05
0.00032464074
9.4567158e-06
0.00031969471
8.7631864e-06
0.00031514713
8.0470165e-06
0.00031101595
7.2993324e-06
0.00030732053
6.5190395e-06
0.00030409107
5.6821667e-06
0.00030135543
4.7915544e-06
0.0002991368
3.8463761e-06
0.00029744754
2.8699468e-06
0.00029627995
1.9055525e-06
0.00029561586
9.6864684e-07
0.00029542501
8.1700551e-08
0.00029566461
-7.3156491e-07
0.00029627305
-1.4321346e-06
0.00029716957
-1.9770675e-06
0.00029827598
-2.3825608e-06
0.0002994973
-2.6254884e-06
0.00030069478
-2.6019929e-06
0.00030173152
-2.3067273e-06
0.00030248564
-1.7552133e-06
0.00030290434
-1.0965065e-06
0.00030298096
-4.2316318e-07
0.0003027325
2.2031905e-07
0.00030219919
7.8429498e-07
0.00030143204
1.247739e-06
0.00030048441
1.6054867e-06
0.00029940384
1.8692353e-06
0.00029823164
2.0508705e-06
0.0002970002
2.1693154e-06
0.00029573437
2.239712e-06
0.00029445295
2.2737795e-06
0.00029316942
2.2817098e-06
0.00029189241
2.2736416e-06
0.00029062879
2.2525871e-06
0.00028938348
2.2218939e-06
0.00028815776
2.1894088e-06
0.00028695178
2.155444e-06
0.00028574825
2.1529756e-06
0.00028453225
2.1816763e-06
0.00028331148
2.1971248e-06
0.00028209052
2.202405e-06
0.00028087003
2.2043345e-06
0.00027964812
2.2089747e-06
0.00027842107
2.2212725e-06
0.00027718754
2.2350712e-06
0.00027594582
2.2523455e-06
0.00027469606
2.2687833e-06
0.00027343855
2.2845344e-06
0.00027217402
2.2988752e-06
0.00027090394
2.310039e-06
0.00026962883
2.3205983e-06
0.00026835015
2.3278885e-06
0.00026706861
2.3343531e-06
0.00026578394
2.3408929e-06
0.00026449802
2.345133e-06
0.00026320018
2.3667709e-06
0.00026191537
2.3511701e-06
0.00026058665
2.3831021e-06
0.00025910154
2.9042673e-06
0.0002578316
1.8137181e-06
4.6204056e-06
0.00086132935
8.2257437e-05
-0.00085700085
0.00086786443
0.0001083166
0.00087515441
0.00012519128
0.00088217954
0.00013068271
0.00088608735
0.00012541932
0.00088507104
0.00011311997
0.00088098514
9.8936618e-05
0.00087426298
8.6821749e-05
0.00086517655
7.8599229e-05
0.00085397202
7.3248286e-05
0.00084097944
6.9366836e-05
0.0008263997
6.6078368e-05
0.00081059777
6.2985908e-05
0.00079416333
5.9929317e-05
0.00077743558
5.6999262e-05
0.00076063995
5.410149e-05
0.00074391548
5.13324e-05
0.00072734968
4.8828054e-05
0.00071102756
4.6509976e-05
0.00069502798
4.428848e-05
0.00067940605
4.2176846e-05
0.00066418876
4.0228365e-05
0.00064939774
3.8402168e-05
0.00063505131
3.6660323e-05
0.0006211583
3.5012119e-05
0.00060771535
3.3478049e-05
0.00059471932
3.2029867e-05
0.00058216812
3.0641038e-05
0.00057005535
2.9317136e-05
0.00055837145
2.8063698e-05
0.00054710999
2.686011e-05
0.00053626714
2.5689907e-05
0.00052583817
2.4555348e-05
0.00051581893
2.3454651e-05
0.00050620933
2.2372494e-05
0.00049701327
2.1296165e-05
0.0004882357
2.0222966e-05
0.00047988302
1.9145719e-05
0.00047196524
1.8050376e-05
0.00046449608
1.6925878e-05
0.00045749168
1.5767591e-05
0.0004509715
1.4567194e-05
0.00044495899
1.3311843e-05
0.00043948025
1.1997781e-05
0.0004345683
1.059411e-05
0.00043025116
9.1087024e-06
0.0004265404
7.5571355e-06
0.00042343503
5.9753123e-06
0.00042092192
4.4186606e-06
0.00041897745
2.9131253e-06
0.00041756754
1.4916093e-06
0.00041664295
1.9302075e-07
0.00041613314
-9.2232419e-07
0.0004159548
-1.7987275e-06
0.00041602173
-2.4494893e-06
0.00041621626
-2.8200151e-06
0.00041638582
-2.7715547e-06
0.00041640099
-2.3218979e-06
0.00041616261
-1.5168322e-06
0.00041563058
-5.644804e-07
0.00041480267
4.0474851e-07
0.00041369799
1.3249961e-06
0.00041235415
2.1281388e-06
0.00041081518
2.7867024e-06
0.00040912696
3.2937137e-06
0.0004073313
3.664895e-06
0.00040546554
3.9166245e-06
0.00040355997
4.0748917e-06
0.00040163843
4.1612481e-06
0.00039971928
4.1929333e-06
0.00039781571
4.185275e-06
0.0003959366
4.1527494e-06
0.0003940892
4.0999945e-06
0.00039227836
4.0327319e-06
0.00039050516
3.9626107e-06
0.00038876832
3.8922842e-06
0.00038706248
3.8588072e-06
0.00038538022
3.8639416e-06
0.00038371681
3.8605352e-06
0.00038206827
3.8509408e-06
0.00038043169
3.8409194e-06
0.00037880352
3.837141e-06
0.00037717899
3.8458055e-06
0.00037555546
3.8586044e-06
0.00037393029
3.8775082e-06
0.00037230273
3.8963479e-06
0.00037067239
3.9148734e-06
0.00036903949
3.9317696e-06
0.00036740503
3.9445065e-06
0.00036576925
3.956376e-06
0.00036413321
3.9639314e-06
0.00036249757
3.969993e-06
0.00036086149
3.9769647e-06
0.00035922737
3.9792536e-06
0.00035758124
4.0129049e-06
0.00035595481
3.9775982e-06
0.00035426637
4.0715426e-06
0.00035247045
4.7001928e-06
0.00035066561
3.61855e-06
6.8523653e-06
0.00089161665
7.8534084e-05
-0.00088789329
0.0008976484
0.00010228485
0.00090485437
0.0001179853
0.0009117593
0.00012377778
0.00091692606
0.00012025256
0.00091985296
0.00011019307
0.0009204931
9.8296478e-05
0.00091935084
8.796401e-05
0.00091746389
8.0486179e-05
0.0009149124
7.579977e-05
0.00091162235
7.2656889e-05
0.00090737375
7.0326966e-05
0.00090192165
6.8438009e-05
0.00089520547
6.6645501e-05
0.00088729814
6.4906587e-05
0.00087822134
6.3178296e-05
0.00086812584
6.1427898e-05
0.00085729972
5.9654172e-05
0.00084590598
5.790372e-05
0.00083406562
5.6128833e-05
0.00082187699
5.4365482e-05
0.00080941841
5.2686943e-05
0.00079676768
5.1052895e-05
0.00078400364
4.9424367e-05
0.00077119539
4.7820366e-05
0.00075839892
4.627452e-05
0.00074566699
4.4761796e-05
0.00073304706
4.3260971e-05
0.00072057691
4.1787279e-05
0.00070828683
4.0353786e-05
0.00069620572
3.8941217e-05
0.00068436074
3.7534885e-05
0.00067277488
3.614121e-05
0.00066146926
3.4760271e-05
0.00065046755
3.3374205e-05
0.00063979578
3.1967936e-05
0.00062947457
3.0544175e-05
0.00061952004
2.9100251e-05
0.00060995152
2.7618898e-05
0.00060079197
2.6085419e-05
0.0005920664
2.4493165e-05
0.0005838024
2.2831193e-05
0.00057603043
2.1083818e-05
0.00056878697
1.9241234e-05
0.00056210294
1.7278141e-05
0.00055598981
1.5221832e-05
0.00055044336
1.3103588e-05
0.00054545706
1.0961613e-05
0.000541025
8.850721e-06
0.00053713381
6.8043098e-06
0.00053376
4.8654234e-06
0.00053086296
3.0900558e-06
0.0005283797
1.5609434e-06
0.0005262462
3.3476499e-07
0.00052437105
-5.7433909e-07
0.00052260788
-1.0568407e-06
0.00052082158
-9.8525273e-07
0.00051894012
-4.4044432e-07
0.00051692254
5.0074933e-07
0.00051475774
1.60032e-06
0.00051245115
2.7113356e-06
0.00051001601
3.7601442e-06
0.00050747243
4.6717178e-06
0.00050484341
5.4157182e-06
0.00050215441
5.9827156e-06
0.00049942988
6.3894215e-06
0.00049669323
6.6532767e-06
0.00049396435
6.8037741e-06
0.00049125968
6.8659215e-06
0.0004885922
6.8604115e-06
0.00048597128
6.8061891e-06
0.0004834037
6.7203284e-06
0.00048089525
6.6084456e-06
0.00047844914
6.4788433e-06
0.00047606508
6.3466734e-06
0.00047374023
6.2171374e-06
0.00047147576
6.1232731e-06
0.00046927007
6.0696314e-06
0.00046711268
6.017924e-06
0.00046499353
5.9700877e-06
0.00046290613
5.928325e-06
0.00046084503
5.8982386e-06
0.00045880425
5.886586e-06
0.00045677979
5.8830681e-06
0.00045476783
5.8894641e-06
0.00045276633
5.8978508e-06
0.00045077377
5.9074287e-06
0.00044878934
5.9161992e-06
0.00044681303
5.920817e-06
0.00044484431
5.9250941e-06
0.00044288342
5.9248275e-06
0.00044093048
5.9229313e-06
0.00043898379
5.9236566e-06
0.00043704563
5.9174118e-06
0.00043509971
5.9588283e-06
0.00043318024
5.897062e-06
0.00043119456
6.0572262e-06
0.00042914193
6.7528173e-06
0.00042690619
5.854298e-06
9.1791521e-06
0.00092300717
7.5204679e-05
-0.00091967776
0.00092852537
9.6766648e-05
0.00093509757
0.0001114131
0.00094151605
0.0001173593
0.00094666597
0.00011510265
0.00094990859
0.00010695045
0.00095149619
9.6708875e-05
0.00095187183
8.7588375e-05
0.00095153308
8.082493e-05
0.00095102139
7.6311452e-05
0.00095037357
7.3304717e-05
0.00094952375
7.1176786e-05
0.00094837281
6.9588946e-05
0.00094679415
6.8224161e-05
0.00094471065
6.6990079e-05
0.00094198645
6.5902502e-05
0.0009384809
6.4933445e-05
0.00093415247
6.3982601e-05
0.00092900717
6.3049024e-05
0.00092302439
6.2111611e-05
0.00091625762
6.1132259e-05
0.00090883427
6.0110286e-05
0.00090083031
5.9056859e-05
0.00089230455
5.7950123e-05
0.00088330933
5.6815587e-05
0.00087389716
5.5686694e-05
0.00086412455
5.4534403e-05
0.00085404575
5.3339775e-05
0.00084371333
5.2119698e-05
0.00083317882
5.0888291e-05
0.00082249474
4.9625302e-05
0.00081171213
4.8317494e-05
0.00080087729
4.6976046e-05
0.00079003312
4.5604444e-05
0.00077922241
4.4184918e-05
0.00076848806
4.2702283e-05
0.00075787205
4.1160187e-05
0.000747416
3.9556296e-05
0.00073716152
3.7873384e-05
0.00072715003
3.6096912e-05
0.00071742252
3.4220668e-05
0.00070802136
3.2232352e-05
0.00069899122
3.0113958e-05
0.00069038974
2.7842715e-05
0.00068222453
2.5443355e-05
0.00067447349
2.2972869e-05
0.00066715903
2.0418046e-05
0.00066031214
1.780851e-05
0.00065395109
1.521177e-05
0.00064807594
1.2679457e-05
0.00064266891
1.0272457e-05
0.00063769115
8.0678121e-06
0.00063309218
6.1599189e-06
0.00062884398
4.5829648e-06
0.00062481717
3.4524688e-06
0.00062082144
2.9388842e-06
0.00061680458
3.0316112e-06
0.00061279356
3.5705695e-06
0.00060880206
4.4922576e-06
0.00060483369
5.5686904e-06
0.00060089196
6.6530645e-06
0.00059698016
7.6719408e-06
0.00059310011
8.55177e-06
0.00058925512
9.2607017e-06
0.00058545178
9.7860604e-06
0.00058169741
1.0143792e-05
0.00057800057
1.035012e-05
0.00057436926
1.0435084e-05
0.0005708108
1.0424377e-05
0.00056733151
1.0339701e-05
0.00056393652
1.0201179e-05
0.00056062898
1.002787e-05
0.00055741096
9.8264686e-06
0.00055428304
9.6067599e-06
0.00055124309
9.3866245e-06
0.0005482871
9.1731285e-06
0.00054541333
8.9970367e-06
0.00054262035
8.862618e-06
0.00053990127
8.7370054e-06
0.00053724611
8.6252484e-06
0.00053464671
8.5277157e-06
0.00053209619
8.4487658e-06
0.00052958744
8.3953331e-06
0.00052711525
8.355254e-06
0.00052467464
8.3300791e-06
0.0005222622
8.3102951e-06
0.0005198751
8.2945249e-06
0.00051751125
8.2800528e-06
0.00051516937
8.2626954e-06
0.00051284803
8.2464338e-06
0.00051054646
8.2263935e-06
0.00050826373
8.2056665e-06
0.00050599698
8.1904042e-06
0.0005037479
8.1664854e-06
0.00050149861
8.2081254e-06
0.0004992831
8.1125734e-06
0.00049700421
8.3361099e-06
0.00049469297
9.0640631e-06
0.00049206389
8.4833701e-06
1.1632947e-05
0.00095538342
7.2206044e-05
-0.00095238478
0.00096046703
9.1683034e-05
0.00096653594
0.0001053442
0.00097250503
0.00011139021
0.00097738774
0.00011021993
0.00098063363
0.00010370457
0.00098238576
9.4956739e-05
0.00098314653
8.6827608e-05
0.00098335739
8.0614073e-05
0.00098334288
7.6325956e-05
0.00098325369
7.3393909e-05
0.00098313857
7.1291907e-05
0.00098299392
6.97336e-05
0.00098275571
6.8462373e-05
0.00098237814
6.7367644e-05
0.00098182356
6.645708e-05
0.00098104227
6.5714738e-05
0.00097997114
6.5053734e-05
0.00097855971
6.4460453e-05
0.00097672139
6.3949926e-05
0.00097436334
6.3490315e-05
0.00097144407
6.302955e-05
0.00096794229
6.2558648e-05
0.00096382613
6.2066281e-05
0.00095911024
6.153148e-05
0.00095384527
6.0951664e-05
0.00094805941
6.0320258e-05
0.00094177756
5.9621624e-05
0.00093502272
5.8874538e-05
0.00092782092
5.8090095e-05
0.00092020533
5.7240889e-05
0.00091221195
5.6310878e-05
0.0009038723
5.5315692e-05
0.00089521846
5.425829e-05
0.00088628873
5.3114641e-05
0.0008771226
5.1868416e-05
0.0008677621
5.0520689e-05
0.00085825437
4.9064026e-05
0.00084864892
4.7478828e-05
0.00083899638
4.5749451e-05
0.00082934827
4.3868776e-05
0.0008197582
4.1822425e-05
0.00081028328
3.9588875e-05
0.00080098392
3.714208e-05
0.00079190966
3.4517611e-05
0.00078308418
3.1798349e-05
0.00077452452
2.8977713e-05
0.0007662618
2.6071223e-05
0.00075832678
2.3146798e-05
0.00075073913
2.0267102e-05
0.00074350319
1.7508398e-05
0.00073660422
1.4966778e-05
0.00073002764
1.2736501e-05
0.00072378025
1.0830353e-05
0.00071778064
9.4520842e-06
0.0007118898
8.8297181e-06
0.00070606865
8.85276e-06
0.00070033764
9.3015823e-06
0.00069470842
1.0121474e-05
0.0006891849
1.1092218e-05
0.00068377493
1.2063025e-05
0.00067848392
1.2962958e-05
0.00067330961
1.3726077e-05
0.00066825106
1.4319251e-05
0.00066330933
1.4727794e-05
0.00065848408
1.4969036e-05
0.00065377583
1.5058377e-05
0.00064918552
1.5025391e-05
0.00064471431
1.4895588e-05
0.0006403633
1.4690714e-05
0.00063613402
1.4430456e-05
0.00063202661
1.4135274e-05
0.00062804006
1.3813021e-05
0.00062417252
1.3474298e-05
0.00062041999
1.3139162e-05
0.00061677743
1.2815686e-05
0.00061324057
1.2533891e-05
0.00060980632
1.2296869e-05
0.00060646992
1.2073407e-05
0.00060322312
1.1872046e-05
0.0006000579
1.169294e-05
0.00059696674
1.1539927e-05
0.00059394181
1.1420266e-05
0.0005909769
1.1320155e-05
0.00058806598
1.1241007e-05
0.00058520434
1.117193e-05
0.00058238783
1.1111035e-05
0.00057961297
1.1054918e-05
0.00057687709
1.099857e-05
0.0005741776
1.0945923e-05
0.00057151254
1.0891457e-05
0.00056887972
1.0838482e-05
0.00056627509
1.079504e-05
0.0005636994
1.0742171e-05
0.0005611335
1.0774024e-05
0.00055860998
1.0636096e-05
0.00055602924
1.0916855e-05
0.00055344766
1.1645642e-05
0.00055044081
1.1490214e-05
1.4244904e-05
0.00098878599
6.9477099e-05
-0.00098605705
0.00099346328
8.7005749e-05
0.00099909332
9.9714152e-05
0.0010046745
0.00010580899
0.0010093315
0.00010556299
0.0010125548
0.00010048129
0.0010144032
9.3108282e-05
0.0010153027
8.5928122e-05
0.0010156891
8.0227676e-05
0.0010158617
7.6153349e-05
0.00101596
7.3295574e-05
0.00101603
7.1221986e-05
0.0010160988
6.9664798e-05
0.0010161526
6.8408481e-05
0.0010161635
6.735674e-05
0.0010161274
6.6493269e-05
0.0010160404
6.5801724e-05
0.0010158763
6.521785e-05
0.001015614
6.4722728e-05
0.0010152293
6.433462e-05
0.0010146868
6.4032816e-05
0.0010139454
6.3770905e-05
0.0010129651
6.3538982e-05
0.0010116846
6.334678e-05
0.0010100411
6.3174967e-05
0.0010079972
6.2995602e-05
0.001005521
6.2796397e-05
0.0010025819
6.2560743e-05
0.00099917937
6.2277087e-05
0.00099532724
6.194222e-05
0.0009910278
6.1540329e-05
0.00098628264
6.1056044e-05
0.00098109648
6.0501848e-05
0.00097547825
5.9876516e-05
0.00096943994
5.9152958e-05
0.00096299565
5.8312702e-05
0.00095616094
5.7355401e-05
0.00094895236
5.6272604e-05
0.00094138858
5.5042608e-05
0.00093349504
5.3642991e-05
0.00092530311
5.2060703e-05
0.00091684841
5.0277131e-05
0.00090817331
4.8263974e-05
0.00089931643
4.5998954e-05
0.00089035795
4.3476097e-05
0.00088139289
4.0763411e-05
0.00087245492
3.791568e-05
0.00086356525
3.4960892e-05
0.0008547575
3.1954548e-05
0.00084607104
2.8953563e-05
0.00083754636
2.6033078e-05
0.00082922038
2.3292757e-05
0.00082112164
2.0835245e-05
0.00081325785
1.8694139e-05
0.00080567255
1.7037385e-05
0.00079834765
1.6154617e-05
0.00079120274
1.5997675e-05
0.000784202
1.6302324e-05
0.00077731415
1.7009323e-05
0.00077053735
1.7869017e-05
0.00076388621
1.8714162e-05
0.00075737054
1.9478634e-05
0.00075099416
2.0102453e-05
0.00074476632
2.0547092e-05
0.00073869373
2.0800387e-05
0.00073277685
2.0885914e-05
0.0007270168
2.0818424e-05
0.00072141463
2.062756e-05
0.00071596971
2.0340506e-05
0.00071068073
1.9979699e-05
0.00070554729
1.9563896e-05
0.0007005683
1.9114259e-05
0.0006957416
1.8639728e-05
0.00069106384
1.8152059e-05
0.00068652953
1.767347e-05
0.00068213281
1.7212406e-05
0.00067786802
1.6798684e-05
0.00067373049
1.6434392e-05
0.00066971592
1.6087983e-05
0.00066581743
1.5770534e-05
0.00066202783
1.5482536e-05
0.00065833969
1.5228073e-05
0.00065474476
1.5015196e-05
0.00065123609
1.4828818e-05
0.00064780668
1.4670424e-05
0.00064445062
1.4527987e-05
0.00064116241
1.439924e-05
0.00063793716
1.4280169e-05
0.00063477075
1.416498e-05
0.00063165912
1.4057558e-05
0.00062859889
1.3951687e-05
0.00062558663
1.3850737e-05
0.00062261703
1.3764649e-05
0.0006196897
1.3669494e-05
0.00061678432
1.3679404e-05
0.00061393158
1.3488838e-05
0.00061102961
1.3818827e-05
0.00060815715
1.4518104e-05
0.00060476761
1.4879746e-05
1.7046189e-05
0.0010232519
6.6962195e-05
-0.0010207369
0.0010275483
8.2709265e-05
0.0010327645
9.4497967e-05
0.0010379855
0.00010058799
0.0010424364
0.00010111217
0.0010456394
9.7278286e-05
0.0010475887
9.1158983e-05
0.001048624
8.4892764e-05
0.0010491343
7.971743e-05
0.0010494036
7.5884002e-05
0.001049581
7.3118215e-05
0.0010497273
7.1075616e-05
0.0010498677
6.9524457e-05
0.0010499933
6.8282865e-05
0.0010500962
6.7253885e-05
0.0010501786
6.6410824e-05
0.0010502508
6.5729492e-05
0.0010503037
6.5164998e-05
0.00105032
6.4706417e-05
0.0010503019
6.4352762e-05
0.0010502461
6.4088548e-05
0.0010501362
6.388082e-05
0.0010499567
6.3718477e-05
0.001049689
6.3614504e-05
0.0010493076
6.3556356e-05
0.0010487836
6.3519585e-05
0.001048085
6.349504e-05
0.0010471662
6.3479551e-05
0.0010459821
6.3461121e-05
0.001044502
6.3422358e-05
0.0010426915
6.3350804e-05
0.0010405204
6.3227184e-05
0.0010379815
6.3040689e-05
0.0010350715
6.278655e-05
0.0010317794
6.2445031e-05
0.0010280934
6.1998725e-05
0.0010240022
6.1446581e-05
0.0010194985
6.0776287e-05
0.0010145784
5.9962724e-05
0.0010092378
5.8983654e-05
0.0010034718
5.7826663e-05
0.00099727657
5.647237e-05
0.00099065135
5.4889188e-05
0.00098359244
5.3057863e-05
0.0009761096
5.0958939e-05
0.00096826359
4.8609427e-05
0.00096012364
4.6055627e-05
0.00095173464
4.3349887e-05
0.00094313841
4.0550779e-05
0.00093438121
3.7710761e-05
0.00092551895
3.4895345e-05
0.00091661868
3.2193019e-05
0.00090774349
2.9710441e-05
0.00089891952
2.7518104e-05
0.00089024699
2.5709922e-05
0.00088186508
2.4536525e-05
0.00087377056
2.409219e-05
0.000865835
2.4237891e-05
0.00085798296
2.4861362e-05
0.00085023079
2.5621185e-05
0.00084257972
2.6365235e-05
0.00083503106
2.7027287e-05
0.00082760234
2.7531173e-05
0.00082031667
2.7832765e-05
0.00081318499
2.7932069e-05
0.00080621305
2.7857849e-05
0.00079941158
2.7619902e-05
0.00079278746
2.7251676e-05
0.00078634181
2.6786152e-05
0.00078007546
2.6246052e-05
0.00077399022
2.5649141e-05
0.00076808579
2.5018684e-05
0.00076236027
2.436525e-05
0.00075681056
2.3701766e-05
0.00075143107
2.3052964e-05
0.00074621604
2.2427438e-05
0.0007411599
2.1854817e-05
0.00073625752
2.1336775e-05
0.00073150451
2.0840998e-05
0.00072689484
2.0380201e-05
0.00072242231
1.9955064e-05
0.00071807996
1.9570421e-05
0.00071385953
1.9235631e-05
0.0007097536
1.8934742e-05
0.00070575438
1.866965e-05
0.0007018549
1.842746e-05
0.00069804844
1.8205708e-05
0.0006943287
1.7999908e-05
0.00069069011
1.780357e-05
0.00068712708
1.7620589e-05
0.00068363472
1.7444038e-05
0.00068020824
1.7277222e-05
0.00067684097
1.713192e-05
0.00067353128
1.6979185e-05
0.00067025762
1.6953058e-05
0.00066704868
1.6697784e-05
0.00066379985
1.7067652e-05
0.00066061056
1.7707396e-05
0.00065682062
1.866969e-05
2.0067684e-05
0.0010588102
6.4621647e-05
-0.0010564697
0.0010627556
7.8763944e-05
0.0010675826
8.9670902e-05
0.0010724652
9.5705415e-05
0.001076712
9.6865335e-05
0.0010798804
9.4109896e-05
0.0010819176
8.9121819e-05
0.0010830872
8.3723134e-05
0.0010837269
7.9077788e-05
0.0010840967
7.5514173e-05
0.0010843447
7.2870179e-05
0.0010845404
7.0879934e-05
0.001084716
6.9348874e-05
0.0010848744
6.8124495e-05
0.0010850138
6.7114495e-05
0.0010851381
6.6286479e-05
0.0010852509
6.5616664e-05
0.0010853482
6.506768e-05
0.0010854304
6.4624222e-05
0.0010855006
6.4282566e-05
0.0010855637
6.4025458e-05
0.0010856154
6.3829151e-05
0.0010856412
6.3692704e-05
0.0010856396
6.3616094e-05
0.0010856099
6.358601e-05
0.0010855408
6.3588719e-05
0.0010854213
6.3614551e-05
0.0010852364
6.3664442e-05
0.0010849661
6.3731374e-05
0.0010845893
6.3799213e-05
0.0010840794
6.3860678e-05
0.0010834013
6.3905251e-05
0.0010825212
6.3920833e-05
0.0010814134
6.3894378e-05
0.0010800445
6.3813889e-05
0.0010783874
6.3655864e-05
0.0010764296
6.3404395e-05
0.0010741539
6.3051905e-05
0.0010715421
6.2574603e-05
0.0010685733
6.1952418e-05
0.0010652248
6.117516e-05
0.0010614721
6.0225105e-05
0.001057289
5.9072235e-05
0.0010526464
5.7700436e-05
0.0010475067
5.6098653e-05
0.0010418491
5.4267049e-05
0.0010356826
5.2222172e-05
0.0010290242
5.000823e-05
0.001021892
4.7682975e-05
0.0010143098
4.5292978e-05
0.0010063129
4.2892245e-05
0.00099795315
4.055277e-05
0.00098929873
3.8364858e-05
0.00098041128
3.6405552e-05
0.0009713831
3.4738109e-05
0.00096240748
3.3512146e-05
0.00095362298
3.2876682e-05
0.00094502969
3.2831182e-05
0.00093660862
3.3282437e-05
0.00092829456
3.3935244e-05
0.00092000292
3.465687e-05
0.00091173411
3.52961e-05
0.00090353898
3.5726301e-05
0.0008954361
3.5935642e-05
0.00088743197
3.5936207e-05
0.00087955053
3.5739288e-05
0.00087181869
3.5351743e-05
0.00086424836
3.4822006e-05
0.00085684633
3.4188179e-05
0.00084962342
3.3468963e-05
0.00084258829
3.2684268e-05
0.00083574366
3.1863313e-05
0.00082909096
3.1017955e-05
0.00082263074
3.0161978e-05
0.00081635992
2.9323787e-05
0.00081027515
2.8512207e-05
0.00080437331
2.7756659e-05
0.00079865043
2.7059652e-05
0.00079310271
2.6388721e-05
0.00078772515
2.5757761e-05
0.00078251273
2.516748e-05
0.00077745932
2.4623829e-05
0.00077255711
2.4137847e-05
0.00076779868
2.3693174e-05
0.00076317573
2.3292591e-05
0.00075868057
2.2922623e-05
0.00075430543
2.2580845e-05
0.00075004282
2.2262517e-05
0.0007458858
2.1960594e-05
0.00074182731
2.1679084e-05
0.00073786095
2.1410397e-05
0.00073398046
2.1157714e-05
0.0007301778
2.093457e-05
0.00072644999
2.0706999e-05
0.00072277421
2.0628843e-05
0.00071917712
2.0294869e-05
0.00071555086
2.0693914e-05
0.00071201441
2.1243843e-05
0.00070779711
2.2886991e-05
2.3340656e-05
0.0010954951
6.2427292e-05
-0.0010933007
0.0010991215
7.5137529e-05
0.0011035854
8.5207004e-05
0.00110815
9.1140816e-05
0.0011121951
9.2820269e-05
0.0011153132
9.0991723e-05
0.0011174186
8.7016436e-05
0.0011187087
8.2433086e-05
0.0011194721
7.8314346e-05
0.001119945
7.5041313e-05
0.0011202705
7.2544658e-05
0.0011205218
7.0628601e-05
0.0011207359
6.9134766e-05
0.0011209234
6.7937026e-05
0.0011210868
6.6951095e-05
0.0011212319
6.6141415e-05
0.0011213636
6.5484904e-05
0.0011214821
6.494921e-05
0.0011215892
6.451716e-05
0.0011216884
6.418332e-05
0.001121781
6.3932905e-05
0.0011218642
6.3745886e-05
0.0011219384
6.361852e-05
0.0011220053
6.3549181e-05
0.0011220643
6.3526981e-05
0.0011221187
6.3534395e-05
0.0011221578
6.3575384e-05
0.0011221721
6.3650188e-05
0.0011221643
6.3739162e-05
0.0011221265
6.383701e-05
0.0011220504
6.3936829e-05
0.0011219239
6.4031718e-05
0.0011217305
6.4114187e-05
0.001121454
6.4170865e-05
0.0011210718
6.4196134e-05
0.0011205554
6.4172222e-05
0.001119879
6.4080809e-05
0.0011190187
6.3912218e-05
0.0011179433
6.3650031e-05
0.0011166271
6.3268638e-05
0.0011150528
6.2749388e-05
0.001113194
6.2083923e-05
0.00111102
6.1246302e-05
0.0011084969
6.0223537e-05
0.0011055841
5.9011412e-05
0.0011022353
5.7615834e-05
0.0010984078
5.6049692e-05
0.0010940668
5.4349179e-05
0.0010891816
5.256819e-05
0.0010837261
5.0748473e-05