/*--------------------------------*- C++ -*----------------------------------*\
| =========                 |                                                 |
| \\      /  F ield         | OpenFOAM: The Open Source CFD Toolbox           |
|  \\    /   O peration     | Version:  2206                                  |
|   \\  /    A nd           | Website:  www.openfoam.com                      |
|    \\/     M anipulation  |                                                 |
\*---------------------------------------------------------------------------*/
FoamFile
{
    version     2.0;
    format      ascii;
    arch        "LSB;label=32;scalar=64";
    class       volVectorField;
    location    "1200";
    object      U;
}
// * * * * * * * * * * * * * * * * * * * * * * * * * * * * * * * * * * * * * //

dimensions      [0 1 -1 0 0 0 0];

internalField   nonuniform List<vector> 
7480
(
(0.82752644 0.01116733 0)
(0.70298004 0.02021165 0)
(0.5665324 0.02142587 0)
(0.43051718 0.014558962 0)
(0.33053183 0.0062892278 0)
(0.26656789 0.0019062557 0)
(0.23005541 0.002223163 0)
(0.2085198 -0.00029247669 0)
(0.19445931 -0.00043102475 0)
(0.18412895 -0.00017582086 0)
(0.17530401 7.6343933e-07 0)
(0.16711457 5.3898003e-05 0)
(0.15954294 6.4603477e-05 0)
(0.15264154 6.6566847e-05 0)
(0.14635361 0.00023566722 0)
(0.1406135 0.00017940369 0)
(0.13537947 5.7789573e-05 0)
(0.13059565 4.9402171e-05 0)
(0.12617016 4.6130922e-05 0)
(0.1220554 4.1734776e-05 0)
(0.11823111 3.7972276e-05 0)
(0.1146615 3.57264e-05 0)
(0.11130982 3.3278188e-05 0)
(0.10815812 3.0449157e-05 0)
(0.10519373 2.8026857e-05 0)
(0.10239646 2.6254168e-05 0)
(0.099747025 2.4428074e-05 0)
(0.097236236 2.2466483e-05 0)
(0.09485749 2.0763358e-05 0)
(0.092599806 1.935235e-05 0)
(0.090453561 1.7912996e-05 0)
(0.088414579 1.6444217e-05 0)
(0.086479202 1.5136651e-05 0)
(0.084641548 1.3963155e-05 0)
(0.082897049 1.2791748e-05 0)
(0.081244064 1.1636302e-05 0)
(0.079681062 1.0572916e-05 0)
(0.078206109 9.5561188e-06 0)
(0.076819067 8.532705e-06 0)
(0.075521856 7.5210182e-06 0)
(0.074316437 6.5640517e-06 0)
(0.073204312 5.6446519e-06 0)
(0.072188766 4.721959e-06 0)
(0.071273306 3.8193563e-06 0)
(0.070461442 1.4589234e-05 0)
(0.069767654 4.6752082e-06 0)
(0.069195497 3.1956842e-06 0)
(0.068761169 1.4199912e-06 0)
(0.068464036 5.7393975e-08 0)
(0.068302481 -1.0441975e-06 0)
(0.068273342 -2.0567002e-06 0)
(0.068370184 -2.7678354e-06 0)
(0.068582191 -3.240466e-06 0)
(0.068887203 -3.3952805e-06 0)
(0.069263501 -3.5047505e-06 0)
(0.069699287 -3.608953e-06 0)
(0.070165357 -3.2997436e-06 0)
(0.070613632 -2.8814767e-06 0)
(0.071000522 -2.3725275e-06 0)
(0.071283737 -5.7934371e-07 0)
(0.071460985 7.3480734e-07 0)
(0.071532338 -1.1837039e-07 0)
(0.071505893 1.7264084e-07 0)
(0.071397299 2.5669786e-07 0)
(0.071224155 3.0083808e-07 0)
(0.071002453 3.2659792e-07 0)
(0.070746479 3.2932513e-07 0)
(0.070467841 3.2548822e-07 0)
(0.070174864 3.139166e-07 0)
(0.069873803 2.9682271e-07 0)
(0.069569535 2.7630041e-07 0)
(0.069264933 2.6228348e-07 0)
(0.068961773 2.47597e-07 0)
(0.068662082 2.3029851e-07 0)
(0.068366349 2.2447497e-07 0)
(0.068074925 2.1326563e-07 0)
(0.067788258 2.2265365e-07 0)
(0.067496869 2.5137763e-07 0)
(0.067200587 2.5745989e-07 0)
(0.066902091 2.6263173e-07 0)
(0.066602533 2.6105223e-07 0)
(0.066302546 2.5820467e-07 0)
(0.066000825 2.6392137e-07 0)
(0.065696779 2.6089044e-07 0)
(0.065390158 2.6345135e-07 0)
(0.065080695 2.6160265e-07 0)
(0.064768743 2.6017104e-07 0)
(0.064454266 2.5911551e-07 0)
(0.064137852 2.5467751e-07 0)
(0.063819594 2.5402203e-07 0)
(0.063499892 2.4864506e-07 0)
(0.063178831 2.478497e-07 0)
(0.062857067 2.4205671e-07 0)
(0.062532502 2.4876794e-07 0)
(0.062211087 2.25906e-07 0)
(0.061870681 3.2329353e-07 0)
(0.061577296 7.0397496e-07 0)
(0.061138548 1.1236077e-05 0)
(0.060897826 1.9158242e-05 0)
(0.060225917 5.0421097e-06 0)
(0.95864464 0.028029605 0)
(0.94940864 0.03858652 0)
(0.93028217 0.041834084 0)
(0.88510803 0.039311091 0)
(0.82439345 0.032446867 0)
(0.75682785 0.023949185 0)
(0.69436049 0.015507086 0)
(0.64137944 0.009402771 0)
(0.59775099 0.0060303514 0)
(0.56169583 0.004363901 0)
(0.53120622 0.0035604097 0)
(0.50474915 0.0030822455 0)
(0.4814101 0.0027039231 0)
(0.46056796 0.002389848 0)
(0.44173474 0.0021284404 0)
(0.42458919 0.0018784736 0)
(0.40892599 0.001660287 0)
(0.39453634 0.0014829595 0)
(0.38122748 0.0013355386 0)
(0.36886432 0.0012044931 0)
(0.3573526 0.0010883694 0)
(0.34659605 0.0009894619 0)
(0.33650575 0.00090249213 0)
(0.32701884 0.00082361236 0)
(0.31808137 0.00075307123 0)
(0.30964154 0.00069128184 0)
(0.30165208 0.0006356004 0)
(0.29408016 0.00058413343 0)
(0.28690026 0.00053723145 0)
(0.28008432 0.00049503632 0)
(0.27360718 0.00045620698 0)
(0.26745245 0.00041991413 0)
(0.26160703 0.0003863914 0)
(0.25605657 0.00035554578 0)
(0.25078909 0.00032668484 0)
(0.245798 0.0002994281 0)
(0.24107881 0.00027381426 0)
(0.23662797 0.00024958303 0)
(0.23244557 0.00022629426 0)
(0.22853635 0.00020375073 0)
(0.22490695 0.00018200103 0)
(0.22156459 0.00016092319 0)
(0.21852005 0.00014023662 0)
(0.21578641 0.00012005502 0)
(0.21337925 0.00010195775 0)
(0.21133867 0.00010030685 0)
(0.20965143 5.5668212e-05 0)
(0.20837822 3.6688171e-05 0)
(0.20751407 1.7543941e-05 0)
(0.20704962 2.774452e-08 0)
(0.20697141 -1.5571459e-05 0)
(0.20725617 -2.9112206e-05 0)
(0.20786844 -3.9913791e-05 0)
(0.2087465 -4.724522e-05 0)
(0.20982618 -5.2113682e-05 0)
(0.21105465 -5.4612228e-05 0)
(0.21234084 -5.254814e-05 0)
(0.21355678 -4.5853815e-05 0)
(0.21458711 -3.7941609e-05 0)
(0.21532574 -2.6968161e-05 0)
(0.21576587 -1.5614655e-05 0)
(0.21591317 -5.7992193e-06 0)
(0.21578819 2.3085954e-06 0)
(0.21543386 8.4296932e-06 0)
(0.21489778 1.2766687e-05 0)
(0.21422496 1.5642824e-05 0)
(0.21345472 1.7320742e-05 0)
(0.21261913 1.8174996e-05 0)
(0.21174214 1.8453141e-05 0)
(0.21084163 1.832633e-05 0)
(0.20993131 1.7932044e-05 0)
(0.2090197 1.7409808e-05 0)
(0.20811246 1.678779e-05 0)
(0.20721509 1.6099883e-05 0)
(0.20632953 1.5441958e-05 0)
(0.20545674 1.4779004e-05 0)
(0.20459656 1.4451593e-05 0)
(0.20372148 1.4438152e-05 0)
(0.20283279 1.4256759e-05 0)
(0.20193855 1.3964283e-05 0)
(0.20104162 1.3621164e-05 0)
(0.20014277 1.3292656e-05 0)
(0.19923891 1.3032532e-05 0)
(0.19832835 1.2766466e-05 0)
(0.19741015 1.2529668e-05 0)
(0.19648382 1.228023e-05 0)
(0.19555011 1.2028146e-05 0)
(0.19460922 1.1771173e-05 0)
(0.19366268 1.1494721e-05 0)
(0.19271102 1.1226457e-05 0)
(0.19175542 1.0939351e-05 0)
(0.1907963 1.0661942e-05 0)
(0.18983546 1.0386309e-05 0)
(0.18886849 1.0121535e-05 0)
(0.18790836 9.9108463e-06 0)
(0.18690596 9.6248037e-06 0)
(0.18600627 1.1743843e-05 0)
(0.18477472 3.9483984e-05 0)
(0.18403318 6.5285464e-05 0)
(0.18205787 3.3703202e-05 0)
(0.96799011 0.029707459 0)
(0.97307785 0.037720572 0)
(0.98236692 0.041542577 0)
(0.98422655 0.041013525 0)
(0.97935355 0.037121135 0)
(0.96360418 0.030577937 0)
(0.93923605 0.024144569 0)
(0.91008527 0.019117884 0)
(0.87832349 0.015501076 0)
(0.84612404 0.012897765 0)
(0.81512347 0.010957653 0)
(0.78572052 0.0094046137 0)
(0.7579843 0.0081186326 0)
(0.7318324 0.0070811142 0)
(0.7071608 0.006235212 0)
(0.68391458 0.0055152271 0)
(0.6620572 0.0048995114 0)
(0.64149572 0.0043848761 0)
(0.62211761 0.003945536 0)
(0.6038347 0.0035582928 0)
(0.58657585 0.0032171005 0)
(0.57025823 0.0029220465 0)
(0.55480142 0.0026627793 0)
(0.54014274 0.0024302736 0)
(0.52623007 0.0022224534 0)
(0.51300732 0.0020387489 0)
(0.50042211 0.0018737517 0)
(0.48843482 0.0017229954 0)
(0.47701268 0.0015857343 0)
(0.46612197 0.0014614215 0)
(0.45573292 0.0013473472 0)
(0.44582434 0.0012414793 0)
(0.43637904 0.0011435731 0)
(0.42738001 0.0010531092 0)
(0.41881366 0.00096863362 0)
(0.41067242 0.00088910919 0)
(0.40295236 0.00081423017 0)
(0.39565182 0.00074329481 0)
(0.38877363 0.00067529446 0)
(0.38232622 0.00060962471 0)
(0.37632136 0.00054615586 0)
(0.37077304 0.00048453645 0)
(0.36570009 0.00042415356 0)
(0.3611248 0.0003650512 0)
(0.35707217 0.00030490909 0)
(0.353594 0.00028647819 0)
(0.35068946 0.00018705738 0)
(0.34840999 0.00012843563 0)
(0.34674987 7.4267336e-05 0)
(0.34569098 2.4149388e-05 0)
(0.34520676 -2.0704608e-05 0)
(0.3452535 -5.9446673e-05 0)
(0.34577441 -9.0606458e-05 0)
(0.34667937 -0.00011261125 0)
(0.34787567 -0.00012708459 0)
(0.34927243 -0.00013394319 0)
(0.35072854 -0.00012958097 0)
(0.3520677 -0.00011326893 0)
(0.35314163 -8.653753e-05 0)
(0.35382901 -5.9934426e-05 0)
(0.35411057 -3.0412558e-05 0)
(0.35399995 -4.7870205e-06 0)
(0.3535266 1.596955e-05 0)
(0.35274895 3.2087995e-05 0)
(0.35173076 4.3579516e-05 0)
(0.35053171 5.1214112e-05 0)
(0.34920408 5.5688531e-05 0)
(0.34779094 5.7880475e-05 0)
(0.34632534 5.8449499e-05 0)
(0.34483221 5.7878178e-05 0)
(0.34333049 5.6553378e-05 0)
(0.34183229 5.4830488e-05 0)
(0.34034609 5.2823071e-05 0)
(0.33887949 5.0639453e-05 0)
(0.33743558 4.8502381e-05 0)
(0.33601551 4.6391842e-05 0)
(0.33461759 4.5174858e-05 0)
(0.33320178 4.4768991e-05 0)
(0.33177552 4.3984463e-05 0)
(0.33034848 4.2922829e-05 0)
(0.32892221 4.1776619e-05 0)
(0.32749614 4.0698194e-05 0)
(0.32606589 3.9794643e-05 0)
(0.32462862 3.8921843e-05 0)
(0.32318248 3.8125454e-05 0)
(0.32172654 3.731784e-05 0)
(0.32026139 3.6507905e-05 0)
(0.31878729 3.5686481e-05 0)
(0.31730606 3.4824784e-05 0)
(0.31581851 3.397442e-05 0)
(0.31432614 3.3088835e-05 0)
(0.31282961 3.2216234e-05 0)
(0.31133134 3.1362777e-05 0)
(0.30982594 3.0507787e-05 0)
(0.30832912 2.9884849e-05 0)
(0.30678087 2.8851651e-05 0)
(0.30535869 3.1723803e-05 0)
(0.30351823 7.195866e-05 0)
(0.30231503 0.00011355093 0)
(0.29932007 5.181351e-05 0)
(0.97002562 0.027083557 0)
(0.9763754 0.034265408 0)
(0.98543278 0.038379245 0)
(0.99339861 0.039212806 0)
(1.0016014 0.036175806 0)
(1.0024878 0.031201305 0)
(0.99953006 0.026294405 0)
(0.99329145 0.022248656 0)
(0.98416277 0.019369444 0)
(0.97247127 0.017347371 0)
(0.95864623 0.015776825 0)
(0.94308527 0.014350206 0)
(0.92566482 0.013014907 0)
(0.90731957 0.011780704 0)
(0.88850294 0.010669914 0)
(0.86950069 0.0096639783 0)
(0.85051486 0.0087602339 0)
(0.83166964 0.0079705631 0)
(0.81305504 0.007274725 0)
(0.79476347 0.0066464906 0)
(0.77687514 0.0060786142 0)
(0.75943511 0.0055727024 0)
(0.74246747 0.00511754 0)
(0.72599248 0.0047027728 0)
(0.71002845 0.0043263587 0)
(0.69457733 0.0039878954 0)
(0.6796334 0.0036805618 0)
(0.66519366 0.0033982505 0)
(0.65125424 0.0031395345 0)
(0.63780537 0.0029032402 0)
(0.62483704 0.0026852883 0)
(0.61234374 0.0024824769 0)
(0.60032113 0.0022940207 0)
(0.58876369 0.002118835 0)
(0.57766834 0.0019545848 0)
(0.56703744 0.0017994774 0)
(0.5568769 0.0016528495 0)
(0.54719268 0.0015135583 0)
(0.53799356 0.0013799336 0)
(0.52929312 0.001250875 0)
(0.52110847 0.0011259875 0)
(0.51345939 0.0010046075 0)
(0.50637061 0.0008857572 0)
(0.49986977 0.00076931151 0)
(0.49398906 0.00065144945 0)
(0.48877858 0.00059741684 0)
(0.48423654 0.00042514627 0)
(0.48038977 0.00031189542 0)
(0.47722384 0.00020948886 0)
(0.47471623 0.00011548634 0)
(0.47283585 3.1289181e-05 0)
(0.47153679 -4.1422148e-05 0)
(0.47075297 -0.00010008874 0)
(0.47038842 -0.00014247526 0)
(0.47035598 -0.00017128635 0)
(0.47054661 -0.00018593812 0)
(0.47079472 -0.00017834933 0)
(0.47092661 -0.0001518264 0)
(0.47082115 -0.00010464041 0)
(0.47038606 -6.0459379e-05 0)
(0.46960971 -1.4866869e-05 0)
(0.46850702 2.6400923e-05 0)
(0.46710868 6.0215656e-05 0)
(0.46546405 8.6058462e-05 0)
(0.46362576 0.00010424007 0)
(0.46164393 0.00011598434 0)
(0.4595637 0.00012244519 0)
(0.45742347 0.0001250281 0)
(0.45525363 0.0001248322 0)
(0.45307765 0.00012268752 0)
(0.4509135 0.00011927048 0)
(0.4487727 0.00011516394 0)
(0.44666411 0.00011057726 0)
(0.44459526 0.00010572429 0)
(0.442569 0.00010097306 0)
(0.44058585 9.6371452e-05 0)
(0.43864165 9.2938449e-05 0)
(0.43672784 9.0717726e-05 0)
(0.43483739 8.8343452e-05 0)
(0.43296596 8.5788648e-05 0)
(0.43110943 8.3229836e-05 0)
(0.42926487 8.0858301e-05 0)
(0.42742682 7.8818041e-05 0)
(0.42559111 7.6895306e-05 0)
(0.42375471 7.5132434e-05 0)
(0.42191566 7.3389845e-05 0)
(0.42007365 7.1667083e-05 0)
(0.41822828 6.9942165e-05 0)
(0.41638073 6.8169883e-05 0)
(0.41453144 6.6422077e-05 0)
(0.41268139 6.4634979e-05 0)
(0.41083101 6.2868695e-05 0)
(0.4089825 6.1156912e-05 0)
(0.40712987 5.9422488e-05 0)
(0.40528932 5.8187192e-05 0)
(0.40339736 5.6009684e-05 0)
(0.40163708 5.9686753e-05 0)
(0.399453 0.00010674851 0)
(0.39791875 0.00015575476 0)
(0.39438364 7.9689463e-05 0)
(0.97238019 0.025563238 0)
(0.97773909 0.032400276 0)
(0.98582812 0.036408099 0)
(0.99413516 0.037069563 0)
(1.0012157 0.034669034 0)
(1.0055675 0.030635415 0)
(1.0079051 0.026373089 0)
(1.0070557 0.022759143 0)
(1.0052477 0.020143309 0)
(1.0027394 0.01835495 0)
(0.99953244 0.017018465 0)
(0.99552702 0.015924819 0)
(0.99023379 0.014972652 0)
(0.98356234 0.014080005 0)
(0.97552733 0.01322706 0)
(0.96625248 0.01237413 0)
(0.95563751 0.01153788 0)
(0.94413418 0.010747224 0)
(0.9319389 0.010009921 0)
(0.91919445 0.0093175924 0)
(0.90601704 0.0086713343 0)
(0.89250952 0.0080774832 0)
(0.87874909 0.0075277274 0)
(0.86482185 0.0070122895 0)
(0.85081213 0.0065306776 0)
(0.83678806 0.0060851398 0)
(0.82280775 0.005670233 0)
(0.80892586 0.0052809272 0)
(0.79518979 0.0049173269 0)
(0.78163605 0.0045794315 0)
(0.76829586 0.0042632829 0)
(0.75519995 0.0039656552 0)
(0.74237603 0.0036859921 0)
(0.72984758 0.0034231282 0)
(0.71763798 0.0031741635 0)
(0.70577504 0.0029368099 0)
(0.69428744 0.0027107106 0)
(0.68319214 0.002494939 0)
(0.67250764 0.0022873578 0)
(0.66225742 0.0020863164 0)
(0.65246806 0.0018910845 0)
(0.64316801 0.0017006778 0)
(0.63438966 0.0015137728 0)
(0.62616666 0.001330027 0)
(0.61854553 0.0011481867 0)
(0.61154889 0.00096654692 0)
(0.60517631 0.00078996698 0)
(0.59941969 0.00062347304 0)
(0.5942735 0.00046657573 0)
(0.58972894 0.00032301869 0)
(0.58576641 0.00019455984 0)
(0.58235385 8.3286782e-05 0)
(0.57943383 -7.2626089e-06 0)
(0.57692375 -7.4699746e-05 0)
(0.57477113 -0.00012095995 0)
(0.57282601 -0.00014221031 0)
(0.57091094 -0.00013426948 0)
(0.56891325 -0.00010163362 0)
(0.56678895 -4.197581e-05 0)
(0.56449767 9.6412381e-06 0)
(0.56204556 6.4767238e-05 0)
(0.55944634 0.00011413543 0)
(0.55671553 0.00015407271 0)
(0.55387799 0.00018392511 0)
(0.55096106 0.00020412123 0)
(0.54799234 0.00021617619 0)
(0.54499835 0.00022151147 0)
(0.54200307 0.00022188088 0)
(0.53902638 0.00021868178 0)
(0.53608432 0.00021299711 0)
(0.53318925 0.00020572892 0)
(0.53034901 0.00019762114 0)
(0.52757087 0.0001889509 0)
(0.52486023 0.0001800385 0)
(0.5222182 0.00017138491 0)
(0.51964382 0.00016311674 0)
(0.51713117 0.00015639048 0)
(0.51468854 0.00015117848 0)
(0.51230483 0.00014600604 0)
(0.50996755 0.00014095412 0)
(0.50766768 0.00013614466 0)
(0.50539969 0.0001317371 0)
(0.50315691 0.00012788015 0)
(0.50093386 0.00012429108 0)
(0.49872627 0.00012099929 0)
(0.49653085 0.00011781176 0)
(0.49434597 0.00011471162 0)
(0.49217009 0.00011165839 0)
(0.49000316 0.00010858731 0)
(0.48784474 0.00010558325 0)
(0.4856948 0.00010256478 0)
(0.4835531 9.9596161e-05 0)
(0.48142106 9.674423e-05 0)
(0.47929199 9.3859364e-05 0)
(0.47718148 9.1792135e-05 0)
(0.47502558 8.8206311e-05 0)
(0.47300169 9.250056e-05 0)
(0.4705802 0.00014228386 0)
(0.46878386 0.00019617488 0)
(0.46489867 0.00014168305 0)
(0.97456795 0.024511751 0)
(0.97926069 0.030794446 0)
(0.98633256 0.034469124 0)
(0.99374433 0.035113219 0)
(1.0001401 0.033234122 0)
(1.0047658 0.029795031 0)
(1.0072581 0.025982539 0)
(1.0082439 0.02270065 0)
(1.0079203 0.020249594 0)
(1.0073671 0.018530586 0)
(1.0067367 0.017264444 0)
(1.0059795 0.016265779 0)
(1.0049482 0.015425577 0)
(1.0035285 0.014655792 0)
(1.0016066 0.013931478 0)
(0.99911667 0.013261025 0)
(0.99582275 0.01264023 0)
(0.99167145 0.012046188 0)
(0.98664777 0.011471508 0)
(0.98076596 0.010899608 0)
(0.97395991 0.01033151 0)
(0.96641945 0.0097849147 0)
(0.95823176 0.0092600594 0)
(0.9494616 0.0087547541 0)
(0.94016624 0.0082712691 0)
(0.9304019 0.0078127133 0)
(0.92022789 0.007374842 0)
(0.90970059 0.0069537158 0)
(0.89887712 0.0065506058 0)
(0.88781364 0.0061667452 0)
(0.87656455 0.0057991163 0)
(0.86518482 0.0054455859 0)
(0.85372688 0.005106998 0)
(0.84223744 0.0047831844 0)
(0.83076107 0.004471694 0)
(0.81934306 0.004170556 0)
(0.80802848 0.0038794948 0)
(0.796862 0.0035978874 0)
(0.78588725 0.0033241194 0)
(0.77514815 0.0030568099 0)
(0.76468835 0.0027953826 0)
(0.75455139 0.0025387861 0)
(0.74478375 0.0022856257 0)
(0.73543291 0.0020344663 0)
(0.72657412 0.0017874672 0)
(0.7181481 0.0015469824 0)
(0.71016539 0.0013123629 0)
(0.7026647 0.0010869554 0)
(0.69567312 0.00087528612 0)
(0.68920082 0.00068044852 0)
(0.68323837 0.00050527683 0)
(0.67775719 0.000353059 0)
(0.67270294 0.00022782501 0)
(0.6680215 0.00013022134 0)
(0.66371266 6.4509422e-05 0)
(0.65949749 3.4846374e-05 0)
(0.65524812 3.9223617e-05 0)
(0.65098772 6.8747852e-05 0)
(0.64675336 0.00012828051 0)
(0.64253616 0.00017512197 0)
(0.63834573 0.00022747949 0)
(0.63418838 0.00027399179 0)
(0.63006272 0.00031069045 0)
(0.62597159 0.00033683497 0)
(0.62192068 0.00035275308 0)
(0.61791757 0.00035999863 0)
(0.61397077 0.00036003117 0)
(0.61008928 0.00035473187 0)
(0.6062814 0.00034561096 0)
(0.6025543 0.00033385961 0)
(0.59891419 0.00032048619 0)
(0.59536552 0.00030635831 0)
(0.59191074 0.00029180179 0)
(0.58855178 0.00027718966 0)
(0.58528752 0.0002631224 0)
(0.58211523 0.00024979101 0)
(0.57902857 0.00023819978 0)
(0.57603002 0.00022834877 0)
(0.57311477 0.00021902269 0)
(0.57027242 0.00021031044 0)
(0.56749263 0.00020221078 0)
(0.56476821 0.00019482039 0)
(0.56209147 0.00018827455 0)
(0.5594559 0.00018222009 0)
(0.55685612 0.00017666638 0)
(0.5542876 0.00017136618 0)
(0.55174733 0.00016628033 0)
(0.54923243 0.00016134483 0)
(0.5467415 0.00015647118 0)
(0.54427286 0.00015174629 0)
(0.54182572 0.00014707139 0)
(0.53939861 0.00014251302 0)
(0.53699175 0.00013817115 0)
(0.5345976 0.00013380799 0)
(0.53223055 0.00013063086 0)
(0.52982766 0.00012535068 0)
(0.52755612 0.00012983155 0)
(0.52491965 0.00017964905 0)
(0.52288968 0.00023618655 0)
(0.51869561 0.00018955739 0)
(0.97653952 0.023526359 0)
(0.9807006 0.029152974 0)
(0.98695763 0.032517978 0)
(0.99357436 0.033276317 0)
(0.99938313 0.031815704 0)
(1.003696 0.028880965 0)
(1.0062422 0.025505167 0)
(1.0073966 0.022523605 0)
(1.007713 0.020237873 0)
(1.0076916 0.018573041 0)
(1.0075933 0.017319973 0)
(1.0074884 0.016319784 0)
(1.0073677 0.015485876 0)
(1.0071865 0.014746266 0)
(1.0068828 0.014072824 0)
(1.0064167 0.01346472 0)
(1.0057428 0.012911117 0)
(1.0048059 0.012388137 0)
(1.0035463 0.011891138 0)
(1.0019104 0.011424575 0)
(0.99976837 0.010984004 0)
(0.9970664 0.010556729 0)
(0.99377946 0.010137733 0)
(0.98988259 0.0097192797 0)
(0.98533193 0.0093031413 0)
(0.98020707 0.008897444 0)
(0.97453545 0.0085006788 0)
(0.96834247 0.0081113199 0)
(0.96165261 0.0077319186 0)
(0.95449105 0.0073638546 0)
(0.94688743 0.0070039614 0)
(0.93887778 0.0066502261 0)
(0.93049934 0.0063045337 0)
(0.92178093 0.005967354 0)
(0.91275987 0.0056362476 0)
(0.90347642 0.005309688 0)
(0.89397074 0.0049885421 0)
(0.88429002 0.0046728764 0)
(0.87448381 0.0043610795 0)
(0.86460336 0.0040520038 0)
(0.85470107 0.0037455644 0)
(0.84483061 0.0034411279 0)
(0.83504841 0.0031376053 0)
(0.82541476 0.002833784 0)
(0.81599267 0.0025305202 0)
(0.80682258 0.0022353402 0)
(0.79790997 0.0019515789 0)
(0.78928484 0.0016785852 0)
(0.78098161 0.0014199216 0)
(0.77302799 0.0011791292 0)
(0.76543705 0.0009601599 0)
(0.75820425 0.00076767267 0)
(0.7513034 0.00060617248 0)
(0.74472999 0.00047490491 0)
(0.73850599 0.00038033844 0)
(0.73243892 0.00033255921 0)
(0.72643304 0.00032663268 0)
(0.72050725 0.00034630817 0)
(0.71469068 0.00039452788 0)
(0.70897277 0.00043013784 0)
(0.70336825 0.0004712237 0)
(0.69788773 0.00050631454 0)
(0.6925274 0.00053213693 0)
(0.68728526 0.00054785611 0)
(0.68216255 0.00055364829 0)
(0.67715956 0.00055107996 0)
(0.67227582 0.00054155815 0)
(0.66751226 0.00052695166 0)
(0.66287027 0.00050876341 0)
(0.6583508 0.00048820569 0)
(0.65395519 0.00046630381 0)
(0.64968506 0.00044395327 0)
(0.64553929 0.00042149836 0)
(0.64151691 0.00039936066 0)
(0.63761472 0.00037820876 0)
(0.63382833 0.00035825746 0)
(0.63015135 0.00034041575 0)
(0.62658115 0.00032465111 0)
(0.62311476 0.00030986446 0)
(0.61974485 0.00029620547 0)
(0.61646217 0.00028360729 0)
(0.61325925 0.00027211189 0)
(0.61012795 0.00026183414 0)
(0.60706106 0.00025235027 0)
(0.60405236 0.00024364547 0)
(0.60109623 0.00023541836 0)
(0.59818838 0.00022760329 0)
(0.59532464 0.00022010821 0)
(0.59250223 0.00021281638 0)
(0.58971814 0.00020580974 0)
(0.58697052 0.00019896739 0)
(0.58425667 0.00019235237 0)
(0.58157546 0.0001860978 0)
(0.57891855 0.0001798674 0)
(0.57629873 0.00017523609 0)
(0.57365466 0.00016794619 0)
(0.57114244 0.00017216798 0)
(0.56829624 0.00022036647 0)
(0.56604983 0.00027874144 0)
(0.56156452 0.00023473483 0)
(0.97833887 0.022613488 0)
(0.98204166 0.027632555 0)
(0.98758647 0.030751562 0)
(0.99352586 0.031604694 0)
(0.9988325 0.030476978 0)
(1.0028685 0.027994136 0)
(1.005392 0.025028728 0)
(1.0066382 0.022316451 0)
(1.0071206 0.020162912 0)
(1.0072895 0.018544705 0)
(1.007381 0.017307205 0)
(1.0074612 0.016312964 0)
(1.0075253 0.015480353 0)
(1.0075947 0.01474624 0)
(1.0076343 0.014083749 0)
(1.0076204 0.013487201 0)
(1.0075622 0.01294761 0)
(1.0074429 0.012447476 0)
(1.0072374 0.011981591 0)
(1.006923 0.011551435 0)
(1.0064707 0.011149953 0)
(1.0058424 0.010765444 0)
(1.0049992 0.010395546 0)
(1.0038956 0.01004284 0)
(1.0024529 0.0097045572 0)
(1.0006291 0.0093742355 0)
(0.99839498 0.0090474237 0)
(0.99571237 0.0087198672 0)
(0.99255753 0.0083936011 0)
(0.988957 0.0080717744 0)
(0.98491259 0.0077526543 0)
(0.98042405 0.0074348531 0)
(0.9754943 0.0071197642 0)
(0.97013207 0.0068080135 0)
(0.96434652 0.0064974602 0)
(0.95815084 0.0061864876 0)
(0.9515596 0.0058757083 0)
(0.94459043 0.0055650405 0)
(0.93725842 0.0052529964 0)
(0.92958481 0.0049383959 0)
(0.92159889 0.0046211992 0)
(0.91333419 0.0043008943 0)
(0.90482798 0.0039763198 0)
(0.89612713 0.0036463419 0)
(0.88725953 0.0033135443 0)
(0.87836068 0.0029860151 0)
(0.86948136 0.0026660373 0)
(0.86063578 0.0023555842 0)
(0.85185268 0.002058806 0)
(0.84316986 0.0017795091 0)
(0.83462807 0.0015222227 0)
(0.82626666 0.0012925054 0)
(0.8181194 0.0010958472 0)
(0.81020843 0.00093150378 0)
(0.80252755 0.0008065591 0)
(0.79517191 0.00073660045 0)
(0.7880035 0.00071292482 0)
(0.78100133 0.00071472156 0)
(0.77412397 0.00074356469 0)
(0.76734263 0.00076361829 0)
(0.76068153 0.00078794345 0)
(0.75415508 0.00080639445 0)
(0.7477623 0.00081636428 0)
(0.74151167 0.00081680307 0)
(0.73541399 0.00080787135 0)
(0.72947102 0.00079132772 0)
(0.72368239 0.00076848235 0)
(0.71805015 0.00074113658 0)
(0.71257463 0.00071079948 0)
(0.70725421 0.00067866831 0)
(0.70208795 0.00064570229 0)
(0.69707585 0.0006128064 0)
(0.69221595 0.00058034879 0)
(0.68750589 0.00054875889 0)
(0.68294105 0.00051874676 0)
(0.67851575 0.00049051589 0)
(0.67422358 0.00046492765 0)
(0.67005949 0.00044188566 0)
(0.66602 0.00042028146 0)
(0.66209951 0.00040032686 0)
(0.65829034 0.00038192808 0)
(0.65458563 0.00036509365 0)
(0.65097728 0.0003499243 0)
(0.64745769 0.00033592955 0)
(0.64402001 0.00032306975 0)
(0.6406577 0.00031099052 0)
(0.63736532 0.00029959734 0)
(0.63413748 0.00028876665 0)
(0.63097 0.00027834952 0)
(0.62785859 0.00026841444 0)
(0.62479993 0.00025881522 0)
(0.62179015 0.00024960894 0)
(0.6188269 0.00024095702 0)
(0.61590095 0.00023241685 0)
(0.61302339 0.00022593167 0)
(0.61013445 0.0002162807 0)
(0.60737985 0.00021984902 0)
(0.60431847 0.00026548326 0)
(0.60186124 0.00032587543 0)
(0.5970837 0.00028153232 0)
(0.97998286 0.02177664 0)
(0.98329445 0.026247992 0)
(0.98820519 0.029131946 0)
(0.99353039 0.030040961 0)
(0.99837768 0.029192926 0)
(1.0021695 0.02711329 0)
(1.004662 0.024524688 0)
(1.0060073 0.022066953 0)
(1.0066175 0.020048694 0)
(1.0068913 0.018488103 0)
(1.0070607 0.017271552 0)
(1.0072068 0.01628443 0)
(1.0073436 0.015453389 0)
(1.0074738 0.014723754 0)
(1.007585 0.014068129 0)
(1.0076747 0.013476394 0)
(1.0077432 0.012939815 0)
(1.0078103 0.012444498 0)
(1.0078454 0.011986355 0)
(1.0078423 0.011564607 0)
(1.007809 0.0111728 0)
(1.0077332 0.010803049 0)
(1.0075985 0.010452569 0)
(1.0073883 0.01012212 0)
(1.0070822 0.0098080755 0)
(1.0066536 0.009504917 0)
(1.0060758 0.00921112 0)
(1.0053104 0.0089268702 0)
(1.0043076 0.0086502188 0)
(1.0030335 0.008377852 0)
(1.0014639 0.0081060165 0)
(0.9995542 0.0078318429 0)
(0.99729057 0.0075574234 0)
(0.99467638 0.0072838627 0)
(0.99170132 0.0070092299 0)
(0.98835296 0.0067320851 0)
(0.98462085 0.0064526895 0)
(0.98049548 0.0061704616 0)
(0.97597211 0.0058837185 0)
(0.97104715 0.0055914735 0)
(0.96571621 0.0052936111 0)
(0.95997522 0.0049893866 0)
(0.95382073 0.0046771877 0)
(0.94725479 0.0043565841 0)
(0.94026651 0.0040287541 0)
(0.93288874 0.0036973633 0)
(0.92520546 0.0033666751 0)
(0.91726378 0.0030419712 0)
(0.909103 0.0027285734 0)
(0.90076402 0.0024301712 0)
(0.89229518 0.0021511312 0)
(0.88375534 0.0018970187 0)
(0.87521469 0.0016731542 0)
(0.86672362 0.0014804397 0)
(0.85828091 0.0013256418 0)
(0.85008485 0.0012208819 0)
(0.84220017 0.0011645517 0)
(0.83455069 0.0011441787 0)
(0.82697523 0.0011530601 0)
(0.81948214 0.0011571288 0)
(0.81209468 0.0011637798 0)
(0.80480165 0.0011645889 0)
(0.79760992 0.0011568774 0)
(0.79054709 0.0011396268 0)
(0.7836305 0.0011134365 0)
(0.77686297 0.0010803265 0)
(0.77025334 0.0010414219 0)
(0.76381277 0.00099858595 0)
(0.75754357 0.00095350906 0)
(0.75144548 0.00090735007 0)
(0.74552041 0.00086096711 0)
(0.73976975 0.00081530264 0)
(0.73419175 0.00077075138 0)
(0.72878448 0.00072774158 0)
(0.72354357 0.00068702192 0)
(0.71846321 0.00064876702 0)
(0.71353774 0.00061379661 0)
(0.7087619 0.00058195113 0)
(0.70413176 0.00055206697 0)
(0.69964236 0.00052438943 0)
(0.69528743 0.0004988018 0)
(0.69106106 0.00047529705 0)
(0.6869556 0.00045397407 0)
(0.68296344 0.00043428252 0)
(0.67907732 0.00041616091 0)
(0.67529003 0.00039920392 0)
(0.67159516 0.00038328701 0)
(0.66798624 0.00036825285 0)
(0.66445784 0.00035391696 0)
(0.66100438 0.00034033033 0)
(0.65762114 0.00032731646 0)
(0.65430301 0.00031491909 0)
(0.6510464 0.00030332358 0)
(0.6478412 0.00029197603 0)
(0.64469676 0.00028318424 0)
(0.64155467 0.00027077615 0)
(0.63855151 0.0002733062 0)
(0.63526515 0.0003158062 0)
(0.63259576 0.00037895346 0)
(0.62751589 0.00033094471 0)
(0.98148463 0.021001778 0)
(0.98445942 0.024977025 0)
(0.98880962 0.027627732 0)
(0.99357752 0.028569881 0)
(0.99799878 0.027962391 0)
(1.0015533 0.026237772 0)
(1.0039984 0.023991798 0)
(1.0054242 0.0217795 0)
(1.006156 0.019902915 0)
(1.0065355 0.018410335 0)
(1.0067777 0.017222291 0)
(1.0069705 0.016246189 0)
(1.0071399 0.015418646 0)
(1.0072943 0.014692711 0)
(1.0074331 0.014041455 0)
(1.0075555 0.013453385 0)
(1.0076642 0.012919473 0)
(1.0077625 0.012428294 0)
(1.0078453 0.011974711 0)
(1.0079162 0.011555735 0)
(1.0079745 0.011166094 0)
(1.008032 0.010799175 0)
(1.0080713 0.010453474 0)
(1.0080799 0.010128928 0)
(1.0080672 0.0098216246 0)
(1.0080235 0.009528261 0)
(1.0079394 0.0092471519 0)
(1.0078011 0.0089770327 0)
(1.0075938 0.008716044 0)
(1.0072976 0.0084615283 0)
(1.0068934 0.0082126062 0)
(1.0063488 0.007968507 0)
(1.0056304 0.0077274901 0)
(1.0047112 0.0074876748 0)
(1.0035706 0.0072460513 0)
(1.0021651 0.0070004794 0)
(1.0004882 0.0067519545 0)
(0.99852477 0.0065005314 0)
(0.99625799 0.0062448794 0)
(0.9936694 0.0059835468 0)
(0.99073905 0.0057160496 0)
(0.98744521 0.00544174 0)
(0.98376421 0.005158876 0)
(0.97967086 0.0048671024 0)
(0.97513489 0.0045664093 0)
(0.97011889 0.0042589416 0)
(0.96462169 0.0039482572 0)
(0.95866041 0.0036387417 0)
(0.95224998 0.0033356289 0)
(0.94540879 0.0030427912 0)
(0.93816313 0.0027643462 0)
(0.93055228 0.0025052512 0)
(0.9226337 0.0022709374 0)
(0.9144767 0.0020649159 0)
(0.90612554 0.0018909849 0)
(0.8977102 0.0017592912 0)
(0.88946 0.0016727777 0)
(0.88139546 0.0016211134 0)
(0.87350767 0.0016025187 0)
(0.8657578 0.0015897234 0)
(0.85806336 0.0015817969 0)
(0.85036097 0.0015677168 0)
(0.8427084 0.0015430951 0)
(0.83514315 0.0015084577 0)
(0.8276622 0.0014650712 0)
(0.82028026 0.0014146022 0)
(0.81302792 0.0013582628 0)
(0.80592372 0.0012984258 0)
(0.7989714 0.0012369968 0)
(0.79217988 0.0011750011 0)
(0.78556038 0.0011132927 0)
(0.7791175 0.0010529993 0)
(0.77285187 0.00099452284 0)
(0.76676552 0.00093826723 0)
(0.7608571 0.00088506323 0)
(0.75512276 0.00083505509 0)
(0.7495597 0.00078901113 0)
(0.74416469 0.00074673965 0)
(0.73893427 0.00070702885 0)
(0.73386433 0.00067013016 0)
(0.72895005 0.00063589484 0)
(0.72418665 0.00060431328 0)
(0.71956733 0.00057549237 0)
(0.71508496 0.0005488302 0)
(0.71073225 0.00052425085 0)
(0.70650159 0.00050130068 0)
(0.70238598 0.00047982531 0)
(0.6983781 0.00045963307 0)
(0.69447146 0.0004405015 0)
(0.69065939 0.00042246127 0)
(0.68693586 0.000405301 0)
(0.68329456 0.00038904427 0)
(0.67973069 0.00037389506 0)
(0.67623326 0.00035918407 0)
(0.67280993 0.00034757829 0)
(0.66940337 0.00033196581 0)
(0.66614232 0.00033305301 0)
(0.66261884 0.00037199557 0)
(0.65973128 0.00043889554 0)
(0.65433371 0.00038407537 0)
(0.98285753 0.020277752 0)
(0.9855398 0.02380812 0)
(0.98939719 0.026234915 0)
(0.99366283 0.027194804 0)
(0.99769021 0.02679142 0)
(1.0010124 0.025375597 0)
(1.0033927 0.023439127 0)
(1.0048738 0.021460321 0)
(1.0057086 0.019726312 0)
(1.0061859 0.01830774 0)
(1.0065017 0.017154782 0)
(1.0067454 0.016195217 0)
(1.0069496 0.015375572 0)
(1.0071278 0.0146556 0)
(1.0072847 0.014009793 0)
(1.0074226 0.013425931 0)
(1.0075456 0.012895088 0)
(1.0076574 0.01240715 0)
(1.0077585 0.011956332 0)
(1.0078506 0.011539295 0)
(1.007936 0.01115117 0)
(1.0080157 0.010786511 0)
(1.0080863 0.010443543 0)
(1.0081494 0.010120905 0)
(1.0082058 0.0098155205 0)
(1.0082544 0.009523812 0)
(1.0083046 0.0092451249 0)
(1.0083247 0.0089792475 0)
(1.0083288 0.0087232394 0)
(1.0083101 0.0084755079 0)
(1.0082615 0.0082352869 0)
(1.0081729 0.008000749 0)
(1.0080323 0.0077703395 0)
(1.0078244 0.0075426471 0)
(1.0075349 0.0073174521 0)