/*--------------------------------*- C++ -*----------------------------------*\
| =========                 |                                                 |
| \\      /  F ield         | OpenFOAM: The Open Source CFD Toolbox           |
|  \\    /   O peration     | Version:  2206                                  |
|   \\  /    A nd           | Website:  www.openfoam.com                      |
|    \\/     M anipulation  |                                                 |
\*---------------------------------------------------------------------------*/
FoamFile
{
    version     2.0;
    format      ascii;
    arch        "LSB;label=32;scalar=64";
    class       volScalarField;
    location    "300";
    object      k;
}
// * * * * * * * * * * * * * * * * * * * * * * * * * * * * * * * * * * * * * //

dimensions      [0 2 -2 0 0 0 0];

internalField   nonuniform List<scalar> 
13056
(
0.00013157261
0.00012837758
0.00012806868
0.00012811008
0.00012813353
0.00012813985
0.000128142
0.00012814354
0.00012814514
0.00012814697
0.0001281491
0.00012815163
0.00012815466
0.00012815835
0.00012816291
0.00012816866
0.00012817615
0.00012818614
0.00012820087
0.0001282206
0.00012826884
0.00012826336
0.00012905679
9.173716e-05
3.2557948e-07
4.9804048e-08
2.5186051e-08
1.697413e-08
1.2970472e-08
1.0536902e-08
8.8926499e-09
7.6922203e-09
6.776065e-09
6.0539703e-09
5.4687465e-09
4.9841626e-09
4.576052e-09
4.2274689e-09
3.9261529e-09
3.6629803e-09
3.4310779e-09
3.2250637e-09
3.0408098e-09
2.8749995e-09
2.724945e-09
2.5884721e-09
2.4637834e-09
2.3493867e-09
2.2440321e-09
2.1466698e-09
2.0564047e-09
1.9724677e-09
1.8941996e-09
1.8210297e-09
1.7524624e-09
1.6880673e-09
1.6274651e-09
1.5703198e-09
1.5163356e-09
1.4652503e-09
1.4168298e-09
1.3708663e-09
1.3271762e-09
1.2855936e-09
1.2459672e-09
1.2081609e-09
1.1720532e-09
1.1375356e-09
1.1045093e-09
1.0728857e-09
1.0425872e-09
1.0135443e-09
9.8569571e-10
9.5898792e-10
9.3337426e-10
9.0881392e-10
8.8527211e-10
8.6272415e-10
8.4116026e-10
8.205812e-10
8.0099324e-10
7.8241028e-10
7.6485356e-10
7.4835194e-10
7.3295711e-10
7.1874215e-10
7.0581074e-10
6.9433787e-10
6.8450497e-10
6.7666136e-10
6.7099884e-10
6.6778281e-10
6.674516e-10
6.7039018e-10
6.7711243e-10
6.8811039e-10
7.0371709e-10
7.2399825e-10
7.4917223e-10
7.7919265e-10
8.1272875e-10
8.4715818e-10
8.8053539e-10
9.0919663e-10
9.342446e-10
9.5456329e-10
9.7087689e-10
9.8377235e-10
9.9381806e-10
1.0014437e-09
1.0069366e-09
1.0105725e-09
1.0124797e-09
1.0127175e-09
1.0114472e-09
1.0088475e-09
1.0051175e-09
1.0004955e-09
9.9514918e-10
9.8921106e-10
9.8284975e-10
9.7620195e-10
9.6934212e-10
9.623312e-10
9.552516e-10
9.4816693e-10
9.4109647e-10
9.3403917e-10
9.2700996e-10
9.2000134e-10
9.1306571e-10
9.0587627e-10
8.9901305e-10
8.9031624e-10
8.8334222e-10
8.7313593e-10
0.00013155924
0.00012836064
0.00012805139
0.00012809283
0.0001281163
0.00012812263
0.00012812478
0.00012812632
0.00012812792
0.00012812975
0.00012813188
0.00012813441
0.00012813744
0.00012814114
0.0001281457
0.00012815146
0.00012815895
0.00012816896
0.0001281837
0.00012820345
0.00012825174
0.0001282462
0.00012904068
9.1714271e-05
5.0635877e-08
7.6484521e-09
3.8678747e-09
2.6067732e-09
1.9919384e-09
1.6182195e-09
1.3657152e-09
1.1813677e-09
1.0406752e-09
9.2978428e-10
8.3991226e-10
7.6549526e-10
7.0282208e-10
6.4929039e-10
6.0301742e-10
5.6260205e-10
5.2698873e-10
4.9535113e-10
4.6705511e-10
4.4159149e-10
4.1854744e-10
3.975891e-10
3.7844044e-10
3.608723e-10
3.4469272e-10
3.2974049e-10
3.1587816e-10
3.0298762e-10
2.9096767e-10
2.7973074e-10
2.6920066e-10
2.5931134e-10
2.5000449e-10
2.4122852e-10
2.3293803e-10
2.2509272e-10
2.1765667e-10
2.1059797e-10
2.0388839e-10
1.9750251e-10
1.9141701e-10
1.8561105e-10
1.8006594e-10
1.7476496e-10
1.696929e-10
1.6483617e-10
1.6018327e-10
1.5572349e-10
1.5144721e-10
1.4734623e-10
1.434134e-10
1.3964245e-10
1.3602807e-10
1.3256648e-10
1.2925614e-10
1.2609698e-10
1.2308926e-10
1.2023636e-10
1.1754325e-10
1.1501284e-10
1.1265316e-10
1.1047562e-10
1.0849634e-10
1.0674229e-10
1.0524111e-10
1.040415e-10
1.0317652e-10
1.0270152e-10
1.0267402e-10
1.0315383e-10
1.0422071e-10
1.0595081e-10
1.0839525e-10
1.1156268e-10
1.1548237e-10
1.2013845e-10
1.2531603e-10
1.3061342e-10
1.3574974e-10
1.4017332e-10
1.4405112e-10
1.4720394e-10
1.497392e-10
1.5174613e-10
1.5331202e-10
1.5450301e-10
1.5536342e-10
1.5593576e-10
1.5623981e-10
1.562845e-10
1.5609456e-10
1.5569783e-10
1.5512536e-10
1.5441419e-10
1.5359045e-10
1.5267482e-10
1.5169342e-10
1.5066746e-10
1.4960855e-10
1.4852617e-10
1.4743304e-10
1.4633902e-10
1.4524715e-10
1.4415729e-10
1.4307177e-10
1.4198944e-10
1.4091833e-10
1.3980841e-10
1.3874837e-10
1.3740715e-10
1.363304e-10
1.3475443e-10
0.00013151662
0.00012830711
0.00012799678
0.00012803835
0.00012806189
0.00012806823
0.00012807039
0.00012807193
0.00012807354
0.00012807537
0.0001280775
0.00012808004
0.00012808308
0.00012808678
0.00012809135
0.00012809713
0.00012810464
0.00012811468
0.00012812946
0.00012814927
0.00012819774
0.00012819198
0.00012898957
9.16114e-05
1.7404679e-08
2.3862323e-09
1.2067125e-09
8.1327225e-10
6.2146461e-10
5.0487931e-10
4.2610818e-10
3.6859888e-10
3.2470813e-10
2.9011431e-10
2.6207763e-10
2.3886236e-10
2.1931076e-10
2.0261103e-10
1.8817579e-10
1.7556797e-10
1.6445821e-10
1.5458876e-10
1.4576174e-10
1.3781835e-10
1.3062983e-10
1.2409192e-10
1.1811856e-10
1.1263825e-10
1.0759107e-10
1.0292671e-10
9.8602235e-11
9.4580871e-11
9.0831336e-11
8.7326608e-11
8.4042766e-11
8.0958937e-11
7.8056919e-11
7.5320637e-11
7.2735938e-11
7.0290272e-11
6.7972444e-11
6.5772521e-11
6.3681716e-11
6.169208e-11
5.9796258e-11
5.7987752e-11
5.6260678e-11
5.4609639e-11
5.3029532e-11
5.1516234e-11
5.0068695e-11
4.8683419e-11
4.735622e-11
4.6084633e-11
4.4866566e-11
4.3700198e-11
4.2584099e-11
4.1517227e-11
4.0499057e-11
3.9528637e-11
3.8602263e-11
3.7727949e-11
3.6917588e-11
3.6163641e-11
3.5469689e-11
3.4840839e-11
3.4283997e-11
3.3809356e-11
3.3424714e-11
3.3125553e-11
3.2934149e-11
3.2952599e-11
3.3149378e-11
3.3550087e-11
3.4187563e-11
3.5092089e-11
3.6281635e-11
3.7753793e-11
3.9499684e-11
4.1466921e-11
4.352012e-11
4.5510556e-11
4.7405351e-11
4.9073494e-11
5.0565365e-11
5.1803404e-11
5.2814693e-11
5.3628962e-11
5.4277455e-11
5.4782714e-11
5.5160568e-11
5.5426178e-11
5.5585706e-11
5.5640503e-11
5.5598524e-11
5.5471576e-11
5.5273273e-11
5.5018836e-11
5.4719596e-11
5.4384643e-11
5.4024244e-11
5.3646645e-11
5.3256741e-11
5.2858417e-11
5.2456348e-11
5.2054167e-11
5.1653141e-11
5.1253465e-11
5.0855992e-11
5.0460552e-11
5.0069309e-11
4.96673e-11
4.928007e-11
4.8806503e-11
4.8416879e-11
4.7846002e-11
0.00013144341
0.00012821531
0.00012790312
0.00012794491
0.00012796857
0.00012797494
0.00012797711
0.00012797865
0.00012798026
0.00012798209
0.00012798424
0.00012798678
0.00012798983
0.00012799355
0.00012799814
0.00012800394
0.00012801149
0.00012802158
0.00012803644
0.00012805635
0.00012810512
0.00012809899
0.00012890183
9.1425986e-05
1.073536e-08
1.0533013e-09
5.3254119e-10
3.5889452e-10
2.7426675e-10
2.2283612e-10
1.8808651e-10
1.6271545e-10
1.4335219e-10
1.2809054e-10
1.1572182e-10
1.0548033e-10
9.685537e-11
8.9488808e-11
8.3121494e-11
7.7560642e-11
7.2660751e-11
6.8308062e-11
6.4415279e-11
6.0912459e-11
5.7742815e-11
5.4860104e-11
5.2226462e-11
4.9810336e-11
4.7585205e-11
4.5528779e-11
4.3621981e-11
4.1848769e-11
4.019617e-11
3.8653155e-11
3.7208708e-11
3.5852904e-11
3.4577664e-11
3.3375942e-11
3.224155e-11
3.1169005e-11
3.0153429e-11
2.91905e-11
2.82764e-11
2.7407611e-11
2.6580642e-11
2.5792659e-11
2.5040937e-11
2.432264e-11
2.3634543e-11
2.2975147e-11
2.2351067e-11
2.1760487e-11
2.1198321e-11
2.0663828e-11
2.0156581e-11
1.9676282e-11
1.9223089e-11
1.879716e-11
1.8398464e-11
1.8024562e-11
1.7664448e-11
1.7339288e-11
1.7082302e-11
1.6869366e-11
1.6705807e-11
1.6599315e-11
1.6559737e-11
1.6599042e-11
1.672325e-11
1.689341e-11
1.7143422e-11
1.7715383e-11
1.8498438e-11
1.952866e-11
2.0849516e-11
2.2500568e-11
2.4504904e-11
2.686238e-11
2.9547389e-11
3.2445801e-11
3.5330711e-11
3.7992749e-11
4.0372862e-11
4.2431706e-11
4.4218575e-11
4.5715363e-11
4.6961348e-11
4.7995204e-11
4.8850785e-11
4.9546603e-11
5.0097597e-11
5.0517731e-11
5.0809954e-11
5.0970126e-11
5.1003131e-11
5.0925316e-11
5.0756646e-11
5.0517062e-11
5.0222846e-11
4.9887384e-11
4.9522944e-11
4.9139091e-11
4.8742479e-11
4.8338162e-11
4.7930851e-11
4.7524205e-11
4.7119898e-11
4.6718787e-11
4.632174e-11
4.5929292e-11
4.5541377e-11
4.5152578e-11
4.4768665e-11
4.4346001e-11
4.3970405e-11
4.3418457e-11
0.00013133755
0.00012808256
0.00012776769
0.0001278098
0.00012783364
0.00012784005
0.00012784222
0.00012784377
0.00012784539
0.00012784723
0.00012784938
0.00012785194
0.000127855
0.00012785874
0.00012786336
0.0001278692
0.0001278768
0.00012788696
0.00012790194
0.00012792198
0.00012797118
0.00012796452
0.00012877491
9.1154259e-05
1.0602895e-08
5.6468036e-10
2.8521561e-10
1.9216952e-10
1.4688808e-10
1.1938931e-10
1.0080829e-10
8.7239566e-11
7.6883333e-11
6.8720971e-11
6.2106115e-11
5.6629416e-11
5.2017893e-11
4.8080021e-11
4.4677147e-11
4.1706254e-11
3.9089066e-11
3.6764546e-11
3.4686106e-11
3.2816536e-11
3.1125555e-11
2.9587927e-11
2.8183614e-11
2.6895719e-11
2.5709884e-11
2.4614024e-11
2.3597605e-11
2.2652391e-11
2.1773112e-11
2.0955701e-11
2.0193381e-11
1.9479419e-11
1.8809405e-11
1.8179686e-11
1.7587078e-11
1.7028787e-11
1.6502343e-11
1.6005581e-11
1.5536606e-11
1.5093583e-11
1.4674143e-11
1.4276866e-11
1.390015e-11
1.3541723e-11
1.3198109e-11
1.2869106e-11
1.2571629e-11
1.2304674e-11
1.2059585e-11
1.1836832e-11
1.1637443e-11
1.1462627e-11
1.1314396e-11
1.1194692e-11
1.1104844e-11
1.1041481e-11
1.0984668e-11
1.0973565e-11
1.1075956e-11
1.1247975e-11
1.1501795e-11
1.1855063e-11
1.2330608e-11
1.2956656e-11
1.3758021e-11
1.4706052e-11
1.5838128e-11
1.7506456e-11
1.9609518e-11
2.2227342e-11
2.5454066e-11
2.9375537e-11
3.4043069e-11
3.946412e-11
4.5583888e-11
5.2141913e-11
5.8633631e-11
6.4583007e-11
6.9780406e-11
7.4207675e-11
7.7963675e-11
8.1104647e-11
8.3733487e-11
8.5939109e-11
8.7790485e-11
8.931877e-11
9.0551956e-11
9.1515437e-11
9.2211325e-11
9.2625904e-11
9.2765366e-11
9.2665791e-11
9.2372081e-11
9.1927374e-11
9.136802e-11
9.0724148e-11
9.0021334e-11
8.9279241e-11
8.8512408e-11
8.7731732e-11
8.6946246e-11
8.6162961e-11
8.5385476e-11
8.461612e-11
8.3856567e-11
8.310858e-11
8.2369669e-11
8.163949e-11
8.0908297e-11
8.0153027e-11
7.9449048e-11
7.8412857e-11
0.00013119622
0.00012790526
0.00012758682
0.00012762935
0.00012765342
0.00012765989
0.00012766208
0.00012766363
0.00012766525
0.0001276671
0.00012766927
0.00012767184
0.00012767493
0.00012767869
0.00012768335
0.00012768924
0.00012769691
0.00012770716
0.00012772229
0.00012774251
0.00012779228
0.00012778492
0.00012860534
9.0791463e-05
1.3452261e-08
3.45725e-10
1.7404564e-10
1.1717074e-10
8.9623764e-11
7.2935686e-11
6.1656858e-11
5.341524e-11
4.7123629e-11
4.2164999e-11
3.8146923e-11
3.4821146e-11
3.202218e-11
2.9633738e-11
2.7571491e-11
2.5773026e-11
2.4189891e-11
2.2784572e-11
2.152901e-11
2.0400967e-11
1.9382234e-11
1.8456715e-11
1.7612561e-11
1.6839489e-11
1.6128499e-11
1.5472022e-11
1.4863029e-11
1.4296982e-11
1.3773377e-11
1.3292767e-11
1.2849732e-11
1.2437932e-11
1.2054575e-11
1.169767e-11
1.1365538e-11
1.1056753e-11
1.0770097e-11
1.0504553e-11
1.0259268e-11
1.0033371e-11
9.8246251e-12
9.6323896e-12
9.4557495e-12
9.2925421e-12
9.1384086e-12
8.9940833e-12
8.8889225e-12
8.8235936e-12
8.7848527e-12
8.7747854e-12
8.7966841e-12
8.8543844e-12
8.9530667e-12
9.0984052e-12
9.2959953e-12
9.5464002e-12
9.8299517e-12
1.0192061e-11
1.0733595e-11
1.1409941e-11
1.2247612e-11
1.328474e-11
1.457101e-11
1.6169018e-11
1.81435e-11
2.0494922e-11
2.3281386e-11
2.7050925e-11
3.1736149e-11
3.7509402e-11
4.457178e-11
5.310708e-11
6.3226664e-11
7.4954398e-11
8.8181916e-11
1.0236302e-10
1.1643464e-10
1.2936236e-10
1.406032e-10
1.5011701e-10
1.5811375e-10
1.647837e-10
1.7036815e-10
1.7506434e-10
1.7901875e-10
1.8229312e-10
1.8494592e-10
1.8702891e-10
1.8854419e-10
1.8946007e-10
1.8978777e-10
1.8960489e-10
1.8900838e-10
1.8809051e-10
1.8692958e-10
1.8559061e-10
1.8412778e-10
1.8258261e-10
1.8098619e-10
1.7936179e-10
1.7772812e-10
1.760997e-10
1.7448417e-10
1.7288673e-10
1.7131085e-10
1.697606e-10
1.6822946e-10
1.6672229e-10
1.6520729e-10
1.6367025e-10
1.6221803e-10
1.6007971e-10
0.0001310159
0.0001276789
0.00012735588
0.00012739894
0.00012742332
0.00012742986
0.00012743206
0.00012743362
0.00012743526
0.00012743712
0.0001274393
0.00012744189
0.000127445
0.0001274488
0.00012745351
0.00012745946
0.00012746722
0.0001274776
0.00012749291
0.00012751335
0.00012756386
0.00012755558
0.00012838878
9.0332128e-05
1.8491569e-08
2.3932661e-10
1.1944535e-10
8.0237938e-11
6.1484505e-11
5.0197594e-11
4.2564259e-11
3.6976556e-11
3.2708308e-11
2.9344289e-11
2.6618883e-11
2.4364578e-11
2.2469828e-11
2.0855915e-11
1.9465463e-11
1.8256438e-11
1.7194361e-11
1.6252995e-11
1.5413751e-11
1.4662181e-11
1.3986278e-11
1.3374207e-11
1.2818335e-11
1.231169e-11
1.1847825e-11
1.1421398e-11
1.102657e-11
1.0660677e-11
1.032691e-11
1.0029781e-11
9.7641989e-12
9.5230352e-12
9.3043212e-12
9.1071109e-12
8.930721e-12
8.7746695e-12
8.6386361e-12
8.5224698e-12
8.4261321e-12
8.3497963e-12
8.2909442e-12
8.2496205e-12
8.2260845e-12
8.2190799e-12
8.2244376e-12
8.2435198e-12
8.3135755e-12
8.4403009e-12
8.6087266e-12
8.8236088e-12
9.0920038e-12
9.4222132e-12
9.8248739e-12
1.031223e-11
1.0897648e-11
1.1589514e-11
1.2371613e-11
1.3299351e-11
1.4524065e-11
1.6005839e-11
1.7797341e-11
1.9973757e-11
2.2633403e-11
2.5901408e-11
2.9915551e-11
3.4734426e-11
4.0467794e-11
4.7989843e-11
5.7306432e-11
6.8758637e-11
8.2742472e-11
9.9620304e-11
1.1961299e-10
1.4277598e-10
1.6890807e-10
1.9695477e-10
2.248534e-10
2.5055379e-10
2.7287962e-10
2.9171326e-10
3.0746994e-10
3.2058645e-10
3.3156339e-10
3.4079804e-10
3.4857964e-10
3.5502606e-10
3.6025335e-10
3.6436185e-10
3.6735389e-10
3.6916574e-10
3.6981877e-10
3.6946636e-10
3.6830016e-10
3.6650212e-10
3.6422687e-10
3.6160282e-10
3.5873647e-10
3.5570928e-10
3.5258238e-10
3.4940161e-10
3.4620349e-10
3.4301626e-10
3.3985492e-10
3.3672977e-10
3.3364763e-10
3.306166e-10
3.2762321e-10
3.2467982e-10
3.2171826e-10
3.1872816e-10
3.1589268e-10
3.1171744e-10
0.00013079241
0.00012739806
0.00012706932
0.00012711306
0.00012713781
0.00012714444
0.00012714666
0.00012714824
0.00012714988
0.00012715176
0.00012715395
0.00012715657
0.00012715972
0.00012716356
0.00012716833
0.00012717436
0.00012718222
0.00012719275
0.00012720829
0.00012722902
0.00012728042
0.00012727102
0.00012812003
8.9770414e-05
2.5684721e-08
1.9237079e-10
9.4346369e-11
6.3092741e-11
4.8525612e-11
3.9879688e-11
3.4024091e-11
2.9720843e-11
2.6428752e-11
2.3833297e-11
2.1730875e-11
1.9994002e-11
1.8537988e-11
1.7302475e-11
1.6242974e-11
1.5327534e-11
1.4526972e-11
1.3819753e-11
1.3192266e-11
1.2634383e-11
1.2137402e-11
1.1691643e-11
1.129151e-11
1.0931721e-11
1.0607079e-11
1.0313535e-11
1.0044993e-11
9.7992277e-12
9.5817947e-12
9.4002678e-12
9.2502785e-12
9.1241629e-12
9.0205282e-12
8.939292e-12
8.8806542e-12
8.8450223e-12
8.832962e-12
8.8452255e-12
8.8826592e-12
8.9467835e-12
9.0342906e-12
9.1460439e-12
9.2840977e-12
9.4487442e-12
9.6364765e-12
9.8497119e-12
1.0135824e-11
1.0508491e-11
1.0951449e-11
1.1473894e-11
1.2089101e-11
1.2812803e-11
1.3664769e-11
1.4668289e-11
1.5849931e-11
1.72317e-11
1.8805058e-11
2.0643949e-11
2.2977847e-11
2.5778172e-11
2.9142388e-11
3.3208703e-11
3.8158197e-11
4.4222731e-11
5.1665961e-11
6.0655175e-11
7.140268e-11
8.5290398e-11
1.0247177e-10
1.2357694e-10
1.4933438e-10
1.8041089e-10
2.1721361e-10
2.5985441e-10
3.0797701e-10
3.5966845e-10
4.1117812e-10
4.5872553e-10
5.0002032e-10
5.3478162e-10
5.6377719e-10
5.8787833e-10
6.0803785e-10
6.2499738e-10
6.3929029e-10
6.511287e-10
6.6072938e-10
6.6827533e-10
6.7376861e-10
6.7709116e-10
6.7828243e-10
6.7762526e-10
6.7547279e-10
6.7216004e-10
6.6797167e-10
6.6314411e-10
6.5787302e-10
6.5230795e-10
6.4656105e-10
6.4071656e-10
6.3484136e-10
6.2898707e-10
6.2318108e-10
6.1744235e-10
6.1178337e-10
6.0621909e-10
6.0072427e-10
5.9532313e-10
5.898872e-10
5.8440719e-10
5.7920464e-10
5.7154438e-10
0.0001305209
0.00012705644
0.00012672071
0.00012676528
0.00012679048
0.00012679722
0.00012679947
0.00012680106
0.00012680271
0.00012680461
0.00012680683
0.00012680947
0.00012681266
0.00012681656
0.00012682139
0.00012682752
0.00012683552
0.00012684622
0.00012686205
0.00012688311
0.00012693559
0.00012692481
0.00012779305
8.91005e-05
3.5309841e-08
1.8630934e-10
8.9040307e-11
5.9136075e-11
4.5740194e-11
3.7967087e-11
3.2689972e-11
2.8785859e-11
2.5790411e-11
2.3426288e-11
2.151061e-11
1.9930357e-11
1.8610752e-11
1.7497579e-11
1.6550054e-11
1.5739755e-11
1.5036397e-11
1.4418505e-11
1.3874708e-11
1.3397218e-11
1.2978904e-11
1.2610696e-11
1.2287729e-11
1.2005385e-11
1.1758807e-11
1.1544685e-11
1.1355309e-11
1.1187927e-11
1.1050416e-11
1.0953815e-11
1.0894554e-11
1.0864092e-11
1.0861521e-11
1.0887688e-11
1.094381e-11
1.1031368e-11
1.1152037e-11
1.1307743e-11
1.1500513e-11
1.1733819e-11
1.2002902e-11
1.2309789e-11
1.2659348e-11
1.3054395e-11
1.3492723e-11
1.397876e-11
1.4574978e-11
1.5307035e-11
1.6157525e-11
1.7142902e-11
1.8286519e-11
1.9616183e-11
2.1166522e-11
2.297887e-11
2.5101507e-11
2.7579398e-11
3.0419462e-11
3.372671e-11
3.7847847e-11
4.2778379e-11
4.8689667e-11
5.5823178e-11
6.4495669e-11
7.511434e-11
8.8151632e-11
1.0396748e-10
1.2295972e-10
1.472734e-10
1.7733883e-10
2.1426266e-10
2.5931867e-10
3.1367266e-10
3.7803577e-10
4.5261577e-10
5.3680328e-10
6.2728128e-10
7.17548e-10
8.0098891e-10
8.7344646e-10
9.3434224e-10
9.8502565e-10
1.027104e-09
1.0622847e-09
1.0918779e-09
1.1168174e-09
1.137466e-09
1.1542098e-09
1.1673664e-09
1.1769359e-09
1.1827112e-09
1.1847624e-09
1.183585e-09
1.179797e-09
1.1739845e-09
1.1666453e-09
1.1581927e-09
1.1489684e-09
1.1392334e-09
1.1291831e-09
1.1189646e-09
1.1086944e-09
1.0984623e-09
1.0883158e-09
1.0782878e-09
1.0684003e-09
1.0586792e-09
1.0490801e-09
1.039646e-09
1.0301506e-09
1.0205835e-09
1.0114971e-09
9.9811943e-10
0.00013019588
0.00012664688
0.00012630272
0.00012634828
0.00012637404
0.0001263809
0.00012638318
0.00012638478
0.00012638646
0.00012638837
0.00012639062
0.0001263933
0.00012639654
0.0001264005
0.00012640542
0.00012641166
0.00012641981
0.00012643073
0.00012644689
0.00012646835
0.00012652212
0.00012650966
0.00012740093
8.8317027e-05
4.7847896e-08
2.1731264e-10
1.0117203e-10
6.6709224e-11
5.190691e-11
4.3534909e-11
3.7835296e-11
3.3585545e-11
3.031324e-11
2.7726561e-11
2.5628998e-11
2.3901061e-11
2.2464086e-11
2.1259836e-11
2.0243424e-11
1.9384565e-11
1.8645631e-11
1.8000847e-11
1.7439014e-11
1.6953341e-11
1.6536987e-11
1.6180133e-11
1.5877617e-11
1.5624663e-11
1.5415982e-11
1.5248649e-11
1.5111722e-11
1.5000961e-11
1.492712e-11
1.4905845e-11
1.4934471e-11
1.5003048e-11
1.5111193e-11
1.5260959e-11
1.5454935e-11
1.5696093e-11
1.5987677e-11
1.633331e-11
1.6736745e-11
1.7204418e-11
1.7729212e-11
1.8314918e-11
1.8970868e-11
1.9704018e-11
2.0514617e-11
2.1410727e-11
2.2477013e-11
2.3756984e-11
2.5232768e-11
2.6932486e-11
2.8895509e-11
3.1168875e-11
3.3810877e-11
3.6891671e-11
4.0494464e-11
4.4701992e-11
4.9550282e-11
5.5193606e-11
6.2150611e-11
7.0463984e-11
8.0423961e-11
9.2437071e-11
1.0703701e-10
1.2491181e-10
1.4687111e-10
1.7360214e-10
2.0582212e-10
2.4680244e-10
2.9746332e-10
3.5967715e-10
4.355896e-10
5.271634e-10
6.355926e-10
7.6124238e-10
9.0309646e-10
1.0555903e-09
1.2078411e-09
1.3487116e-09
1.4710143e-09
1.5736661e-09
1.6589519e-09
1.7296888e-09
1.7888074e-09
1.8385303e-09
1.8804305e-09
1.9151052e-09
1.9432175e-09
1.965298e-09
1.9813414e-09
1.9909982e-09
1.9943887e-09
1.9923488e-09
1.9859202e-09
1.9760901e-09
1.9636967e-09
1.9494358e-09
1.9338821e-09
1.9174742e-09
1.9005398e-09
1.8833263e-09
1.8660291e-09
1.8487987e-09
1.8317142e-09
1.8148312e-09
1.7981862e-09
1.7818229e-09
1.7656658e-09
1.7497881e-09
1.7338071e-09
1.7177095e-09
1.7024179e-09
1.6799071e-09
0.00012981128
0.00012616136
0.00012580712
0.00012585388
0.00012588029
0.00012588731
0.00012588962
0.00012589124
0.00012589293
0.00012589487
0.00012589715
0.00012589988
0.00012590317
0.00012590721
0.00012591223
0.0001259186
0.00012592694
0.00012593811
0.00012595466
0.00012597659
0.00012603188
0.0001260174
0.00012693596
8.741558e-05
6.396504e-08
2.9060753e-10
1.3273511e-10
8.7044433e-11
6.803961e-11
5.7512211e-11
5.0328513e-11
4.4937149e-11
4.0772976e-11
3.7476338e-11
3.4800823e-11
3.2598728e-11
3.0773256e-11
2.9251426e-11
2.7975811e-11
2.6908636e-11
2.5997376e-11
2.5206852e-11
2.4524049e-11
2.3942058e-11
2.3453141e-11
2.3045275e-11
2.2711957e-11
2.2447422e-11
2.2245139e-11
2.2102332e-11
2.2002652e-11
2.193912e-11
2.1926345e-11
2.1986373e-11
2.2117731e-11
2.2308449e-11
2.2558861e-11
2.2872739e-11
2.3254669e-11
2.3709816e-11
2.4243766e-11
2.4862685e-11
2.5572938e-11
2.6385525e-11
2.7289671e-11
2.8291901e-11
2.9408608e-11
3.0653497e-11
3.2031319e-11
3.3556373e-11
3.5345156e-11
3.746767e-11
3.9907407e-11
4.2710951e-11
4.5942754e-11
4.9680016e-11
5.4018115e-11
5.9072508e-11
6.4981605e-11
7.1889042e-11
7.9882702e-11
8.9193043e-11
1.0058759e-10
1.1419542e-10
1.304947e-10
1.5015128e-10
1.7403978e-10
2.0329011e-10
2.3924627e-10
2.8313447e-10
3.3620437e-10
4.0337413e-10
4.8639461e-10
5.8834709e-10
7.1274678e-10
8.6280672e-10
1.0404736e-09
1.2463648e-09
1.478817e-09
1.7287208e-09
1.9783294e-09
2.2094155e-09
2.4099857e-09
2.5781371e-09
2.7176331e-09
2.8332367e-09
2.9298207e-09
3.0110445e-09
3.0794829e-09
3.1360893e-09
3.1819727e-09
3.2179947e-09
3.2441368e-09
3.2598264e-09
3.2652644e-09
3.261822e-09
3.2512066e-09
3.2350349e-09
3.214679e-09
3.1912781e-09
3.1657716e-09
3.1388765e-09
3.1111267e-09
3.082927e-09
3.054596e-09
3.0263788e-09
2.9984038e-09
2.9707613e-09
2.9435114e-09
2.916725e-09
2.8902778e-09
2.8642897e-09
2.8381332e-09
2.8117897e-09
2.7867628e-09
2.7499247e-09
0.00012936044
0.00012559103
0.00012522484
0.00012527301
0.00012530019
0.0001253074
0.00012530975
0.00012531139
0.00012531311
0.00012531508
0.00012531739
0.00012532017
0.00012532353
0.00012532765
0.00012533279
0.00012533932
0.00012534787
0.00012535934
0.00012537635
0.00012539881
0.00012545587
0.00012543899
0.0001263896
8.6393201e-05
8.4531329e-08
4.1952568e-10
1.894961e-10
1.2386047e-10
9.7089356e-11
8.2455865e-11
7.2455093e-11
6.4917332e-11
5.9083058e-11
5.4459021e-11
5.0703532e-11
4.7613807e-11
4.505737e-11
4.2933094e-11
4.1160291e-11
3.9686696e-11
3.8434615e-11
3.7352651e-11
3.6423638e-11
3.5639413e-11
3.4989983e-11
3.4459347e-11
3.4038359e-11
3.3719275e-11
3.3493321e-11
3.3357729e-11
3.3287632e-11
3.327151e-11
3.3329227e-11
3.349179e-11
3.3759509e-11
3.4117738e-11
3.4567925e-11
3.5116393e-11
3.577072e-11
3.6539375e-11
3.743148e-11
3.8457069e-11
3.9626484e-11
4.0957758e-11
4.2434569e-11
4.4067679e-11
4.5884563e-11
4.7909807e-11
5.015608e-11
5.2648047e-11
5.554717e-11
5.8962593e-11
6.2882941e-11
6.7383673e-11
7.2568071e-11
7.8560091e-11
8.551253e-11
9.3611176e-11
1.0308056e-10
1.141609e-10
1.2702867e-10
1.4203088e-10
1.6029265e-10
1.8209359e-10
2.082051e-10
2.3969547e-10
2.779685e-10
3.2484054e-10
3.8249073e-10
4.5301277e-10
5.3852439e-10
6.4633963e-10
7.7957515e-10
9.4319638e-10
1.1428428e-09
1.383664e-09
1.6687638e-09
1.9991571e-09
2.3721591e-09
2.77313e-09
3.1736913e-09
3.5446439e-09
3.866494e-09
4.136046e-09
4.3593722e-09
4.5443149e-09
4.6987856e-09
4.8286748e-09
4.9381061e-09
5.0285674e-09
5.101875e-09
5.1593986e-09
5.2010924e-09
5.2260378e-09
5.2345633e-09
5.2288721e-09
5.2117034e-09
5.1856495e-09
5.1529097e-09
5.1153095e-09
5.0743525e-09
5.0311861e-09
4.9866621e-09
4.9414282e-09
4.8959937e-09
4.8507489e-09
4.8058978e-09
4.7615842e-09
4.7179042e-09
4.6749713e-09
4.6325847e-09
4.5909363e-09
4.5490198e-09
4.5068076e-09
4.4667027e-09
4.4076778e-09
0.00012883617
0.00012492618
0.00012454593
0.00012459576
0.00012462385
0.00012463127
0.00012463367
0.00012463534
0.00012463708
0.00012463908
0.00012464144
0.00012464428
0.00012464771
0.00012465194
0.00012465721
0.00012466392
0.00012467272
0.00012468453
0.00012470206
0.00012472515
0.00012478424
0.0001247645
0.00012575247
8.5248933e-05
1.1066044e-07
6.2694782e-10
2.8157451e-10
1.8372733e-10
1.4424078e-10
1.2281686e-10
1.0816269e-10
9.7090228e-11
8.8509044e-11
8.1702667e-11
7.6171786e-11
7.1621864e-11
6.7860861e-11
6.4741099e-11
6.2143764e-11
5.9992505e-11
5.8169721e-11
5.6598086e-11
5.5253204e-11
5.412428e-11
5.3197301e-11
5.2449907e-11
5.1868539e-11
5.1442128e-11
5.1158328e-11
5.1014331e-11
5.0972185e-11
5.1013149e-11
5.1164263e-11
5.1469072e-11
5.1930702e-11
5.2531185e-11
5.327377e-11
5.4168627e-11
5.5227847e-11
5.6464907e-11
5.7894292e-11
5.9531915e-11
6.139418e-11
6.3509903e-11
6.5854457e-11
6.8445139e-11
7.1326665e-11
7.4540927e-11
7.8114063e-11
8.2087566e-11
8.6685959e-11
9.2075945e-11
9.8258209e-11
1.0535295e-10
1.1352303e-10
1.2296425e-10
1.3391753e-10
1.4667685e-10
1.6159973e-10
1.7907761e-10
1.9943372e-10
2.2319246e-10
2.5199093e-10
2.863615e-10
3.2752899e-10
3.7718049e-10
4.3753362e-10
5.1146118e-10
6.0243417e-10
7.1391923e-10
8.4942588e-10
1.0197462e-09
1.2301931e-09
1.4886408e-09
1.8039933e-09
2.1843713e-09
2.6346403e-09
3.1564331e-09
3.7454634e-09
4.3785298e-09
5.0109268e-09
5.596635e-09
6.1045954e-09
6.5296176e-09
6.8813457e-09
7.1724374e-09
7.4155062e-09
7.6198726e-09
7.7920306e-09
7.934261e-09
8.0494927e-09
8.1398662e-09
8.2052835e-09
8.2442944e-09
8.2574289e-09
8.2481694e-09
8.2208403e-09
8.1795316e-09
8.1277122e-09
8.0682599e-09
8.0035431e-09
7.9353683e-09
7.8650722e-09
7.7936749e-09
7.721977e-09
7.6505903e-09
7.5798333e-09
7.5099313e-09
7.441036e-09
7.373325e-09
7.30648e-09
7.2408031e-09
7.1747064e-09
7.1081487e-09
7.0449106e-09
6.9518503e-09
0.00012823079
0.00012415633
0.00012375961
0.00012381137
0.00012384052
0.00012384819
0.00012385065
0.00012385234
0.00012385412
0.00012385616
0.00012385857
0.00012386147
0.00012386499
0.00012386933
0.00012387476
0.00012388168
0.00012389076
0.00012390296
0.00012392109
0.00012394489
0.00012400631
0.0001239832
0.00012501442
8.3984365e-05
1.4376743e-07
9.4868282e-10
4.2492578e-10
2.7702624e-10
2.1767238e-10
1.8559651e-10
1.6364583e-10
1.4703731e-10
1.3415569e-10
1.2393299e-10
1.1562269e-10
1.0878598e-10
1.0313712e-10
9.8455433e-11
9.4562518e-11
9.1344157e-11
8.86212e-11
8.6276195e-11
8.427316e-11
8.2596823e-11
8.1226683e-11
8.0130698e-11
7.9288341e-11
7.8683316e-11
7.8297836e-11
7.8129111e-11
7.8119373e-11
7.8238617e-11
7.8523668e-11
7.9035599e-11
7.9782049e-11
8.0741139e-11
8.1919062e-11
8.3331802e-11
8.4998276e-11
8.6939537e-11
8.9178199e-11
9.1739095e-11
9.4647832e-11
9.7949677e-11
1.0160765e-10
1.0564908e-10
1.1014528e-10
1.1516535e-10
1.2075771e-10
1.2699073e-10
1.3417718e-10
1.4256807e-10
1.5218809e-10
1.6322623e-10
1.7593624e-10
1.906235e-10
2.076633e-10
2.2751484e-10
2.5073952e-10
2.7796314e-10
3.0974651e-10
3.4688343e-10
3.9174282e-10
4.4527051e-10
5.0938725e-10
5.8672519e-10
6.8074497e-10
7.9593374e-10
9.3774555e-10
1.1117926e-09
1.3237874e-09
1.5895676e-09
1.9179202e-09
2.3211782e-09
2.8132264e-09
3.4067132e-09
4.1091648e-09
4.9231666e-09
5.8419322e-09
6.8290871e-09
7.8150104e-09
8.7280772e-09
9.5195581e-09
1.0181231e-08
1.072823e-08
1.1180675e-08
1.1558393e-08
1.1875938e-08
1.2143406e-08
1.2364243e-08
1.2543114e-08
1.2683323e-08
1.2784674e-08
1.2844909e-08
1.286487e-08
1.2849995e-08
1.2807025e-08
1.2742336e-08
1.2661328e-08
1.2568484e-08
1.2467486e-08
1.2361145e-08
1.2251531e-08
1.2140232e-08
1.2028489e-08
1.191725e-08
1.1807005e-08
1.1698104e-08
1.1590783e-08
1.1485316e-08
1.1381205e-08
1.1278919e-08
1.1175984e-08
1.1072339e-08
1.0973858e-08
1.0828954e-08
0.0001275362
0.00012327017
0.00012285428
0.00012290828
0.00012293866
0.00012294662
0.00012294914
0.00012295087
0.00012295267
0.00012295476
0.00012295723
0.00012296021
0.00012296383
0.0001229683
0.00012297391
0.00012298106
0.00012299047
0.00012300311
0.00012302192
0.00012304651
0.00012311058
0.0001230835
0.0001241645
8.2604168e-05
1.8564631e-07
1.4390615e-09
6.4383485e-10
4.1957157e-10
3.2983581e-10
2.814434e-10
2.4831769e-10
2.2323394e-10
2.0376938e-10
1.8831682e-10
1.7575119e-10
1.6541264e-10
1.5687175e-10
1.497961e-10
1.4391619e-10
1.3905973e-10
1.3495393e-10
1.3142024e-10
1.2840474e-10
1.2588508e-10
1.2383069e-10
1.2219509e-10
1.2094705e-10
1.2006225e-10
1.1951481e-10
1.1930216e-10
1.1933675e-10
1.195712e-10
1.2005569e-10
1.2087578e-10
1.2204631e-10
1.2354109e-10
1.2537107e-10
1.2756103e-10
1.3014019e-10
1.3314104e-10
1.3659849e-10
1.4055085e-10
1.4503767e-10
1.5012918e-10
1.5577011e-10
1.6200307e-10
1.6894017e-10
1.7669286e-10
1.8534564e-10
1.950093e-10
2.0612012e-10
2.1905225e-10
2.3387424e-10
2.5088031e-10
2.7046202e-10
2.9309111e-10
3.1934667e-10
3.4993889e-10
3.8573979e-10
4.2773554e-10
4.7686516e-10
5.3433084e-10
6.0354747e-10
6.8612411e-10
7.8504362e-10
9.0437396e-10
1.0494644e-09
1.2272557e-09
1.4462278e-09
1.7153139e-09
2.0436788e-09
2.4544813e-09
2.961936e-09
3.5851723e-09
4.3456356e-09
5.2628349e-09
6.3482935e-09
7.6060538e-09
9.0254436e-09
1.0549912e-08
1.2072002e-08
1.3481316e-08
1.4702316e-08
1.5722227e-08
1.656458e-08
1.7260972e-08
1.7842234e-08
1.8330851e-08
1.8742362e-08
1.9081919e-08
1.9356878e-08
1.9572285e-08
1.9727777e-08
1.9819862e-08
1.9849875e-08
1.982622e-08
1.975931e-08
1.9658979e-08
1.953356e-08
1.9389964e-08
1.9233865e-08
1.9069589e-08
1.8900315e-08
1.8728487e-08
1.8556013e-08
1.8384347e-08
1.8214237e-08
1.8046217e-08
1.7880652e-08
1.7717962e-08
1.7557374e-08
1.7399611e-08
1.7240855e-08
1.7081013e-08
1.6929132e-08
1.670568e-08
0.00012674397
0.00012225573
0.00012181757
0.00012187415
0.00012190595
0.00012191425
0.00012191685
0.00012191861
0.00012192046
0.00012192259
0.00012192513
0.00012192819
0.00012193193
0.00012193655
0.00012194236
0.00012194978
0.00012195955
0.0001219727
0.00012199226
0.00012201774
0.0001220848
0.00012205307
0.00012319101
8.1116575e-05
2.3857192e-07
2.1795266e-09
9.7476381e-10
6.3511701e-10
4.994304e-10
4.2634311e-10
3.763047e-10
3.3839567e-10
3.089691e-10
2.8560132e-10
2.6659462e-10
2.5095467e-10
2.3803468e-10
2.273332e-10
2.1844296e-10
2.1110371e-10
2.049014e-10
1.9956511e-10
1.9501372e-10
1.9121395e-10
1.8811997e-10
1.8566392e-10
1.8379833e-10
1.824868e-10
1.8169145e-10
1.8141042e-10
1.8151153e-10
1.819209e-10
1.827069e-10