/*--------------------------------*- C++ -*----------------------------------*\
| =========                 |                                                 |
| \\      /  F ield         | OpenFOAM: The Open Source CFD Toolbox           |
|  \\    /   O peration     | Version:  2206                                  |
|   \\  /    A nd           | Website:  www.openfoam.com                      |
|    \\/     M anipulation  |                                                 |
\*---------------------------------------------------------------------------*/
FoamFile
{
    version     2.0;
    format      ascii;
    arch        "LSB;label=32;scalar=64";
    class       volScalarField;
    location    "300";
    object      nut;
}
// * * * * * * * * * * * * * * * * * * * * * * * * * * * * * * * * * * * * * //

dimensions      [0 2 -1 0 0 0 0];

internalField   nonuniform List<scalar> 
13056
(
1.9820813e-07
1.9807207e-07
1.9808802e-07
1.9811468e-07
1.9812928e-07
1.9813614e-07
1.981397e-07
1.9814197e-07
1.9814369e-07
1.9814518e-07
1.9814661e-07
1.9814812e-07
1.9814982e-07
1.9815186e-07
1.9815444e-07
1.981578e-07
1.9816246e-07
1.9816879e-07
1.9817982e-07
1.9818912e-07
1.9825538e-07
1.980599e-07
1.992483e-07
5.576116e-09
2.7258045e-16
4.1696761e-17
2.1086173e-17
1.4211018e-17
1.0859091e-17
8.8216664e-18
7.4450715e-18
6.4400522e-18
5.6730321e-18
5.0684826e-18
4.5785237e-18
4.1728222e-18
3.8311453e-18
3.5393059e-18
3.2870392e-18
3.0667068e-18
2.8725544e-18
2.7000759e-18
2.5458156e-18
2.4069965e-18
2.2813684e-18
2.167111e-18
2.0627197e-18
1.9669449e-18
1.8787403e-18
1.7972269e-18
1.7216555e-18
1.6513821e-18
1.5858548e-18
1.5245958e-18
1.4671901e-18
1.4132775e-18
1.3625403e-18
1.3146973e-18
1.2695009e-18
1.2267314e-18
1.186193e-18
1.1477116e-18
1.1111335e-18
1.0763199e-18
1.043144e-18
1.011492e-18
9.8126209e-19
9.5236334e-19
9.2471316e-19
8.9823741e-19
8.72871e-19
8.4855579e-19
8.2524052e-19
8.0288032e-19
7.8143615e-19
7.6087383e-19
7.4116424e-19
7.2228673e-19
7.0423308e-19
6.8700396e-19
6.706046e-19
6.5504664e-19
6.4034787e-19
6.2653244e-19
6.1364365e-19
6.0174265e-19
5.9091625e-19
5.8131099e-19
5.7307872e-19
5.6651192e-19
5.6177117e-19
5.5907866e-19
5.5880136e-19
5.6126159e-19
5.6688956e-19
5.7609724e-19
5.8916342e-19
6.0614314e-19
6.272192e-19
6.5235279e-19
6.8042976e-19
7.0925464e-19
7.3719858e-19
7.6119424e-19
7.8216481e-19
7.9917594e-19
8.1283396e-19
8.2363025e-19
8.3204068e-19
8.3842501e-19
8.4302376e-19
8.4606779e-19
8.4766448e-19
8.4786359e-19
8.468001e-19
8.4462357e-19
8.4150076e-19
8.3763118e-19
8.3315512e-19
8.2818363e-19
8.2285784e-19
8.1729219e-19
8.1154903e-19
8.0567937e-19
7.9975222e-19
7.9382081e-19
7.8790131e-19
7.8199282e-19
7.7610786e-19
7.7024012e-19
7.6443349e-19
7.5841438e-19
7.5266838e-19
7.4538727e-19
7.395485e-19
7.3100364e-19
1.9820676e-07
1.9807049e-07
1.9808644e-07
1.9811314e-07
1.9812776e-07
1.9813463e-07
1.981382e-07
1.9814046e-07
1.9814218e-07
1.9814368e-07
1.9814512e-07
1.9814662e-07
1.9814833e-07
1.9815037e-07
1.9815295e-07
1.9815632e-07
1.9816099e-07
1.9816733e-07
1.9817836e-07
1.9818768e-07
1.9825403e-07
1.9805824e-07
1.9924884e-07
5.6740267e-09
2.5851245e-16
3.8969072e-17
1.9706931e-17
1.3281583e-17
1.0148982e-17
8.2448725e-18
6.9583555e-18
6.0190992e-18
5.3022672e-18
4.7372744e-18
4.2793738e-18
3.9002169e-18
3.5808952e-18
3.3081497e-18
3.0723875e-18
2.86647e-18
2.685019e-18
2.5238245e-18
2.3796554e-18
2.2499175e-18
2.1325074e-18
2.0257239e-18
1.9281609e-18
1.8386506e-18
1.7562151e-18
1.680033e-18
1.6094039e-18
1.5437261e-18
1.482484e-18
1.4252314e-18
1.3715803e-18
1.3211939e-18
1.2737751e-18
1.2290612e-18
1.1868208e-18
1.1468486e-18
1.1089615e-18
1.0729971e-18
1.0388115e-18
1.006275e-18
9.7526902e-19
9.4568721e-19
9.1743441e-19
8.9042537e-19
8.6458254e-19
8.3983677e-19
8.1612965e-19
7.9340654e-19
7.7161836e-19
7.5072324e-19
7.3068472e-19
7.114709e-19
6.9305468e-19
6.7541671e-19
6.5854905e-19
6.4245107e-19
6.2712332e-19
6.125845e-19
5.9886103e-19
5.8596602e-19
5.7394039e-19
5.62842e-19
5.5275271e-19
5.4380934e-19
5.3615096e-19
5.3001805e-19
5.2558454e-19
5.2315173e-19
5.2299529e-19
5.2541893e-19
5.3082762e-19
5.3960735e-19
5.5201566e-19
5.6809137e-19
5.8797358e-19
6.1156531e-19
6.3775958e-19
6.6453152e-19
6.9051239e-19
7.1292218e-19
7.32602e-19
7.4861476e-19
7.6149441e-19
7.7168983e-19
7.7964366e-19
7.8569205e-19
7.9006029e-19
7.9296462e-19
7.9450565e-19
7.9472906e-19
7.9376065e-19
7.9174178e-19
7.8883018e-19
7.8521389e-19
7.8102564e-19
7.7637045e-19
7.71381e-19
7.6616506e-19
7.6078164e-19
7.5527887e-19
7.4972146e-19
7.4415949e-19
7.3860838e-19
7.3306747e-19
7.2754852e-19
7.2204574e-19
7.1659997e-19
7.1095655e-19
7.0556711e-19
6.9874643e-19
6.9327163e-19
6.8525856e-19
1.9820237e-07
1.9806542e-07
1.9808141e-07
1.9810821e-07
1.9812289e-07
1.9812979e-07
1.9813337e-07
1.9813565e-07
1.9813737e-07
1.9813887e-07
1.9814032e-07
1.9814183e-07
1.9814354e-07
1.981456e-07
1.9814818e-07
1.9815157e-07
1.9815625e-07
1.9816262e-07
1.981737e-07
1.9818304e-07
1.9824969e-07
1.9805298e-07
1.9924893e-07
5.7849271e-09
2.7115642e-16
3.715617e-17
1.8789827e-17
1.2663538e-17
9.6768801e-18
7.8615153e-18
6.63496e-18
5.7394758e-18
5.0560482e-18
4.5173844e-18
4.0808228e-18
3.7193358e-18
3.4148963e-18
3.1548634e-18
2.9300911e-18
2.7337737e-18
2.5607825e-18
2.4071044e-18
2.2696578e-18
2.1459706e-18
2.0340372e-18
1.9322342e-18
1.8392215e-18
1.7538858e-18
1.6752941e-18
1.6026626e-18
1.5353228e-18
1.4727025e-18
1.4143158e-18
1.3597427e-18
1.3086101e-18
1.260592e-18
1.2154047e-18
1.1727981e-18
1.1325518e-18
1.0944702e-18
1.0583791e-18
1.0241238e-18
9.9156752e-19
9.6058613e-19
9.3106485e-19
9.029024e-19
8.7600658e-19
8.5029215e-19
8.2567759e-19
8.0209959e-19
7.7955455e-19
7.5798477e-19
7.3731913e-19
7.1751916e-19
6.98552e-19
6.8038869e-19
6.630068e-19
6.4638868e-19
6.30523e-19
6.1538502e-19
6.0088772e-19
5.8721147e-19
5.7459202e-19
5.6284901e-19
5.52037e-19
5.4223353e-19
5.3354142e-19
5.2610599e-19
5.1999817e-19
5.1489208e-19
5.1130246e-19
5.1155043e-19
5.1455041e-19
5.2068924e-19
5.3045692e-19
5.4428543e-19
5.6237733e-19
5.8453438e-19
6.1027806e-19
6.3819961e-19
6.6568228e-19
6.9103476e-19
7.1570123e-19
7.3859079e-19
7.6018114e-19
7.7853104e-19
7.9366264e-19
8.0588111e-19
8.1561815e-19
8.232048e-19
8.2887779e-19
8.3286478e-19
8.3525843e-19
8.3607918e-19
8.3544663e-19
8.3353807e-19
8.3055791e-19
8.2673471e-19
8.2223861e-19
8.1720608e-19
8.1179132e-19
8.061182e-19
8.0026021e-19
7.942757e-19
7.8823492e-19
7.8219244e-19
7.7616729e-19
7.7016237e-19
7.6419051e-19
7.5824915e-19
7.5237083e-19
7.4633053e-19
7.405125e-19
7.3339621e-19
7.2754198e-19
7.1896439e-19
1.9819481e-07
1.980567e-07
1.9807275e-07
1.9809974e-07
1.9811452e-07
1.9812146e-07
1.9812507e-07
1.9812736e-07
1.981291e-07
1.9813061e-07
1.9813206e-07
1.9813359e-07
1.9813531e-07
1.9813738e-07
1.9813999e-07
1.9814339e-07
1.9814811e-07
1.9815452e-07
1.9816568e-07
1.9817506e-07
1.982422e-07
1.9804394e-07
1.9924861e-07
5.8996902e-09
3.6256303e-16
3.5894871e-17
1.8148452e-17
1.22308e-17
9.3467336e-18
7.593986e-18
6.4097269e-18
5.5450926e-18
4.8852055e-18
4.3651024e-18
3.9435903e-18
3.5945734e-18
3.3006465e-18
3.049604e-18
2.8326143e-18
2.6431073e-18
2.4761247e-18
2.3277897e-18
2.1951274e-18
2.0757542e-18
1.9677348e-18
1.8694888e-18
1.7797276e-18
1.6973757e-18
1.6215277e-18
1.5514222e-18
1.4864088e-18
1.4259449e-18
1.3696005e-18
1.3170108e-18
1.2677913e-18
1.2215931e-18
1.1781397e-18
1.1371911e-18
1.0985363e-18
1.0619885e-18
1.0273814e-18
9.9456752e-19
9.6341671e-19
9.3380605e-19
9.0561314e-19
8.787408e-19
8.5308964e-19
8.2854974e-19
8.0498877e-19
7.823649e-19
7.610436e-19
7.4092892e-19
7.2178152e-19
7.0357533e-19
6.8629279e-19
6.6991745e-19
6.544528e-19
6.3988906e-19
6.2619031e-19
6.1316292e-19
6.0010259e-19
5.8834291e-19
5.7959443e-19
5.7233074e-19
5.667214e-19
5.6300715e-19
5.6147099e-19
5.6236431e-19
5.65282e-19
5.6578807e-19
5.6693587e-19
5.8581743e-19
6.1166492e-19
6.4565773e-19
6.8921043e-19
7.4358582e-19
8.0945329e-19
8.8660454e-19
9.7374809e-19
1.0662995e-18
1.1559783e-18
1.236542e-18
1.3086284e-18
1.3723066e-18
1.4289335e-18
1.4769459e-18
1.5171091e-18
1.5504838e-18
1.5781124e-18
1.6005826e-18
1.6183753e-18
1.6319416e-18
1.6413767e-18
1.6465472e-18
1.6476109e-18
1.6450958e-18
1.6396465e-18
1.6319071e-18
1.6224033e-18
1.6115673e-18
1.5997955e-18
1.5873966e-18
1.5745856e-18
1.5615258e-18
1.5483692e-18
1.535234e-18
1.5221744e-18
1.509218e-18
1.4963928e-18
1.483716e-18
1.4711857e-18
1.4586265e-18
1.4462255e-18
1.4325713e-18
1.4204386e-18
1.4026093e-18
1.9818387e-07
1.9804408e-07
1.9806021e-07
1.9808747e-07
1.981024e-07
1.9810941e-07
1.9811305e-07
1.9811536e-07
1.9811712e-07
1.9811864e-07
1.9812011e-07
1.9812165e-07
1.9812339e-07
1.9812548e-07
1.9812812e-07
1.9813156e-07
1.9813632e-07
1.981428e-07
1.9815406e-07
1.981635e-07
1.9823135e-07
1.9803084e-07
1.9924793e-07
6.0169175e-09
6.4074957e-16
3.5155163e-17
1.7758224e-17
1.1965226e-17
9.1456556e-18
7.4332455e-18
6.2761767e-18
5.4312649e-18
4.7864188e-18
4.2781997e-18
3.866351e-18
3.5253752e-18
3.2382685e-18
2.9931022e-18
2.7812424e-18
2.5962747e-18
2.4333266e-18
2.2885981e-18
2.1591886e-18
2.0427808e-18
1.9374891e-18
1.8417149e-18
1.7542218e-18
1.6739553e-18
1.6000125e-18
1.5316297e-18
1.4681488e-18
1.4090827e-18
1.354178e-18
1.3032511e-18
1.2558233e-18
1.2114086e-18
1.1697263e-18
1.1305486e-18
1.0936775e-18
1.0589386e-18
1.0261777e-18
9.9525959e-19
9.6606537e-19
9.3846168e-19
9.1227955e-19
8.8742621e-19
8.6376007e-19
8.4105455e-19
8.1894938e-19
7.9748916e-19
7.786169e-19
7.6205715e-19
7.4685139e-19
7.3302307e-19
7.2061621e-19
7.0966378e-19
7.0027588e-19
6.9248016e-19
6.8611282e-19
6.8018021e-19
6.7112794e-19
6.6556008e-19
6.7173251e-19
6.821296e-19
6.9746576e-19
7.1878855e-19
7.4742426e-19
7.8490394e-19
8.3200054e-19
8.8309425e-19
9.4187859e-19
1.041047e-18
1.1660406e-18
1.3215913e-18
1.5132486e-18
1.7460179e-18
2.0227391e-18
2.3433871e-18
2.7036539e-18
3.0860722e-18
3.4585832e-18
3.7942154e-18
4.0867348e-18
4.3386399e-18
4.5554063e-18
4.7380592e-18
4.8914091e-18
5.020193e-18
5.1283155e-18
5.2175708e-18
5.2895903e-18
5.3458572e-18
5.386495e-18
5.4107031e-18
5.4188435e-18
5.4130234e-18
5.3958651e-18
5.3698881e-18
5.3372151e-18
5.2996058e-18
5.258554e-18
5.2152079e-18
5.1704168e-18
5.1248171e-18
5.0789364e-18
5.0331842e-18
4.9877707e-18
4.9428318e-18
4.8984655e-18
4.8547745e-18
4.8116137e-18
4.7689622e-18
4.7262522e-18
4.6821325e-18
4.6410114e-18
4.580485e-18
1.9816924e-07
1.980272e-07
1.9804344e-07
1.9807106e-07
1.9808618e-07
1.9809328e-07
1.9809697e-07
1.9809931e-07
1.9810109e-07
1.9810264e-07
1.9810413e-07
1.9810569e-07
1.9810745e-07
1.9810957e-07
1.9811224e-07
1.9811573e-07
1.9812056e-07
1.9812711e-07
1.9813852e-07
1.9814804e-07
1.9821684e-07
1.9801332e-07
1.9924696e-07
6.1369426e-09
1.3160509e-15
3.5273898e-17
1.7764722e-17
1.196076e-17
9.1480242e-18
7.4435056e-18
6.2915439e-18
5.4499357e-18
4.807575e-18
4.301409e-18
3.8913285e-18
3.5519475e-18
3.2663424e-18
3.022627e-18
2.8121887e-18
2.6286567e-18
2.4670889e-18
2.3236589e-18
2.1955024e-18
2.080348e-18
1.976336e-18
1.8816974e-18
1.7952749e-18
1.7160063e-18
1.6429322e-18
1.575227e-18
1.5121623e-18
1.4533932e-18
1.3992107e-18
1.3499937e-18
1.3049285e-18
1.2630621e-18
1.2240803e-18
1.1877795e-18
1.1539878e-18
1.1225584e-18
1.093365e-18
1.0663008e-18
1.0412743e-18
1.0181041e-18
9.9645543e-19
9.7623634e-19
9.5714237e-19
9.3852128e-19
9.1919888e-19
8.9952112e-19
8.8688231e-19
8.8032373e-19
8.7643342e-19
8.753974e-19
8.7752476e-19
8.8315432e-19
8.9278303e-19
9.0687244e-19
9.2569805e-19
9.483977e-19
9.7019122e-19
1.0000366e-18
1.0531228e-18
1.1194359e-18
1.2015426e-18
1.3031461e-18
1.4290213e-18
1.5849916e-18
1.7760909e-18
1.9951269e-18
2.2488101e-18
2.6128279e-18
3.0652277e-18
3.62259e-18
4.3042168e-18
5.1276093e-18
6.1029855e-18
7.2314481e-18
8.4998144e-18
9.8501374e-18
1.1174174e-17
1.2375158e-17
1.3416949e-17
1.4305395e-17
1.5059978e-17
1.5692971e-17
1.6224207e-17
1.6671267e-17
1.7047772e-17
1.7359534e-17
1.761211e-17
1.7810431e-17
1.7954696e-17
1.8041888e-17
1.8073078e-17
1.8055654e-17
1.7998845e-17
1.7911439e-17
1.780089e-17
1.7673389e-17
1.7534094e-17
1.7386959e-17
1.7234943e-17
1.7080263e-17
1.6924701e-17
1.6769638e-17
1.6615802e-17
1.6463688e-17
1.6313628e-17
1.6166007e-17
1.6020206e-17
1.5876685e-17
1.5732422e-17
1.558605e-17
1.5447762e-17
1.524414e-17
1.9815056e-07
1.9800561e-07
1.9802199e-07
1.9805008e-07
1.9806545e-07
1.9807267e-07
1.9807641e-07
1.9807879e-07
1.980806e-07
1.9808217e-07
1.9808369e-07
1.9808528e-07
1.9808707e-07
1.9808923e-07
1.9809194e-07
1.9809549e-07
1.981004e-07
1.9810705e-07
1.9811865e-07
1.9812826e-07
1.9819828e-07
1.979909e-07
1.9924587e-07
6.2606756e-09
2.7450633e-15
3.7222324e-17
1.8602851e-17
1.2500987e-17
9.5764962e-18
7.8143246e-18
6.622765e-18
5.7510742e-18
5.0856627e-18
4.5615952e-18
4.1373012e-18
3.7865175e-18
3.4917502e-18
3.2406744e-18
3.0243353e-18
2.8361844e-18
2.6708647e-18
2.5242982e-18
2.3935888e-18
2.2764815e-18
2.1711002e-18
2.0751022e-18
1.9875004e-18
1.9071548e-18
1.8328932e-18
1.7636668e-18
1.6985171e-18
1.6375006e-18
1.5824896e-18
1.5354869e-18
1.4946708e-18
1.4577097e-18
1.4241808e-18
1.3939378e-18
1.3668743e-18
1.3429143e-18
1.3220056e-18
1.3041212e-18
1.2892495e-18
1.2773209e-18
1.267831e-18
1.2607481e-18
1.2558708e-18
1.2525066e-18
1.2491463e-18
1.2461792e-18
1.2542818e-18
1.2733517e-18
1.2987308e-18
1.331109e-18
1.3715254e-18
1.4211709e-18
1.4816145e-18
1.5545438e-18
1.6415361e-18
1.7424044e-18
1.8500737e-18
1.9791693e-18
2.1613417e-18
2.3817656e-18
2.6482121e-18
2.9717923e-18
3.3669317e-18
3.8515914e-18
4.4435146e-18
5.1360001e-18
5.9454542e-18
7.0503718e-18
8.4187887e-18
1.0100653e-17
1.2153855e-17
1.4631032e-17
1.7563345e-17
2.0956062e-17
2.4773098e-17
2.8846995e-17
3.2861052e-17
3.6521214e-17
3.9694106e-17
4.2386516e-17
4.4657811e-17
4.6557281e-17
4.8149973e-17
4.9490652e-17
5.0620521e-17
5.1556538e-17
5.2315528e-17
5.2912065e-17
5.3346485e-17
5.3609537e-17
5.3704329e-17
5.3653131e-17
5.3483768e-17
5.3222662e-17
5.2892265e-17
5.2511219e-17
5.2094991e-17
5.1655407e-17
5.1201346e-17
5.0739461e-17
5.0275056e-17
4.9812233e-17
4.9353168e-17
4.8899358e-17
4.8451792e-17
4.8011647e-17
4.7576968e-17
4.7149545e-17
4.6719487e-17
4.6285265e-17
4.5873512e-17
4.5267207e-17
1.9812737e-07
1.9797878e-07
1.9799533e-07
1.98024e-07
1.9803969e-07
1.9804704e-07
1.9805087e-07
1.9805329e-07
1.9805514e-07
1.9805674e-07
1.9805829e-07
1.9805991e-07
1.9806175e-07
1.9806394e-07
1.9806672e-07
1.9807033e-07
1.9807534e-07
1.9808213e-07
1.9809396e-07
1.9810368e-07
1.981752e-07
1.9796302e-07
1.9924484e-07
6.3893389e-09
5.5364307e-15
4.3170126e-17
2.1254396e-17
1.4227973e-17
1.0934063e-17
8.9722211e-18
7.6441574e-18
6.6700434e-18
5.9263774e-18
5.3414319e-18
4.8686553e-18
4.478732e-18
4.1521644e-18
3.8751345e-18
3.637555e-18
3.432236e-18
3.2526394e-18
3.093941e-18
2.953084e-18
2.8277896e-18
2.7160967e-18
2.615306e-18
2.5243604e-18
2.4420076e-18
2.3668867e-18
2.297835e-18
2.2334053e-18
2.1735906e-18
2.1211548e-18
2.0792925e-18
2.0459332e-18
2.0179879e-18
1.9950086e-18
1.9769749e-18
1.9639285e-18
1.9559562e-18
1.9531787e-18
1.9557562e-18
1.9638676e-18
1.9777244e-18
1.9964281e-18
2.0201026e-18
2.0488526e-18
2.0820078e-18
2.1174724e-18
2.1558437e-18
2.2147458e-18
2.2960991e-18
2.3928383e-18
2.5069279e-18
2.6412276e-18
2.7990689e-18
2.9847008e-18
3.2029237e-18
3.4587399e-18
3.7542769e-18
4.0789159e-18
4.4594482e-18
4.9634357e-18
5.568176e-18
6.2945818e-18
7.1723466e-18
8.2401573e-18
9.5467194e-18
1.1143197e-17
1.303316e-17
1.5259692e-17
1.8227215e-17
2.1898316e-17
2.6407294e-17
3.1909192e-17
3.8545189e-17
4.6399451e-17
5.5489531e-17
6.5724861e-17
7.6668784e-17
8.7489055e-17
9.7392823e-17
1.0597837e-16
1.1324022e-16
1.1933929e-16
1.2442843e-16
1.2869211e-16
1.3228076e-16
1.3530547e-16
1.3781078e-16
1.3984251e-16
1.4143938e-16
1.4260185e-16
1.4330493e-16
1.4355697e-16
1.4341783e-16
1.4296224e-16
1.4226111e-16
1.4137467e-16
1.4035296e-16
1.3923738e-16
1.3805959e-16
1.3684332e-16
1.3560639e-16
1.3436296e-16
1.3312396e-16
1.3189517e-16
1.3068062e-16
1.2948295e-16
1.2830532e-16
1.2714238e-16
1.2599927e-16
1.248488e-16
1.2368895e-16
1.2258786e-16
1.2096662e-16
1.9809914e-07
1.9794606e-07
1.9796282e-07
1.9799221e-07
1.9800828e-07
1.9801581e-07
1.9801973e-07
1.9802221e-07
1.980241e-07
1.9802575e-07
1.9802733e-07
1.9802899e-07
1.9803087e-07
1.9803313e-07
1.9803597e-07
1.9803967e-07
1.980448e-07
1.9805174e-07
1.9806385e-07
1.9807372e-07
1.9814708e-07
1.9792899e-07
1.9924419e-07
6.5244041e-09
1.071329e-14
5.8496666e-17
2.8048787e-17
1.8644686e-17
1.4411231e-17
1.1946701e-17
1.0274051e-17
9.0386379e-18
8.0924712e-18
7.3472316e-18
6.7445481e-18
6.2481349e-18
5.8339464e-18
5.4846399e-18
5.1872872e-18
4.932937e-18
4.712095e-18
4.5180269e-18
4.3471585e-18
4.197034e-18
4.0654015e-18
3.9487381e-18
3.8457486e-18
3.7548819e-18
3.6743387e-18
3.6027132e-18
3.53744e-18
3.4782772e-18
3.4297454e-18
3.397423e-18
3.3787833e-18
3.3692629e-18
3.3683818e-18
3.3763995e-18
3.393689e-18
3.4207038e-18
3.4579561e-18
3.5060327e-18
3.5655476e-18
3.6373833e-18
3.7197881e-18
3.813265e-18
3.9187339e-18
4.0358167e-18
4.1615307e-18
4.2971038e-18
4.4739195e-18
4.698492e-18
4.9594671e-18
5.2618134e-18
5.612625e-18
6.0202384e-18
6.4951446e-18
7.0494818e-18
7.6965373e-18
8.4449705e-18
9.2798794e-18
1.0252682e-17
1.150511e-17
1.30036e-17
1.479994e-17
1.696721e-17
1.960083e-17
2.28218e-17
2.6762044e-17
3.1465029e-17
3.7040975e-17
4.4364336e-17
5.3419762e-17
6.4539816e-17
7.8106889e-17
9.4469427e-17
1.1383577e-16
1.3625536e-16
1.6151473e-16
1.8855682e-16
2.1535849e-16
2.3995703e-16
2.6128275e-16
2.7927712e-16
2.9434089e-16
3.0688823e-16
3.1739317e-16
3.2623333e-16
3.3368398e-16
3.398528e-16
3.4485501e-16
3.4878548e-16
3.5164428e-16
3.5336955e-16
3.5398222e-16
3.5363032e-16
3.5249851e-16
3.5076187e-16
3.485691e-16
3.4604371e-16
3.4328777e-16
3.4037926e-16
3.3737654e-16
3.3432356e-16
3.3125513e-16
3.2819808e-16
3.2516658e-16
3.2217052e-16
3.1921641e-16
3.1631203e-16
3.1344407e-16
3.1062543e-16
3.0778846e-16
3.0492999e-16
3.022152e-16
2.982183e-16
1.9806526e-07
1.9790672e-07
1.9792374e-07
1.9795399e-07
1.9797053e-07
1.9797828e-07
1.979823e-07
1.9798486e-07
1.979868e-07
1.9798849e-07
1.9799012e-07
1.9799184e-07
1.9799377e-07
1.9799609e-07
1.9799902e-07
1.9800283e-07
1.980081e-07
1.9801523e-07
1.9802767e-07
1.980377e-07
1.9811327e-07
1.9788804e-07
1.992443e-07
6.6676046e-09
1.9978255e-14
9.3446743e-17
4.3628777e-17
2.8788676e-17
2.2387446e-17
1.8755773e-17
1.628375e-17
1.4443226e-17
1.3028265e-17
1.1911784e-17
1.1008032e-17
1.0264546e-17
9.6467232e-18
9.1290729e-18
8.6921187e-18
8.3227956e-18
8.0049429e-18
7.7274889e-18
7.485609e-18
7.276364e-18
7.096791e-18
6.9416498e-18
6.8090432e-18
6.6967472e-18
6.6020433e-18
6.5230693e-18
6.4548487e-18
6.3964796e-18
6.3557973e-18
6.3429677e-18
6.3547245e-18
6.3837858e-18
6.4296648e-18
6.4932285e-18
6.5755714e-18
6.677947e-18
6.8017233e-18
6.9484221e-18
7.119614e-18
7.3177066e-18
7.5391756e-18
7.7854013e-18
8.0592959e-18
8.3615609e-18
8.688103e-18
9.0417883e-18
9.4801693e-18
1.0019759e-17
1.0642035e-17
1.1358696e-17
1.2186211e-17
1.3144042e-17
1.425651e-17
1.5552163e-17
1.7063184e-17
1.881469e-17
2.078921e-17
2.3086431e-17
2.5995636e-17
2.947226e-17
3.3637057e-17
3.8659431e-17
4.4760929e-17
5.2223917e-17
6.136436e-17
7.2341599e-17
8.5425056e-17
1.0243151e-16
1.2345472e-16
1.4927008e-16
1.807655e-16
2.187502e-16
2.6370815e-16
3.15765e-16
3.7444002e-16
4.3730926e-16
4.9972705e-16
5.5712697e-16
6.0688817e-16
6.4879462e-16
6.8378506e-16
7.1288871e-16
7.3724101e-16
7.5773027e-16
7.7499739e-16
7.8928696e-16
8.0087208e-16
8.099714e-16
8.1658271e-16
8.2056209e-16
8.2195906e-16
8.2111811e-16
8.184686e-16
8.1441727e-16
8.0930958e-16
8.0343229e-16
7.9702221e-16
7.9026013e-16
7.8328104e-16
7.7618692e-16
7.6905832e-16
7.6195722e-16
7.5491628e-16
7.4795832e-16
7.4109848e-16
7.3435473e-16
7.2769596e-16
7.2115227e-16
7.1456606e-16
7.0793162e-16
7.0162951e-16
6.9235212e-16
1.9802506e-07
1.9785992e-07
1.9787725e-07
1.9790854e-07
1.9792564e-07
1.9793364e-07
1.979378e-07
1.9794044e-07
1.9794246e-07
1.979442e-07
1.9794589e-07
1.9794766e-07
1.9794966e-07
1.9795206e-07
1.9795508e-07
1.9795902e-07
1.9796447e-07
1.9797181e-07
1.9798465e-07
1.9799486e-07
1.9807307e-07
1.9783924e-07
1.9924575e-07
6.8209862e-09
3.6143823e-14
1.6845775e-16
7.7133668e-17
5.0615094e-17
3.9543933e-17
3.33935e-17
2.9196865e-17
2.6051314e-17
2.3625143e-17
2.1707496e-17
2.0153642e-17
1.88763e-17
1.7818146e-17
1.6936167e-17
1.6196797e-17
1.5578065e-17
1.5049557e-17
1.4590897e-17
1.4194524e-17
1.3856398e-17
1.3571996e-17
1.3332663e-17
1.3135131e-17
1.2975761e-17
1.2849998e-17
1.2755177e-17
1.2681311e-17
1.2625856e-17
1.2602729e-17
1.2630698e-17
1.2705415e-17
1.2814767e-17
1.2958375e-17
1.3138394e-17
1.3357446e-17
1.361848e-17
1.3924678e-17
1.4279549e-17
1.46867e-17
1.5151867e-17
1.566795e-17
1.6238271e-17
1.6870325e-17
1.7567868e-17
1.8325911e-17
1.9151247e-17
2.0149921e-17
2.1359431e-17
2.2749989e-17
2.4347829e-17
2.6189447e-17
2.8318146e-17
3.0787804e-17
3.3662303e-17
3.7015127e-17
4.0909961e-17
4.533567e-17
5.0484871e-17
5.6932773e-17
6.4633711e-17
7.3856971e-17
8.4978237e-17
9.8489377e-17
1.1501974e-16
1.3528745e-16
1.5974613e-16
1.8902681e-16
2.2678769e-16
2.734587e-16
3.3076858e-16
4.0068875e-16
4.850154e-16
5.8482098e-16
7.0040341e-16
8.3071547e-16
9.7041757e-16
1.1092835e-15
1.2371665e-15
1.3480148e-15
1.441213e-15
1.5188622e-15
1.5833706e-15
1.6373215e-15
1.6827063e-15
1.7209497e-15
1.7525816e-15
1.7782212e-15
1.7983501e-15
1.812958e-15
1.821725e-15
1.8247632e-15
1.8228391e-15
1.8169066e-15
1.8078692e-15
1.7964937e-15
1.7834165e-15
1.7691628e-15
1.754133e-15
1.7386257e-15
1.7228669e-15
1.7070347e-15
1.6912661e-15
1.6756329e-15
1.6601855e-15
1.6449574e-15
1.6299884e-15
1.6152089e-15
1.6006858e-15
1.5860688e-15
1.5713468e-15
1.5573609e-15
1.5367746e-15
1.9797778e-07
1.9780472e-07
1.978224e-07
1.9785494e-07
1.9787271e-07
1.9788102e-07
1.9788534e-07
1.9788808e-07
1.9789017e-07
1.9789199e-07
1.9789374e-07
1.9789558e-07
1.9789766e-07
1.9790015e-07
1.9790329e-07
1.9790738e-07
1.9791302e-07
1.9792063e-07
1.9793392e-07
1.9794435e-07
1.9802567e-07
1.9778159e-07
1.9924926e-07
6.986986e-09
6.3829768e-14
3.2394062e-16
1.4663987e-16
9.5902619e-17
7.5141187e-17
6.3762717e-17
5.5986678e-17
5.0132346e-17
4.5606612e-17
4.2024754e-17
3.9119821e-17
3.6732472e-17
3.4758381e-17
3.3118275e-17
3.1749374e-17
3.0611198e-17
2.9643804e-17
2.8807534e-17
2.80891e-17
2.7482139e-17
2.6978864e-17
2.6564014e-17
2.6231353e-17
2.5974379e-17
2.5784956e-17
2.5659071e-17
2.5576571e-17
2.5531123e-17
2.554759e-17
2.5660576e-17
2.5864355e-17
2.6138443e-17
2.6482922e-17
2.6902614e-17
2.74033e-17
2.7991436e-17
2.8673965e-17
2.9458511e-17
3.0352909e-17
3.1369946e-17
3.2495449e-17
3.37369e-17
3.5111875e-17
3.6631767e-17
3.8292236e-17
4.0109028e-17
4.2276508e-17
4.4874967e-17
4.785814e-17
5.1282816e-17
5.5227163e-17
5.9784207e-17
6.5069349e-17
7.1220445e-17
7.8398497e-17
8.6753174e-17
9.6306557e-17
1.0742845e-16
1.2123787e-16
1.3772501e-16
1.5747055e-16
1.8128031e-16
2.1021023e-16
2.4561544e-16
2.8906638e-16
3.4170746e-16
4.0496507e-16
4.860317e-16
5.8621172e-16
7.0923145e-16
8.5932249e-16
1.0403382e-15
1.254572e-15
1.5026961e-15
1.7824847e-15
2.0825247e-15
2.3810114e-15
2.6561639e-15
2.8946062e-15
3.0947955e-15
3.2612773e-15
3.399444e-15
3.5149501e-15
3.6121016e-15
3.6939562e-15
3.7616216e-15
3.8164558e-15
3.8594831e-15
3.8906695e-15
3.9093278e-15
3.915704e-15
3.911446e-15
3.8986027e-15
3.8791132e-15
3.8546226e-15
3.8264963e-15
3.7958591e-15
3.7635692e-15
3.7302638e-15
3.6964273e-15
3.6624408e-15
3.6285962e-15
3.595046e-15
3.5618979e-15
3.5292238e-15
3.4971084e-15
3.4654017e-15
3.434247e-15
3.402892e-15
3.3713151e-15
3.341315e-15
3.297162e-15
1.9792257e-07
1.9774005e-07
1.9775815e-07
1.9779217e-07
1.9781074e-07
1.9781942e-07
1.9782392e-07
1.9782678e-07
1.9782896e-07
1.9783086e-07
1.9783269e-07
1.9783461e-07
1.9783678e-07
1.9783938e-07
1.9784266e-07
1.9784692e-07
1.978528e-07
1.978607e-07
1.9787454e-07
1.978852e-07
1.9797018e-07
1.977139e-07
1.9925581e-07
7.1685377e-09
1.1059156e-13
6.3901076e-16
2.8754866e-16
1.8771925e-16
1.4731843e-16
1.2534654e-16
1.1031762e-16
9.8973271e-17
9.019086e-17
8.3233558e-17
7.7587126e-17
7.2946616e-17
6.911279e-17
6.5933071e-17
6.3285531e-17
6.1092132e-17
5.9233086e-17
5.762963e-17
5.6256834e-17
5.5103587e-17
5.4155481e-17
5.3384656e-17
5.277868e-17
5.232536e-17
5.2009699e-17
5.18255e-17
5.1732344e-17
5.1715548e-17
5.1819424e-17
5.2107376e-17
5.257231e-17
5.3179567e-17
5.3930572e-17
5.4835581e-17
5.590679e-17
5.7157783e-17
5.8603143e-17
6.0258868e-17
6.2141406e-17
6.4278124e-17
6.664106e-17
6.9246388e-17
7.2133173e-17
7.5330529e-17
7.8839692e-17
8.2696106e-17
8.7253175e-17
9.2676533e-17
9.8898212e-17
1.0603793e-16
1.1425887e-16
1.2375568e-16
1.347693e-16
1.4758925e-16
1.6255771e-16
1.8000938e-16
2.0006778e-16
2.23439e-16
2.5226255e-16
2.8666643e-16
3.2787111e-16
3.7756155e-16
4.3794727e-16
5.1187068e-16
6.0266736e-16
7.1302249e-16
8.4606832e-16
1.0156959e-15
1.225289e-15
1.482675e-15
1.7967056e-15
2.1754353e-15
2.6236364e-15
3.1427712e-15
3.7281959e-15
4.3560686e-15
4.9810094e-15
5.5574808e-15
6.0568769e-15
6.4756208e-15
6.8232951e-15
7.1115813e-15
7.3524997e-15
7.5551064e-15
7.7257907e-15
7.8668042e-15
7.9810495e-15
8.0706488e-15
8.135505e-15
8.1741805e-15
8.1872009e-15
8.1780187e-15
8.1509216e-15
8.1099644e-15
8.0585863e-15
7.9996405e-15
7.9354751e-15
7.8678813e-15
7.7981843e-15
7.7273955e-15
7.6563086e-15
7.5855302e-15
7.5153761e-15
7.4460697e-15
7.3777614e-15
7.3106272e-15
7.2443516e-15
7.179234e-15
7.1137003e-15
7.0477083e-15
6.9850086e-15
6.8927407e-15
1.9785853e-07
1.9766473e-07
1.9768332e-07
1.9771909e-07
1.977386e-07
1.977477e-07
1.9775243e-07
1.9775544e-07
1.9775772e-07
1.9775972e-07
1.9776164e-07
1.9776365e-07
1.9776593e-07
1.9776866e-07
1.9777209e-07
1.9777655e-07
1.977827e-07
1.9779096e-07
1.9780542e-07
1.9781634e-07
1.9790558e-07
1.9763488e-07
1.9926666e-07
7.3692091e-09
1.8874483e-13
1.2674238e-15
5.6868833e-16
3.7091581e-16
2.9134907e-16
2.482592e-16
2.1877104e-16
1.9647894e-16
1.7920551e-16
1.6551255e-16
1.5439346e-16
1.4525377e-16
1.3770562e-16
1.3145059e-16
1.262489e-16
1.2194756e-16
1.1830734e-16
1.1517142e-16
1.1249159e-16
1.1024727e-16
1.0841084e-16
1.0693064e-16
1.0578161e-16
1.0494038e-16
1.0437896e-16
1.0408771e-16
1.0398634e-16
1.0404237e-16
1.0433435e-16
1.0497763e-16
1.0596473e-16
1.0723744e-16
1.088006e-16
1.1067537e-16
1.1288681e-16
1.1546277e-16
1.1843313e-16
1.2183069e-16
1.2568917e-16
1.3006557e-16
1.3490533e-16
1.4024242e-16
1.4616063e-16
1.5272827e-16
1.5996494e-16
1.679483e-16
1.7731599e-16
1.8840101e-16
2.0111207e-16
2.1569647e-16
2.3248821e-16
2.5188655e-16
2.7438465e-16
3.0057813e-16
3.3117764e-16
3.6690572e-16
4.0814628e-16
4.5624247e-16
5.1523077e-16
5.856252e-16
6.6994051e-16
7.7163157e-16
8.9523136e-16
1.0465824e-15
1.2326129e-15
1.4593236e-15
1.733434e-15
2.0814193e-15
2.5113405e-15
3.0393136e-15
3.6834903e-15
4.4603714e-15
5.3796814e-15
6.4445134e-15
7.6453155e-15
8.9331513e-15
1.0215322e-14
1.1398538e-14
1.2423149e-14
1.3281292e-14
1.399277e-14
1.4582257e-14
1.5074733e-14
1.5488841e-14
1.5837658e-14
1.6125664e-14
1.6358939e-14
1.6541792e-14
1.6673967e-14
1.6752519e-14
1.6778549e-14
1.6759146e-14
1.6703104e-14
1.6618735e-14
1.6513085e-14
1.6391997e-14
1.6260277e-14
1.6121587e-14
1.5978629e-14
1.5833473e-14
1.5687739e-14
1.5542661e-14
1.5398881e-14
1.5256853e-14
1.5116884e-14
1.4979335e-14
1.4843553e-14
1.4710151e-14
1.4575904e-14
1.4440728e-14
1.4312289e-14
1.4123305e-14
1.9778464e-07
1.9757743e-07
1.9759658e-07
1.9763441e-07
1.9765504e-07
1.9766465e-07
1.9766964e-07
1.9767281e-07
1.9767523e-07
1.9767733e-07
1.9767936e-07
1.9768149e-07
1.9768389e-07
1.9768677e-07
1.9769038e-07
1.9769507e-07
1.9770154e-07
1.9771019e-07
1.9772536e-07
1.9773657e-07
1.9783077e-07
1.9754304e-07
1.9928342e-07
7.5933776e-09
3.1831444e-13
2.5063193e-15
1.1231385e-15
7.3221547e-16
5.7544768e-16
4.9074838e-16
4.3276904e-16
3.8889911e-16
3.5488516e-16
3.2790812e-16
3.0599234e-16
2.8797422e-16
2.7309523e-16
2.6077014e-16
2.50527e-16
2.4206503e-16
2.3490933e-16
2.2874898e-16
2.2348989e-16
2.1909277e-16
2.1550402e-16
2.126273e-16
2.1041215e-16
2.0881356e-16
2.0777898e-16
2.0729365e-16
2.0719947e-16
2.0742703e-16
2.0811478e-16
2.0947115e-16
2.1149183e-16
2.1408012e-16
2.1724893e-16
2.2104109e-16
2.2550708e-16
2.3070304e-16
2.3668919e-16
2.4353157e-16
2.5129822e-16
2.6010549e-16
2.6984791e-16
2.8059536e-16
2.9252303e-16
3.0578307e-16
3.2044354e-16
3.3667073e-16
3.5560809e-16
3.7791245e-16
4.0348075e-16
4.3281586e-16
4.6659108e-16
5.0561259e-16
5.5087466e-16
6.03583e-16
6.6518758e-16
7.37208e-16
8.206399e-16
9.1803331e-16
1.0369273e-15
1.1787868e-15
1.3487135e-15
1.5536841e-15
1.8028565e-15
2.1080522e-15
2.4834145e-15
2.941895e-15
3.4976383e-15
4.2006183e-15
5.0690242e-15
6.135525e-15
7.4367705e-15
9.0060415e-15
1.0862829e-14
1.3013539e-14
1.5438738e-14
1.8039345e-14
2.0628726e-14
2.3018754e-14
2.5087477e-14
2.6818256e-14
2.8251384e-14
2.9437968e-14
3.0429005e-14
3.1262242e-14
3.1964017e-14
3.2543087e-14
3.3011993e-14
3.3379339e-14
3.3644504e-14
3.3801539e-14
3.3852716e-14
3.381237e-14
3.3698257e-14
3.3527149e-14
3.3313257e-14
3.3068366e-14
3.2802153e-14
3.2521995e-14
3.2233313e-14
3.1940274e-14
3.1646135e-14
3.1353373e-14
3.1063264e-14
3.0776721e-14
3.0494362e-14
3.0216909e-14
2.9943039e-14
2.9673986e-14
2.940324e-14
2.913064e-14
2.8871617e-14
2.8490537e-14
1.9769982e-07
1.9747667e-07
1.9749648e-07
1.9753674e-07
1.9755868e-07
1.9756889e-07
1.9757419e-07
1.9757756e-07
1.9758012e-07
1.9758235e-07
1.975845e-07
1.9758676e-07
1.9758931e-07
1.9759236e-07
1.9759618e-07
1.9760114e-07
1.9760796e-07
1.9761707e-07
1.9763306e-07
1.9764457e-07
1.9774451e-07
1.974367e-07
1.9930815e-07
7.8464572e-09
5.3180199e-13
4.927416e-15
2.2071053e-15
1.438589e-15
1.1309688e-15
9.6499469e-16
8.5136031e-16
7.6532907e-16
6.9859687e-16
6.4564939e-16
6.0262005e-16
5.672358e-16
5.3801582e-16
5.1381553e-16
4.9370957e-16
4.7710831e-16
4.6307577e-16
4.5099961e-16
4.40696e-16
4.3208914e-16
4.2507467e-16
4.1947273e-16
4.1518253e-16
4.1211722e-16
4.1017824e-16
4.0934348e-16
4.0930421e-16
4.0991568e-16
4.1142071e-16
4.1419402e-16
4.1824377e-16
4.234116e-16