/*--------------------------------*- C++ -*----------------------------------*\
| =========                 |                                                 |
| \\      /  F ield         | OpenFOAM: The Open Source CFD Toolbox           |
|  \\    /   O peration     | Version:  2206                                  |
|   \\  /    A nd           | Website:  www.openfoam.com                      |
|    \\/     M anipulation  |                                                 |
\*---------------------------------------------------------------------------*/
FoamFile
{
    version     2.0;
    format      ascii;
    arch        "LSB;label=32;scalar=64";
    class       volScalarField;
    location    "300";
    object      omega;
}
// * * * * * * * * * * * * * * * * * * * * * * * * * * * * * * * * * * * * * //

dimensions      [0 0 -1 0 0 0 0];

internalField   nonuniform List<scalar> 
13056
(
663.81038
648.13567
646.52413
646.6461
646.71678
646.72629
646.72551
646.72589
646.72837
646.73271
646.73879
646.74662
646.75638
646.76833
646.78295
646.80099
646.82355
646.85332
646.89164
646.96085
646.98792
647.59884
647.71839
16451.803
1.1944345e+09
1.1944345e+09
1.1944345e+09
1.1944345e+09
1.1944345e+09
1.1944345e+09
1.1944345e+09
1.1944345e+09
1.1944345e+09
1.1944345e+09
1.1944345e+09
1.1944345e+09
1.1944345e+09
1.1944345e+09
1.1944345e+09
1.1944345e+09
1.1944345e+09
1.1944345e+09
1.1944345e+09
1.1944345e+09
1.1944345e+09
1.1944345e+09
1.1944345e+09
1.1944345e+09
1.1944345e+09
1.1944345e+09
1.1944345e+09
1.1944345e+09
1.1944345e+09
1.1944345e+09
1.1944345e+09
1.1944345e+09
1.1944345e+09
1.1944345e+09
1.1944345e+09
1.1944345e+09
1.1944345e+09
1.1944345e+09
1.1944345e+09
1.1944345e+09
1.1944345e+09
1.1944345e+09
1.1944345e+09
1.1944345e+09
1.1944345e+09
1.1944345e+09
1.1944345e+09
1.1944345e+09
1.1944345e+09
1.1944345e+09
1.1944345e+09
1.1944345e+09
1.1944345e+09
1.1944345e+09
1.1944345e+09
1.1944345e+09
1.1944345e+09
1.1944345e+09
1.1944345e+09
1.1944345e+09
1.1944345e+09
1.1944345e+09
1.1944345e+09
1.1944345e+09
1.1944345e+09
1.1944345e+09
1.1944345e+09
1.1944345e+09
1.1944345e+09
1.1944345e+09
1.1944345e+09
1.1944345e+09
1.1944345e+09
1.1944345e+09
1.1944345e+09
1.1944345e+09
1.1944345e+09
1.1944345e+09
1.1944345e+09
1.1944345e+09
1.1944345e+09
1.1944345e+09
1.1944345e+09
1.1944345e+09
1.1944345e+09
1.1944345e+09
1.1944345e+09
1.1944345e+09
1.1944345e+09
1.1944345e+09
1.1944345e+09
1.1944345e+09
1.1944345e+09
1.1944345e+09
1.1944345e+09
1.1944345e+09
1.1944345e+09
1.1944345e+09
1.1944345e+09
1.1944345e+09
1.1944345e+09
1.1944345e+09
1.1944345e+09
1.1944345e+09
1.1944345e+09
1.1944345e+09
1.1944345e+09
1.1944345e+09
1.1944345e+09
1.1944345e+09
1.1944345e+09
1.1944345e+09
663.74749
648.05535
646.44195
646.56403
646.63478
646.64429
646.64351
646.64387
646.64635
646.6507
646.65677
646.66461
646.67436
646.68633
646.70095
646.71901
646.74158
646.77138
646.80974
646.87901
646.9061
647.51759
647.63577
16163.877
1.9587404e+08
1.962698e+08
1.9626977e+08
1.9626976e+08
1.9626978e+08
1.962698e+08
1.9626982e+08
1.9626984e+08
1.9626986e+08
1.9626988e+08
1.962699e+08
1.9626992e+08
1.9626994e+08
1.9626996e+08
1.9626997e+08
1.9626999e+08
1.9627002e+08
1.9627004e+08
1.9627006e+08
1.9627008e+08
1.962701e+08
1.9627013e+08
1.9627016e+08
1.9627018e+08
1.9627021e+08
1.9627025e+08
1.9627029e+08
1.9627032e+08
1.9627036e+08
1.962704e+08
1.9627044e+08
1.9627047e+08
1.9627051e+08
1.9627056e+08
1.962706e+08
1.9627065e+08
1.9627071e+08
1.9627077e+08
1.9627083e+08
1.962709e+08
1.9627099e+08
1.9627108e+08
1.9627119e+08
1.9627132e+08
1.9627148e+08
1.9627168e+08
1.9627184e+08
1.96272e+08
1.9627217e+08
1.9627237e+08
1.9627261e+08
1.9627288e+08
1.9627321e+08
1.9627361e+08
1.9627412e+08
1.9627483e+08
1.9627601e+08
1.9627718e+08
1.9627801e+08
1.9627902e+08
1.9628025e+08
1.9628177e+08
1.9628369e+08
1.9628625e+08
1.9629007e+08
1.9629803e+08
1.9630813e+08
1.9631306e+08
1.9631921e+08
1.9632682e+08
1.9633626e+08
1.9634797e+08
1.9636264e+08
1.9638158e+08
1.9640742e+08
1.9644419e+08
1.9649415e+08
1.9654962e+08
1.9659277e+08
1.9661798e+08
1.9662945e+08
1.966351e+08
1.9663861e+08
1.9664135e+08
1.966437e+08
1.9664576e+08
1.9664755e+08
1.9664908e+08
1.9665034e+08
1.9665129e+08
1.9665193e+08
1.9665228e+08
1.9665242e+08
1.9665239e+08
1.9665225e+08
1.9665203e+08
1.9665175e+08
1.9665143e+08
1.966511e+08
1.9665076e+08
1.9665042e+08
1.9665008e+08
1.9664974e+08
1.9664942e+08
1.9664911e+08
1.9664881e+08
1.9664853e+08
1.9664831e+08
1.9664802e+08
1.9664809e+08
1.9664789e+08
1.9664757e+08
663.54716
647.8017
646.1827
646.3051
646.37603
646.38556
646.38475
646.3851
646.38757
646.39191
646.39799
646.40583
646.4156
646.42758
646.44223
646.46032
646.48295
646.51283
646.55128
646.62078
646.6479
647.26105
647.37896
15836.224
64186861
64221697
64221589
64221566
64221588
64221628
64221666
64221698
64221724
64221745
64221763
64221778
64221793
64221807
64221823
64221840
64221858
64221878
64221898
64221921
64221946
64221986
64222039
64222108
64222199
64222320
64222478
64222658
64222813
64222890
64222921
64222951
64222984
64223019
64223059
64223104
64223154
64223212
64223278
64223371
64223516
64223722
64224036
64224560
64225471
64226729
64227314
64227437
64227575
64227738
64227954
64228283
64228752
64229509
64230896
64233992
64242056
64249339
64250088
64251053
64252375
64254305
64257424
64263393
64278523
64334943
64412264
64417108
64423965
64433993
64449273
64473688
64514755
64587805
64724077
64974845
65376715
65858563
66236229
66442061
66517520
66539934
66545520
66546989
66547631
66548098
66548493
66548832
66549111
66549322
66549462
66549541
66549572
66549566
66549533
66549484
66549423
66549354
66549280
66549205
66549130
66549054
66548980
66548908
66548840
66548775
66548711
66548665
66548599
66548616
66548571
66548501
663.2031
647.36667
645.7381
645.86106
645.93232
645.94185
645.94101
645.94133
645.94379
645.94812
645.9542
645.96205
645.97184
645.98385
645.99854
646.0167
646.03942
646.06942
646.10805
646.17791
646.20509
646.82106
646.93967
15496.743
29609637
29344063
29343615
29343503
29343593
29343762
29343919
29344046
29344147
29344224
29344280
29344324
29344363
29344402
29344445
29344493
29344545
29344602
29344665
29344736
29344816
29344977
29345200
29345499
29345909
29346478
29347230
29348096
29348829
29349156
29349237
29349301
29349374
29349458
29349553
29349663
29349791
29349943
29350124
29350433
29350990
29351839
29353230
29355678
29360090
29366280
29368970
29369197
29369443
29369745
29370236
29371204
29372765
29375655
29381585
29396041
29435713
29471398
29472854
29474856
29477988
29483312
29493487
29516528
29583907
29858194
30238731
30240450
30242764
30246149
30251306
30259545
30273401
30298040
30343976
30428413
30563473
30724997
30851281
30919990
30945159
30952633
30954496
30954986
30955200
30955355
30955487
30955600
30955693
30955764
30955810
30955836
30955847
30955845
30955834
30955818
30955797
30955774
30955750
30955725
30955699
30955674
30955649
30955626
30955603
30955581
30955560
30955544
30955523
30955528
30955513
30955490
662.70555
646.73762
645.09522
645.21899
645.29071
645.30026
645.29937
645.29965
645.30208
645.30641
645.31249
645.32036
645.33017
645.34223
645.35698
645.37523
645.39807
645.42826
645.46714
645.53753
645.56478
646.18481
646.30488
15149.661
16547643
16062516
16061043
16060668
16060968
16061533
16062054
16062477
16062809
16063058
16063237
16063373
16063490
16063608
16063738
16063883
16064044
16064221
16064417
16064639
16064893
16065423
16066164
16067167
16068552
16070479
16073033
16075984
16078472
16079558
16079795
16079974
16080177
16080410
16080680
16080996
16081369
16081815
16082355
16083324
16085138
16087948
16092606
16100885
16115903
16137029
16146103
16146655
16147236
16147967
16149294
16152194
16157055
16166084
16185157
16233170
16367472
16487715
16488641
16489498
16490839
16493117
16497468
16507315
16536073
16652868
16815466
16816201
16817183
16818620
16820809
16824305
16830183
16840632
16860105
16895882
16953078
17021439
17074855
17103903
17114538
17117694
17118480
17118686
17118776
17118842
17118898
17118945
17118984
17119014
17119034
17119045
17119049
17119048
17119044
17119037
17119028
17119019
17119008
17118998
17118987
17118976
17118966
17118956
17118946
17118937
17118928
17118922
17118912
17118915
17118908
17118898
662.04127
645.89744
644.23654
644.3614
644.43374
644.44331
644.44234
644.44257
644.44498
644.44929
644.45537
644.46326
644.47311
644.48522
644.50006
644.51843
644.54144
644.57188
644.61108
644.68217
644.70951
645.33496
645.45695
14794.25
10221687
9801156.7
9797262.4
9796262.3
9797062.4
9798566.8
9799956.7
9801077
9801954.1
9802601.8
9803059.2
9803395.6
9803681.3
9803967.9
9804282
9804637.7
9805033.9
9805471.7
9805960.8
9806516.3
9807155.4
9808545.8
9810509.3
9813185.5
9816898.8
9822090.7
9828990.2
9836968.2
9843676
9846540.3
9847077.8
9847443.3
9847863.4
9848351.3
9848923.3
9849601.1
9850413.3
9851398.2
9852608.4
9854955.8
9859573
9866862.5
9879146.3
9901258.9
9941709.9
9998746.1
10022663
10023124
10023411
10023774
10024428
10025863
10028267
10032729
10042146
10065820
10131973
10191688
10192159
10192581
10193240
10194359
10196496
10201327
10215412
10272490
10352757
10353122
10353602
10354305
10355375
10357084
10359957
10365061
10374570
10392039
10419977
10453391
10479521
10493734
10498936
10500478
10500861
10500962
10501006
10501038
10501065
10501088
10501108
10501122
10501132
10501137
10501139
10501139
10501137
10501133
10501129
10501124
10501119
10501114
10501109
10501104
10501098
10501094
10501089
10501084
10501080
10501077
10501072
10501073
10501070
10501065
661.1937
644.82466
643.14006
643.2663
643.33944
643.34903
643.34798
643.34814
643.3505
643.3548
643.36088
643.3688
643.37869
643.39088
643.40583
643.42435
643.44757
643.47833
643.51794
643.58993
643.61738
644.24973
644.37362
14428.495
6736299.9
6429652.5
6420809
6418528.2
6420355
6423791.7
6426962
6429504.2
6431474.1
6432900.8
6433876
6434560.8
6435119.1
6435671.1
6436278.2
6436971.4
6437750.6
6438619.2
6439598.4
6440720.6
6442023.4
6445083.9
6449475.6
6455527.3
6464002.2
6475939
6491880.3
6510335
6525736.2
6531987.8
6532675.2
6532875.1
6533104
6533369.7
6533681.2
6534050.3
6534492.6
6535028.9
6535687.7
6536960.7
6539471.1
6543432.6
6550104.2
6562104.9
6584046.6
6615035.5
6628156
6628413
6628568.8
6628765.1
6629118.2
6629894.5
6631194.4
6633605.3
6638689
6651449
6687091.8
6719663.1
6719929.8
6720157
6720512
6721114.6
6722263.9
6724858.6
6732407.5
6762933.3
6806510.2
6806710.9
6806968.8
6807345.9
6807920
6808836.4
6810376.3
6813111.3
6818205.4
6827566.2
6842550.1
6860500.1
6874562.5
6882218.4
6885020.6
6885849.9
6886055.5
6886109.4
6886133
6886150.1
6886164.7
6886177.2
6886187.4
6886195.2
6886200.4
6886203.3
6886204.4
6886204.2
6886203
6886201.2
6886198.9
6886196.3
6886193.6
6886190.8
6886188
6886185.2
6886182.5
6886179.8
6886177.3
6886174.9
6886172.5
6886170.8
6886168.4
6886169
6886167.3
6886164.7
660.14309
643.49351
641.77938
641.90735
641.98148
641.9911
641.98993
641.99001
641.99232
641.9966
642.00269
642.01063
642.02059
642.03286
642.04794
642.06665
642.09014
642.12128
642.16141
642.2345
642.26207
642.903
643.02811
14050.032
4639220.1
4456109
4438910.8
4434415.2
4438022
4444795.5
4450992.9
4455869.5
4459512.1
4461967.8
4463424.4
4464210.4
4464656.4
4465000
4465354.8
4465757.7
4466210.4
4466715.2
4467284.2
4467936.1
4468693
4470468.3
4473018.1
4476530.4
4481447.5
4488370.5
4497613.1
4508313.5
4517253.9
4520897.2
4521300.3
4521416.1
4521548.5
4521702.3
4521882.7
4522096.3
4522352.2
4522662.5
4523043.7
4523776.7
4525227.1
4527514.5
4531364.4
4538284.6
4550933.7
4568843.2
4576517.8
4576671.3
4576761.1
4576874.3
4577076.6
4577523.3
4578270.9
4579656.2
4582573.8
4589885.2
4610308
4629260.8
4629423.8
4629554.1
4629757.7
4630102.9
4630760.8
4632243.7
4636547.5
4653911.6
4679169.1
4679288.5
4679436.1
4679651.7
4679979.9
4680503.6
4681383.2
4682944.8
4685852.6
4691198
4699766.4
4710054.8
4718135.7
4722541.2
4724154
4724630.5
4724748.3
4724779.1
4724792.6
4724802.5
4724810.8
4724817.9
4724823.8
4724828.3
4724831.2
4724832.9
4724833.5
4724833.4
4724832.7
4724831.7
4724830.4
4724828.9
4724827.3
4724825.7
4724824.1
4724822.5
4724820.9
4724819.4
4724817.9
4724816.6
4724815.2
4724814.2
4724812.8
4724813.2
4724812.2
4724810.7
658.86656
641.87405
640.12378
640.25388
640.32921
640.33887
640.33756
640.33753
640.33979
640.34403
640.35013
640.35811
640.36814
640.38052
640.39576
640.4147
640.4385
640.47012
640.51087
640.5853
640.61298
641.26436
641.38909
13656.496
3295891.5
3184956.5
3174479.8
3171738.8
3173927
3178039.4
3181799.6
3184756.3
3186963.6
3188451.1
3189333.1
3189809.1
3190079.3
3190287.6
3190502.8
3190747.1
3191021.7
3191327.8
3191672.8
3192068.1
3192526.9
3193601.5
3195146.3
3197273.7
3200251.1
3204441.9
3210035.8
3216513.8
3221934.7
3224154
3224401.4
3224471.4
3224551.5
3224644.4
3224753.4
3224882.6
3225037.2
3225224.7
3225455
3225895.5
3226770.3
3228149.4
3230468.8
3234635.3
3242250
3253065.4
3257764.8
3257861.3
3257915.4
3257983.6
3258104.6
3258373.2
3258822.3
3259653.7
3261402.7
3265777.9
3278001.9
3289549.9
3289655.4
3289733.6
3289855.6
3290062.4
3290456
3291341.6
3293905.1
3304223.1
3319559.4
3319635
3319723.3
3319852.3
3320048.6
3320361.7
3320887.3
3321819.9
3323556.1
3326749.4
3331876.9
3338051.4
3342916.6
3345573.9
3346547.1
3346834.1
3346904.9
3346923.3
3346931.4
3346937.3
3346942.3
3346946.6
3346950.1
3346952.8
3346954.6
3346955.6
3346955.9
3346955.9
3346955.4
3346954.8
3346954
3346953.1
3346952.2
3346951.2
3346950.3
3346949.3
3346948.4
3346947.4
3346946.6
3346945.7
3346944.9
3346944.3
3346943.5
3346943.7
3346943.1
3346942.2
657.33829
639.93219
638.13829
638.27095
638.34772
638.35742
638.35595
638.35579
638.35797
638.36219
638.36829
638.37632
638.38642
638.39894
638.41437
638.43358
638.45776
638.48995
638.53143
638.60747
638.63526
639.2992
639.42069
13245.691
2394998.7
2325523.9
2318928.8
2317203.6
2318572.2
2321147.2
2323500.2
2325349.3
2326728.9
2327658.1
2328209
2328506.4
2328675.3
2328805.5
2328940.1
2329093
2329264.8
2329456.2
2329672
2329919.3
2330206.3
2330877.1
2331842.7
2333172
2335032
2337649.3
2341142.7
2345190.1
2348583.4
2349979.7
2350136.6
2350180.3
2350230.3
2350288.3
2350356.3
2350436.8
2350533.3
2350650.2
2350793.8
2351066.9
2351611.5
2352469.4
2353911.4
2356500
2361230.9
2367974.8
2370950.6
2371013.6
2371047.2
2371089.6
2371164.3
2371331
2371609.6
2372124.7
2373206.8
2375909
2383461.5
2390737.9
2390809.4
2390857.8
2390933.4
2391061.3
2391304.5
2391850.6
2393426.9
2399755.4
2409388.1
2409438.6
2409493.2
2409573
2409694.3
2409887.7
2410212.2
2410787.7
2411858.8
2413830.1
2417001.7
2420833.4
2423863.9
2425522.7
2426130.7
2426309.7
2426353.7
2426365.1
2426370.1
2426373.8
2426376.9
2426379.5
2426381.7
2426383.4
2426384.5
2426385.1
2426385.3
2426385.3
2426385
2426384.6
2426384.2
2426383.6
2426383
2426382.4
2426381.8
2426381.2
2426380.6
2426380.1
2426379.5
2426379
2426378.5
2426378.1
2426377.6
2426377.7
2426377.3
2426376.8
655.52956
637.6297
635.78366
635.91939
635.99788
636.00763
636.00596
636.00565
636.00774
636.01192
636.01803
636.0261
636.03631
636.04898
636.06463
636.08417
636.10879
636.14165
636.184
636.26192
636.28981
636.9687
637.08241
12815.681
1769736.4
1725106.4
1720845.4
1719732.7
1720608.1
1722257.6
1723764.3
1724947.5
1725829.8
1726423.8
1726775.9
1726965.9
1727073.9
1727157.3
1727243.5
1727341.3
1727451.3
1727573.8
1727712
1727870.3
1728054
1728482.5
1729100.1
1729950.3
1731139.5
1732812.5
1735045.6
1737634.3
1739809.3
1740709.3
1740811.4
1740839.3
1740871.2
1740908.3
1740951.7
1741003.1
1741064.7
1741139.4
1741231.1
1741404.3
1741751.3
1742297.6
1743215.3
1744861.6
1747870.5
1752176.9
1754108.9
1754151.1
1754172.6
1754199.6
1754246.8
1754352.7
1754529.6
1754856.4
1755541.9
1757250.3
1762027.6
1766728.2
1766778.3
1766809
1766856.9
1766938
1767091.9
1767436.8
1768429.1
1772402.7
1778606.8
1778642.1
1778676.7
1778727.2
1778804.1
1778926.5
1779131.8
1779495.6
1780172.7
1781419.5
1783429.9
1785867.6
1787803.6
1788866.1
1789255.9
1789370.5
1789398.5
1789405.8
1789409
1789411.3
1789413.3
1789415
1789416.4
1789417.5
1789418.2
1789418.5
1789418.7
1789418.7
1789418.5
1789418.2
1789417.9
1789417.6
1789417.2
1789416.8
1789416.4
1789416.1
1789415.7
1789415.3
1789415
1789414.6
1789414.3
1789414.1
1789413.7
1789413.8
1789413.6
1789413.2
653.4089
634.92433
633.01648
633.15584
633.23634
633.24615
633.24424
633.24375
633.24574
633.24987
633.25599
633.26412
633.27444
633.28729
633.3032
633.32311
633.34826
633.38189
633.42525
633.5054
633.53334
634.22986
634.32907
12364.874
1324324.6
1295069.7
1292255
1291523.3
1292092.4
1293167.4
1294148.8
1294919.1
1295493.2
1295879.6
1296108.5
1296232.1
1296302.3
1296356.6
1296412.7
1296476.4
1296548
1296627.9
1296717.9
1296820.9
1296940.6
1297219.1
1297621.2
1298174.4
1298948.1
1300036.5
1301489.3
1303174.6
1304593.8
1305184.7
1305252.3
1305270.5
1305291.2
1305315.3
1305343.5
1305376.9
1305417
1305465.5
1305525.1
1305636.9
1305861.9
1306216
1306810.4
1307875.9
1309823.7
1312623.4
1313901.6
1313930.6
1313944.5
1313962
1313992.4
1314060.9
1314175.3
1314386.3
1314828.3
1315927.7
1319003.3
1322097.4
1322133.5
1322153.4
1322184.4
1322236.6
1322335.8
1322557.5
1323193.4
1325732.8
1329804.5
1329830.2
1329852.5
1329885.2
1329934.7
1330013.6
1330145.9
1330380.2
1330816
1331619.2
1332917.3
1334497.4
1335758.2
1336452.1
1336707
1336781.8
1336800.1
1336804.8
1336806.9
1336808.4
1336809.7
1336810.8
1336811.7
1336812.4
1336812.8
1336813.1
1336813.2
1336813.1
1336813
1336812.9
1336812.7
1336812.4
1336812.2
1336811.9
1336811.7
1336811.4
1336811.2
1336811
1336810.7
1336810.5
1336810.3
1336810.1
1336809.9
1336810
1336809.8
1336809.6
650.94229
631.76976
629.78912
629.93273
630.01559
630.02547
630.02327
630.02257
630.02443
630.02851
630.03463
630.04283
630.05328
630.06634
630.08256
630.1029
630.12866
630.16319
630.20771
630.29043
630.31836
631.03557
631.1107
11892.095
1000622.8
981122.48
979223.89
978734.65
979108.9
979818.49
980466.17
980974.22
981352.7
981607.28
981758.06
981839.43
981885.72
981921.49
981958.48
982000.52
982047.78
982100.46
982159.85
982227.89
982306.86
982490.31
982755.51
983120.38
983630.54
984348.07
985305.94
986418.03
987356.85
987750.22
987795.71
987807.68
987821.35
987837.21
987855.81
987877.83
987904.21
987936.17
987975.4
988048.5
988196.41
988429.02
988819.18
989518.18
990796.14
992641.24
993499.19
993519.52
993528.67
993540.17
993559.93
993604.9
993679.84
993817.95
994106.78
994823.81
996830.78
998896.62
998923.26
998936.27
998956.53
998990.74
999055.48
999199.99
999613.07
1001257.7
1003968.4
1003987.7
1004002.4
1004023.7
1004056.1
1004107.7
1004194.1
1004347.1
1004631.6
1005156.3
1006006.3
1007045.3
1007878.4
1008338.5
1008507.7
1008557.3
1008569.4
1008572.5
1008573.9
1008574.9
1008575.7
1008576.4
1008577
1008577.5
1008577.8
1008577.9
1008578
1008578
1008577.9
1008577.8
1008577.7
1008577.5
1008577.4
1008577.2
1008577
1008576.9
1008576.7
1008576.5
1008576.4
1008576.3
1008576.1
1008576
1008575.9
1008575.9
1008575.8
1008575.6
648.09334
628.11574
626.04985
626.19839
626.284
626.29395
626.29142
626.29047
626.29218
626.29619
626.30232
626.31058
626.32118
626.33449
626.35106
626.3719
626.39835
626.43392
626.47977
626.56545
626.59328
627.33461
627.37251
11396.659
761702.63
748512.69
747203.28
746870.94
747118.86
747591.69
748023.28
748361.68
748613.64
748783.04
748883.31
748937.41
748968.17
748991.96
749016.59
749044.58
749076.07
749111.17
749150.76
749196.11
749248.76
749370.8
749547.52
749790.63
750130.48
750608.41
751246.53
751988.04
752615.67
752880.4
752911.35
752919.32
752928.41
752938.97
752951.34
752966
752983.55
753004.82
753030.93
753079.21
753177.44
753331.83
753590.59
754053.87
754901.06
756129.93
756712.25
756726.67
756732.75
756740.39
756753.39
756783.19
756832.82
756924.15
757114.88
757587.38
758910.54
760305
760324.97
760333.59
760346.99
760369.61
760412.34
760507.51
760778.63
761854.73
763679.17
763694.11
763703.79
763717.91
763739.35
763773.43
763830.51
763931.47
764119.18
764465.62
765028.27
765719.03
766275.78
766584.37
766698.1
766731.41
766739.5
766741.58
766742.48
766743.15
766743.71
766744.19
766744.59
766744.89
766745.09
766745.2
766745.24
766745.23
766745.18
766745.11
766745.02
766744.92
766744.81
766744.7
766744.59
766744.47
766744.36
766744.26
766744.16
766744.06
766743.96
766743.89
766743.8
766743.82
766743.75
766743.64
644.8236
623.90819
621.74292
621.89715
621.98593
621.99596
621.99304
621.99179
621.99333
621.99726
622.00339
622.01174
622.02251
622.03609
622.05306
622.07448
622.10172
622.13847
622.18583
622.27491
622.30248
623.07184
623.05483
10878.449
583216.75
574173.23
573246.16
573016.53
573181.22
573498.38
573788.02
574015.04
574184
574297.52
574364.67
574400.86
574421.43
574437.33
574453.82
574472.58
574493.7
574517.26
574543.84
574574.3
574609.66
574691.47
574810.17
574973.43
575201.62
575522.5
575951.02
576449.45
576872.49
577052.17
577073.4
577078.75
577084.84
577091.92
577100.22
577110.05
577121.82
577136.08
577153.59
577185.72
577251.48
577354.77
577527.77
577837.29
578403.42
579228.54
579627.21
579637.57
579641.63
579646.75
579655.36
579675.27
579708.4
579769.3
579896.26
580210.11
581089.42
582038.63
582053.79
582059.55
582068.49
582083.56
582111.99
582175.19
582354.57
583064.28
584302.49
584314.28
584320.74
584330.16
584344.45
584367.17
584405.18
584472.37
584597.25
584827.91
585203.48
585666.64
586042.03
586250.91
586328.08
586350.66
586356.13
586357.53
586358.14
586358.59
586358.96
586359.29
586359.56
586359.76
586359.89
586359.97
586359.99
586359.99
586359.95
586359.9
586359.84
586359.77
586359.7
586359.62
586359.55
586359.47
586359.39
586359.32
586359.25
586359.19
586359.12
586359.07
586359.01
586359.02
586358.97
586358.9
641.093
619.08946
616.80882
616.96955
617.06197
617.07208
617.06871
617.06711
617.06844
617.07228
617.0784
617.08684
617.09781
617.11169
617.12912
617.15118
617.17933
617.21742
617.26648
617.35943
617.38653
618.18835
618.0932
10337.987
448610.44
442326.49
441648.07
441486.08
441595.19
441808.76
442004.04
442157.09
442270.95
442347.39
442392.55
442416.85
442430.63
442441.28
442452.35
442464.97
442479.2
442495.08
442513.01
442533.57
442557.46
442612.62
442692.83
442803.14
442957.3
443174.07
443463.64
443800.78
444087.75
444210.51
444225.18
444228.78
444232.88
444237.65
444243.24
444249.87
444257.81
444267.44
444279.25
444300.76
444345.05
444414.59
444530.96
444739.04
445119.72
445677.27
445952.05
445959.55
445962.29
445965.73
445971.47
445984.86
446007.11
446047.97
446133.01
446342.79
446930.74
447581.07
447592.7
447596.56
447602.57
447612.67
447631.72
447673.94
447793.37
448264.32
449110.05
449119.51
449123.85
449130.17
449139.76
449155
449180.48
449225.49
449309.11
449463.68
449716.01
450028.65
450283.51
450425.93
450478.69
450494.12
450497.85
450498.81
450499.22
450499.53
450499.79
450500.01
450500.19
450500.32
450500.41
450500.46
450500.48
450500.48
450500.45
450500.42
450500.38
450500.33
450500.28
450500.22
450500.17
450500.12
450500.07
450500.02
450499.97
450499.92
450499.88
450499.84
450499.8
450499.8
450499.77
450499.72
636.86035
613.59862
611.18456
611.35261
611.4492
611.4594
611.4555
611.4535
611.45458
611.4583
611.46442
611.47297
611.48415
611.49838
611.51631
611.53911
611.56827
611.60787
611.65883
611.75616
611.78252
612.62179
612.41854
9776.5081
346336.57
341909.44
341391.66
341274.19
341345.69
341489.63
341621.59
341725.04
341801.97
341853.56
341883.98
341900.29
341909.5
341916.62
341924.03
341932.52
341942.11
341952.84
341964.97
341978.9
341995.09
342032.44
342086.89
342161.77
342266.41
342413.55
342610.17
342839.34
343034.99
343119.29
343129.48
343131.91
343134.67
343137.9
343141.68
343146.16
343151.54
343158.06
343166.07
343180.53
343210.5
343257.54
343336.2
343476.76
343733.99
344112.6
344302.99
344308.47
344310.32
344312.64
344316.49
344325.53
344340.55
344368.09
344425.33
344566.23
344961.26
345409.06
345418.04
345420.64
345424.69
345431.5
345444.31
345472.66
345552.57
345866.58
346447.08
346454.73
346457.66
346461.93
346468.39
346478.66
346495.83
346526.14
346582.42
346686.53
346856.93
347069.07
347243.06
347340.73
347377.03
347387.65
347390.21
347390.87
347391.15
347391.36
347391.54
347391.69
347391.81
347391.91
347391.97
347392
347392.01
347392.01
347391.99
347391.97
347391.94
347391.9
347391.87
347391.83
347391.79
347391.75
347391.72
347391.68
347391.65
347391.61
347391.58
347391.56
347391.52
347391.53
347391.5
347391.46
632.08417
607.37204
604.80417
604.98042
605.08175
605.09203
605.08751
605.08504
605.08584
605.08943
605.09553
605.10418
605.1156
605.13022
605.14873
605.17235
605.20263
605.24393
605.29699
605.39925
605.42449
606.3069
605.95751
9196.0059
268169.4
265004.28
264588.26
264499.78
264545.46
264642.17
264731.26
264801.17
264853.14
264887.94
264908.39
264919.28
264925.37
264930.08
264935.01
264940.69
264947.14
264954.38
264962.58
264972.02
264983.01
265008.37
265045.45
265096.45
265167.74
265267.99
265402
265558.37
265692.28
265750.41
265757.5
265759.14
265761
265763.18
265765.74
265768.78
265772.43
265776.85
265782.29
265792.04
265812.4
265844.33
265897.71
265993.02
266167.49
266425.59
266558.06
266562.08
266563.32
266564.9
266567.48
266573.6
266583.77
266602.41
266641.09
266736.08
267002.49
267312.01
267318.98
267320.74
267323.48
267328.08
267336.74
267355.85
267409.52
267619.67
268019.59
268025.83
268027.81
268030.7
268035.08
268042.03
268053.64
268074.13
268112.16
268182.57
268298.12
268442.66
268561.96
268629.26
268654.36
268661.71
268663.48
268663.94
268664.13
268664.28
268664.4
268664.51
268664.59
268664.66
268664.7
268664.72
268664.73
268664.72
268664.71
268664.69
268664.67
268664.64
268664.62
268664.59
268664.56
268664.54
268664.51
268664.48
268664.46
268664.43
268664.41
268664.39
268664.37
268664.37
268664.35
268664.32
626.72362
600.34411
597.59939
597.78473
597.89142
597.90178
597.89655
597.89353
597.894
597.89741
597.90349
597.91226
597.92394
597.93899
597.95813
597.98266
598.01421
598.05739
598.11276
598.22054
598.24416
599.17618
598.63312
8599.2697
208146.61
205848.01
205493.66
205423.57
205451.19
205515.56
205575.4
205622.44
205657.41
205680.77
205694.4
205701.57
205705.52
205708.55
205711.76
205715.52
205719.82
205724.67
205730.19
205736.57
205744.02
205761.27
205786.56
205821.39
205870.07
205938.56
206030.16
206137.17
206229.11
206269.31
206274.26
206275.35
206276.6
206278.06
206279.79
206281.84
206284.31
206287.32
206291.02
206297.6
206311.47
206333.2
206369.52
206434.34
206553.03
206729.51
206821.97
206824.93
206825.77
206826.84
206828.57
206832.72
206839.63
206852.28
206878.48
206942.72
207122.91
207337.49
207342.91
207344.1
207345.96
207349.08
207354.94
207367.85
207404.01
207545.06
207821.36
207826.45
207827.79
207829.75
207832.73
207837.45
207845.33
207859.23
207885.02
207932.78
208011.38
208110.19
208192.28
208238.83
208256.27
208261.39
208262.62
208262.94
208263.08
208263.19
208263.27
208263.34
208263.4
208263.45
208263.48
208263.49
208263.49
208263.49
208263.48
208263.46
208263.45
208263.43
208263.41
208263.39
208263.36
208263.34
208263.32
208263.3
208263.28
208263.26
208263.24
208263.23
208263.21
208263.21
208263.19
208263.17
620.73977
592.44822
589.50062
589.69594
589.80866
589.81909
589.81303
589.80937
589.80945
589.81266
589.81871
589.82759
589.83955
589.85507
589.87492
589.90046
589.93339
589.97866
590.03655
590.15048
590.17183
591.16082
590.36567
7989.8844
161884.41
160187.72
159867.31
159808.16
159822.84
159864.81
159904.49
159935.82
159959.1
159974.59
159983.52
159988.1
159990.53
159992.38
159994.4
159996.8
159999.61
160002.81
160006.49
160010.77
160015.79
160027.5
160044.78
160068.58
160101.88
160148.76
160211.5
160284.9
160348.15
160376.02
160379.46
160380.18
160381
160381.97
160383.12
160384.51
160386.17
160388.21
160390.72
160395.17
160404.62
160419.44
160444.21
160488.38
160569.31
160690.27
160754.97
160757.15
160757.71
160758.43
160759.58
160762.41
160767.1
160775.7
160793.49
160837.03
160959.18
161108.27
161112.5
161113.3
161114.55
161116.67
161120.64
161129.39
161153.8
161248.69
161439.97
161444.13
161445.04
161446.37
161448.4
161451.61
161456.98
161466.43
161483.97
161516.46
161570.07
161637.8
161694.45
161726.75
161738.92
161742.49
161743.36
161743.59
161743.69
161743.77
161743.83
161743.88
161743.92
161743.95
161743.97
161743.98
161743.98
161743.98
161743.97
161743.95
161743.94
161743.92
161743.91
161743.89
161743.87
161743.85
161743.83
161743.82
161743.8
161743.78
161743.77
161743.76
161743.74
161743.73
161743.72
161743.7
614.0972
583.61801
580.4382
580.64434
580.76379
580.77428
580.76725
580.76285
580.76247
580.76544
580.77143
580.78044
580.7927
580.80874
580.82936
580.856
580.89046
580.93802
580.99863
581.11937
581.13761
582.19197
581.07403
7372.1971
126121.7
124849.42
124543.37
124489.8
124494.85
124521.07
124546.71
124567.1
124582.27
124592.26
124597.9
124600.64
124601.98
124602.97
124604.12
124605.57
124607.32
124609.37
124611.76
124614.58
124617.92
124625.85
124637.63
124653.89
124676.68
124708.8
124751.82
124802.24
124845.83
124865.16
124867.55
124868
124868.52
124869.15
124869.91
124870.82
124871.93
124873.3
124874.99
124877.99
124884.44
124894.56
124911.46
124941.62
124996.89
125079.94
125125.29
125126.91
125127.27
125127.75
125128.51
125130.43
125133.62
125139.47
125151.57
125181.12
125264.07
125367.84
125371.12
125371.66
125372.51
125373.94
125376.64
125382.57
125399.08
125463.02
125595.64
125599.03
125599.65
125600.55
125601.94
125604.13
125607.8
125614.24
125626.19
125648.35
125684.99
125731.52
125770.71
125793.2
125801.71
125804.23
125804.85
125805.02
125805.09
125805.15
125805.19
125805.23
125805.26
125805.28
125805.29
125805.3
125805.3
125805.29
125805.28
125805.27
125805.25
125805.24
125805.22
125805.21
125805.19
125805.17
125805.16
125805.14
125805.13
125805.11
125805.1
125805.09
125805.07
125805.06
125805.05
125805.03
606.76588
573.78905
570.34401
570.56169
570.68861
570.6991
570.69096
570.6857
570.68478
570.68746
570.69337
570.7025
570.71509
570.73168
570.75313
570.78099
570.81709
570.86715
570.93067
571.05892
571.07302
572.20232
570.67744
6751.2412
98409.255
97442.549
97136.788
97084.73
97082.248
97097.147
97112.819
97125.497
97134.925
97141.031
97144.299
97145.696