/*--------------------------------*- C++ -*----------------------------------*\
| =========                 |                                                 |
| \\      /  F ield         | OpenFOAM: The Open Source CFD Toolbox           |
|  \\    /   O peration     | Version:  2206                                  |
|   \\  /    A nd           | Website:  www.openfoam.com                      |
|    \\/     M anipulation  |                                                 |
\*---------------------------------------------------------------------------*/
FoamFile
{
    version     2.0;
    format      ascii;
    arch        "LSB;label=32;scalar=64";
    class       volScalarField;
    location    "300";
    object      p;
}
// * * * * * * * * * * * * * * * * * * * * * * * * * * * * * * * * * * * * * //

dimensions      [0 2 -2 0 0 0 0];

internalField   nonuniform List<scalar> 
13056
(
0.01204617
0.01214915
0.012367822
0.012647169
0.012985519
0.013383146
0.013838207
0.014349887
0.014919479
0.015550171
0.016246924
0.017016811
0.017869626
0.018819195
0.019884424
0.021094177
0.02248575
0.024132646
0.02610129
0.028665415
0.031796116
0.037132238
0.042399463
0.081958254
0.051866273
0.0023737192
0.0010885849
0.0019724252
0.0025359961
0.0029761783
0.0032385341
0.0034243307
0.0035655473
0.0036646123
0.003734251
0.0037841439
0.0038197118
0.0038446762
0.0038613964
0.0038717088
0.0038770501
0.0038783099
0.0038761956
0.0038713635
0.003864229
0.0038550758
0.0038441759
0.0038317295
0.0038179155
0.0038028673
0.0037866438
0.0037693226
0.0037509662
0.0037316105
0.0037113004
0.0036900459
0.0036678269
0.0036446459
0.0036204903
0.0035953411
0.0035691726
0.0035419622
0.0035136595
0.0034841883
0.0034534762
0.0034214445
0.0033880198
0.0033531224
0.0033166623
0.0032785662
0.0032387403
0.003197087
0.0031535088
0.0031078983
0.0030601837
0.0030103022
0.0029582632
0.0029041495
0.0028480992
0.0027902066
0.0027307671
0.0026701771
0.0026088703
0.0025478355
0.0024885503
0.0024329761
0.0023842881
0.0023467415
0.0023209821
0.0023186714
0.0023445631
0.0023973157
0.0024872854
0.0026193147
0.0027959739
0.0030162699
0.0032732014
0.0035650778
0.0038749179
0.0041564126
0.004370637
0.0044958039
0.0045337805
0.0044942986
0.0044019716
0.0042838556
0.0041472113
0.0040039579
0.0038579089
0.0037075313
0.0035560463
0.0034015588
0.0032411271
0.0030786265
0.002915856
0.0027545251
0.0025968773
0.0024411153
0.002286791
0.0021366963
0.0019903202
0.0018460626
0.0017046148
0.0015676745
0.001434947
0.0013047902
0.0011782827
0.0010560954
0.00094028528
0.0008303266
0.00072892261
0.00063258188
0.00057040018
0.00048364178
0.00066938347
-0.00051388884
0.01204617
0.01214915
0.012367822
0.012647169
0.012985519
0.013383146
0.013838208
0.014349888
0.01491948
0.015550172
0.016246925
0.017016812
0.017869627
0.018819197
0.019884426
0.02109418
0.022485755
0.024132652
0.026101299
0.02866543
0.031796136
0.037132282
0.042399523
0.081953404
0.051877838
0.0023810568
0.00109046
0.0019732721
0.0025365137
0.0029765419
0.0032388089
0.0034245489
0.0035657258
0.0036647616
0.0037343783
0.003784254
0.0038198083
0.0038447615
0.0038614724
0.003871777
0.0038771117
0.0038783659
0.0038762466
0.0038714103
0.003864272
0.0038551155
0.0038442126
0.0038317636
0.0038179472
0.0038028968
0.0037866714
0.0037693485
0.0037509905
0.0037316333
0.0037113218
0.003690066
0.0036678459
0.0036446638
0.0036205073
0.0035953572
0.0035691879
0.0035419767
0.0035136731
0.0034842013
0.0034534885
0.0034214562
0.0033880309
0.0033531329
0.0033166723
0.0032785757
0.0032387494
0.0031970956
0.003153517
0.003107906
0.003060191
0.0030103091
0.0029582698
0.0029041557
0.002848105
0.0027902121
0.0027307722
0.0026701818
0.0026088747
0.0025478396
0.002488554
0.0024329794
0.002384291
0.002346744
0.002320984
0.002318673
0.002344564
0.002397316
0.0024872851
0.0026193138
0.0027959722
0.0030162675
0.0032731984
0.0035650742
0.0038749138
0.0041564082
0.0043706326
0.0044957998
0.0045337768
0.0044942957
0.0044019694
0.0042838539
0.0041472101
0.004003957
0.0038579082
0.0037075308
0.003556046
0.0034015586
0.003241127
0.0030786265
0.0029158561
0.0027545253
0.0025968776
0.0024411156
0.0022867913
0.0021366967
0.0019903206
0.001846063
0.0017046152
0.0015676749
0.0014349474
0.0013047906
0.0011782831
0.0010560958
0.0009402857
0.00083032702
0.00072892303
0.00063258231
0.00057040065
0.00048364228
0.000669384
-0.00051388851
0.01204617
0.01214915
0.012367822
0.01264717
0.012985519
0.013383146
0.013838208
0.014349888
0.01491948
0.015550173
0.016246926
0.017016813
0.017869629
0.018819199
0.019884429
0.021094184
0.02248576
0.02413266
0.026101309
0.028665448
0.03179616
0.037132332
0.042399573
0.08194849
0.05189379
0.0023881517
0.0010926835
0.0019742845
0.0025371326
0.0029769765
0.0032391373
0.0034248097
0.0035659391
0.00366494
0.0037345305
0.0037843857
0.0038199236
0.0038448634
0.0038615632
0.0038718585
0.0038771853
0.0038784327
0.0038763076
0.0038714662
0.0038643234
0.0038551629
0.0038442565
0.0038318043
0.0038179851
0.0038029322
0.0037867044
0.0037693794
0.0037510195
0.0037316605
0.0037113474
0.0036900902
0.0036678686
0.0036446853
0.0036205276
0.0035953764
0.003569206
0.0035419939
0.0035136894
0.0034842168
0.0034535032
0.0034214701
0.0033880441
0.0033531455
0.0033166843
0.003278587
0.0032387602
0.0031971059
0.0031535267
0.0031079153
0.0030601998
0.0030103174
0.0029582776
0.0029041631
0.002848112
0.0027902187
0.0027307783
0.0026701875
0.00260888
0.0025478444
0.0024885584
0.0024329833
0.0023842945
0.0023467469
0.0023209865
0.0023186748
0.0023445651
0.0023973165
0.0024872848
0.0026193127
0.0027959704
0.0030162648
0.003273195
0.00356507
0.003874909
0.004156403
0.0043706274
0.004495795
0.0045337724
0.0044942924
0.0044019667
0.0042838519
0.0041472085
0.0040039559
0.0038579074
0.0037075303
0.0035560456
0.0034015584
0.003241127
0.0030786265
0.0029158563
0.0027545255
0.0025968778
0.0024411159
0.0022867917
0.0021366971
0.001990321
0.0018460635
0.0017046157
0.0015676754
0.0014349479
0.0013047911
0.0011782836
0.0010560963
0.00094028619
0.00083032751
0.00072892353
0.00063258281
0.00057040121
0.00048364287
0.00066938462
-0.00051388812
0.01204617
0.01214915
0.012367823
0.01264717
0.012985519
0.013383146
0.013838208
0.014349888
0.014919481
0.015550173
0.016246927
0.017016814
0.01786963
0.018819201
0.019884432
0.021094188
0.022485765
0.024132667
0.026101319
0.028665465
0.031796183
0.03713238
0.042399624
0.081943673
0.051911566
0.0023934144
0.0010947757
0.0019752765
0.002537739
0.0029774024
0.0032394592
0.0034250654
0.0035661482
0.003665115
0.0037346797
0.0037845148
0.0038200366
0.0038449632
0.0038616522
0.0038719384
0.0038772575
0.0038784983
0.0038763674
0.0038715209
0.0038643738
0.0038552094
0.0038442995
0.0038318442
0.0038180223
0.0038029668
0.0037867368
0.0037694097
0.0037510479
0.0037316872
0.0037113725
0.0036901138
0.003667891
0.0036447064
0.0036205475
0.0035953952
0.0035692239
0.0035420108
0.0035137055
0.003484232
0.0034535176
0.0034214838
0.0033880571
0.0033531579
0.003316696
0.0032785982
0.0032387708
0.0031971159
0.0031535362
0.0031079244
0.0030602084
0.0030103255
0.0029582853
0.0029041704
0.0028481188
0.0027902251
0.0027307843
0.0026701931
0.0026088851
0.0025478492
0.0024885627
0.0024329872
0.0023842979
0.0023467498
0.0023209888
0.0023186766
0.0023445662
0.0023973168
0.0024872845
0.0026193116
0.0027959684
0.0030162621
0.0032731915
0.0035650658
0.0038749043
0.0041563979
0.0043706223
0.0044957902
0.0045337683
0.0044942891
0.0044019641
0.0042838499
0.0041472071
0.0040039548
0.0038579067
0.0037075297
0.0035560453
0.0034015582
0.0032411269
0.0030786266
0.0029158564
0.0027545257
0.0025968781
0.0024411162
0.0022867921
0.0021366975
0.0019903215
0.001846064
0.0017046162
0.0015676759
0.0014349484
0.0013047916
0.0011782841
0.0010560968
0.00094028669
0.000830328
0.00072892403
0.00063258331
0.00057040176
0.00048364344
0.00066938524
-0.00051388775
0.01204617
0.01214915
0.012367823
0.01264717
0.012985519
0.013383146
0.013838209
0.014349889
0.014919481
0.015550174
0.016246928
0.017016815
0.017869632
0.018819203
0.019884435
0.021094192
0.022485771
0.024132675
0.02610133
0.028665483
0.031796207
0.037132429
0.042399683
0.08193851
0.05193043
0.0023992967
0.0010968916
0.0019762921
0.00253836
0.0029778385
0.0032397888
0.0034253272
0.0035663623
0.0036652941
0.0037348324
0.003784647
0.0038201523
0.0038450655
0.0038617434
0.0038720203
0.0038773314
0.0038785654
0.0038764286
0.003871577
0.0038644254
0.0038552569
0.0038443436
0.0038318851
0.0038180603
0.0038030023
0.0037867699
0.0037694407
0.003751077
0.0037317146
0.0037113982
0.003690138
0.0036679138
0.0036447279
0.0036205678
0.0035954145
0.0035692421
0.0035420281
0.0035137219
0.0034842475
0.0034535324
0.0034214978
0.0033880705
0.0033531705
0.003316708
0.0032786096
0.0032387816
0.0031971262
0.003153546
0.0031079336
0.0030602172
0.0030103339
0.0029582932
0.0029041778
0.0028481258
0.0027902317
0.0027307904
0.0026701988
0.0026088904
0.002547854
0.0024885671
0.0024329911
0.0023843013
0.0023467527
0.0023209911
0.0023186783
0.0023445673
0.0023973172
0.0024872841
0.0026193104
0.0027959664
0.0030162592
0.0032731878
0.0035650615
0.0038748993
0.0041563926
0.004370617
0.0044957853
0.0045337641
0.0044942857
0.0044019614
0.0042838479
0.0041472056
0.0040039537
0.0038579059
0.0037075292
0.0035560449
0.003401558
0.0032411268
0.0030786266
0.0029158565
0.002754526
0.0025968784
0.0024411166
0.0022867924
0.0021366979
0.0019903219
0.0018460644
0.0017046166
0.0015676764
0.0014349489
0.0013047921
0.0011782846
0.0010560973
0.00094028719
0.0008303285
0.00072892454
0.00063258381
0.00057040233
0.00048364401
0.00066938586
-0.00051388738
0.01204617
0.01214915
0.012367823
0.01264717
0.01298552
0.013383147
0.013838209
0.014349889
0.014919482
0.015550175
0.016246929
0.017016817
0.017869634
0.018819205
0.019884438
0.021094196
0.022485777
0.024132683
0.026101341
0.028665503
0.031796233
0.037132482
0.042399751
0.081932778
0.051950086
0.0024066143
0.0010991418
0.0019773706
0.0025390197
0.0029783018
0.003240139
0.0034256052
0.0035665897
0.0036654844
0.0037349947
0.0037847874
0.0038202752
0.0038451742
0.0038618402
0.0038721072
0.0038774099
0.0038786366
0.0038764936
0.0038716366
0.0038644801
0.0038553075
0.0038443903
0.0038319285
0.0038181007
0.0038030399
0.0037868051
0.0037694737
0.0037511079
0.0037317436
0.0037114256
0.0036901638
0.0036679381
0.0036447508
0.0036205895
0.003595435
0.0035692615
0.0035420464
0.0035137393
0.0034842641
0.003453548
0.0034215127
0.0033880846
0.003353184
0.0033167208
0.0032786217
0.0032387931
0.0031971372
0.0031535564
0.0031079435
0.0030602265
0.0030103427
0.0029583016
0.0029041857
0.0028481333
0.0027902386
0.002730797
0.0026702049
0.002608896
0.0025478592
0.0024885718
0.0024329953
0.002384305
0.0023467559
0.0023209936
0.0023186801
0.0023445684
0.0023973176
0.0024872837
0.0026193092
0.0027959643
0.0030162562
0.003273184
0.0035650569
0.0038748941
0.004156387
0.0043706114
0.0044957801
0.0045337597
0.0044942821
0.0044019586
0.0042838458
0.004147204
0.0040039525
0.003857905
0.0037075286
0.0035560445
0.0034015578
0.0032411268
0.0030786267
0.0029158567
0.0027545262
0.0025968787
0.002441117
0.0022867929
0.0021366984
0.0019903224
0.0018460649
0.0017046172
0.0015676769
0.0014349495
0.0013047926
0.0011782851
0.0010560978
0.00094028772
0.00083032903
0.00072892508
0.00063258436
0.00057040293
0.00048364461
0.00066938653
-0.00051388698
0.01204617
0.01214915
0.012367823
0.01264717
0.01298552
0.013383147
0.013838209
0.01434989
0.014919483
0.015550176
0.01624693
0.017016818
0.017869636
0.018819208
0.019884441
0.021094201
0.022485783
0.024132693
0.026101354
0.028665525
0.031796262
0.037132542
0.042399831
0.08192636
0.051970773
0.0024146841
0.0011015665
0.0019785315
0.0025397298
0.0029788005
0.0032405159
0.0034259045
0.0035668345
0.0036656892
0.0037351693
0.0037849385
0.0038204075
0.0038452911
0.0038619444
0.0038722007
0.0038774943
0.0038787134
0.0038765636
0.0038717007
0.0038645391
0.0038553619
0.0038444407
0.0038319753
0.0038181442
0.0038030805
0.003786843
0.0037695092
0.0037511412
0.0037317748
0.003711455
0.0036901914
0.0036679642
0.0036447755
0.0036206128
0.003595457
0.0035692824
0.0035420662
0.003513758
0.0034842818
0.0034535649
0.0034215287
0.0033880998
0.0033531984
0.0033167345
0.0032786348
0.0032388055
0.0031971489
0.0031535676
0.0031079541
0.0030602366
0.0030103522
0.0029583106
0.0029041942
0.0028481413
0.0027902461
0.002730804
0.0026702114
0.0026089021
0.0025478647
0.0024885768
0.0024329998
0.002384309
0.0023467592
0.0023209963
0.0023186821
0.0023445697
0.0023973181
0.0024872833
0.0026193078
0.002795962
0.0030162529
0.0032731798
0.003565052
0.0038748885
0.0041563809
0.0043706053
0.0044957744
0.0045337549
0.0044942783
0.0044019556
0.0042838435
0.0041472023
0.0040039513
0.0038579041
0.003707528
0.0035560441
0.0034015576
0.0032411267
0.0030786267
0.0029158569
0.0027545265
0.0025968791
0.0024411174
0.0022867933
0.0021366989
0.0019903229
0.0018460655
0.0017046177
0.0015676774
0.00143495
0.0013047932
0.0011782857
0.0010560984
0.0009402883
0.00083032961
0.00072892566
0.00063258494
0.00057040358
0.00048364526
0.00066938725
-0.00051388655
0.01204617
0.01214915
0.012367823
0.01264717
0.01298552
0.013383147
0.01383821
0.014349891
0.014919484
0.015550177
0.016246932
0.01701682
0.017869638
0.018819211
0.019884446
0.021094206
0.022485791
0.024132704
0.026101369
0.02866555
0.031796296
0.037132609
0.042399923
0.081919116
0.051992769
0.0024233466
0.0011041955
0.0019797901
0.0025404999
0.0029793414
0.0032409247
0.0034262292
0.0035671
0.0036659113
0.0037353587
0.0037851024
0.0038205509
0.0038454179
0.0038620574
0.0038723021
0.003877586
0.0038787966
0.0038766395
0.0038717703
0.0038646031
0.0038554209
0.0038444953
0.003832026
0.0038181913
0.0038031245
0.0037868841
0.0037695476
0.0037511773
0.0037318087
0.0037114868
0.0036902215
0.0036679925
0.0036448022
0.0036206381
0.003595481
0.003569305
0.0035420876
0.0035137783
0.0034843011
0.0034535832
0.0034215461
0.0033881163
0.0033532141
0.0033167494
0.0032786489
0.003238819
0.0031971617
0.0031535797
0.0031079656
0.0030602475
0.0030103626
0.0029583204
0.0029042035
0.0028481499
0.0027902543
0.0027308116
0.0026702185
0.0026089086
0.0025478707
0.0024885823
0.0024330047
0.0023843132
0.0023467628
0.0023209992
0.0023186842
0.002344571
0.0023973185
0.0024872828
0.0026193063
0.0027959594
0.0030162493
0.0032731753
0.0035650466
0.0038748823
0.0041563743
0.0043705987
0.0044957683
0.0045337497
0.0044942741
0.0044019523
0.004283841
0.0041472004
0.0040039499
0.0038579031
0.0037075273
0.0035560437
0.0034015573
0.0032411266
0.0030786268
0.002915857
0.0027545268
0.0025968794
0.0024411178
0.0022867938
0.0021366994
0.0019903235
0.0018460661
0.0017046183
0.0015676781
0.0014349507
0.0013047938
0.0011782863
0.001056099
0.00094028892
0.00083033023
0.0007289263
0.00063258557
0.00057040428
0.00048364597
0.00066938803
-0.00051388608
0.01204617
0.01214915
0.012367823
0.012647171
0.012985521
0.013383148
0.01383821
0.014349891
0.014919485
0.015550178
0.016246933
0.017016822
0.017869641
0.018819215
0.01988445
0.021094213
0.022485799
0.024132716
0.026101386
0.028665578
0.031796334
0.037132687
0.042400031
0.081910866
0.052016306
0.0024327404
0.0011070655
0.0019811647
0.0025413411
0.0029799322
0.0032413712
0.0034265838
0.0035673899
0.0036661539
0.0037355656
0.0037852814
0.0038207076
0.0038455564
0.0038621809
0.003872413
0.0038776861
0.0038788874
0.0038767224
0.0038718462
0.0038646729
0.0038554854
0.003844555
0.0038320813
0.0038182429
0.0038031725
0.003786929
0.0037695897
0.0037512167
0.0037318458
0.0037115217
0.0036902543
0.0036680234
0.0036448314
0.0036206657
0.0035955071
0.0035693297
0.0035421111
0.0035138006
0.0034843222
0.0034536032
0.0034215651
0.0033881343
0.0033532312
0.0033167657
0.0032786644
0.0032388337
0.0031971757
0.003153593
0.0031079782
0.0030602594
0.0030103738
0.002958331
0.0029042135
0.0028481594
0.0027902632
0.0027308199
0.0026702262
0.0026089157
0.0025478772
0.0024885882
0.00243301
0.0023843179
0.0023467668
0.0023210024
0.0023186865
0.0023445724
0.002397319
0.0024872822
0.0026193047
0.0027959566
0.0030162454
0.0032731703
0.0035650406
0.0038748756
0.004156367
0.0043705915
0.0044957617
0.004533744
0.0044942695
0.0044019487
0.0042838383
0.0041471984
0.0040039484
0.0038579021
0.0037075266
0.0035560432
0.0034015571
0.0032411265
0.0030786269
0.0029158572
0.0027545271
0.0025968798
0.0024411183
0.0022867944
0.0021367
0.0019903241
0.0018460667
0.001704619
0.0015676787
0.0014349513
0.0013047945
0.001178287
0.0010560997
0.00094028961
0.00083033091
0.00072892699
0.00063258626
0.00057040504
0.00048364675
0.00066938889
-0.00051388557
0.01204617
0.01214915
0.012367824
0.012647171
0.012985521
0.013383148
0.013838211
0.014349892
0.014919486
0.015550179
0.016246935
0.017016825
0.017869644
0.018819219
0.019884456
0.02109422
0.022485809
0.02413273
0.026101406
0.028665612
0.031796379
0.037132776
0.042400155
0.081901393
0.052041594
0.0024430314
0.0011102192
0.0019826756
0.002542266
0.0029805818
0.0032418622
0.0034269736
0.0035677088
0.0036664207
0.0037357931
0.0037854782
0.0038208799
0.0038457087
0.0038623166
0.0038725348
0.0038777961
0.0038789874
0.0038768136
0.0038719297
0.0038647497
0.0038555563
0.0038446206
0.0038321422
0.0038182995
0.0038032253
0.0037869784
0.0037696359
0.00375126
0.0037318865
0.00371156
0.0036902904
0.0036680574
0.0036448636
0.003620696
0.0035955358
0.0035693569
0.0035421368
0.003513825
0.0034843454
0.0034536252
0.003421586
0.0033881542
0.0033532501
0.0033167836
0.0032786814
0.0032388498
0.003197191
0.0031536075
0.003107992
0.0030602725
0.0030103862
0.0029583427
0.0029042246
0.0028481698
0.0027902729
0.002730829
0.0026702347
0.0026089236
0.0025478844
0.0024885947
0.0024330158
0.002384323
0.0023467711
0.0023210058
0.002318689
0.0023445739
0.0023973194
0.0024872815
0.0026193028
0.0027959535
0.003016241
0.0032731647
0.003565034
0.0038748681
0.004156359
0.0043705836
0.0044957543
0.0045337377
0.0044942645
0.0044019447
0.0042838353
0.0041471962
0.0040039468
0.0038579009
0.0037075258
0.0035560427
0.0034015568
0.0032411264
0.0030786269
0.0029158575
0.0027545274
0.0025968803
0.0024411188
0.002286795
0.0021367007
0.0019903248
0.0018460674
0.0017046197
0.0015676795
0.0014349521
0.0013047953
0.0011782878
0.0010561005
0.00094029036
0.00083033166
0.00072892775
0.00063258702
0.00057040589
0.0004836476
0.00066938983
-0.00051388501
0.01204617
0.012149151
0.012367824
0.012647171
0.012985521
0.013383149
0.013838212
0.014349893
0.014919487
0.015550181
0.016246937
0.017016827
0.017869648
0.018819224
0.019884462
0.021094229
0.022485821
0.024132747
0.026101428
0.02866565
0.03179643
0.03713288
0.042400298
0.081890436
0.052068836
0.0024543735
0.0011137035
0.0019843455
0.0025432885
0.0029812999
0.0032424049
0.0034274046
0.0035680612
0.0036667156
0.0037360446
0.0037856958
0.0038210704
0.0038458771
0.0038624667
0.0038726695
0.0038779177
0.0038790978
0.0038769144
0.0038720221
0.0038648347
0.0038556346
0.0038446931
0.0038322095
0.0038183621
0.0038032837
0.0037870329
0.003769687
0.0037513079
0.0037319315
0.0037116023
0.0036903302
0.0036680951
0.0036448991
0.0036207296
0.0035955675
0.003569387
0.0035421653
0.003513852
0.003484371
0.0034536495
0.003421609
0.0033881761
0.0033532709
0.0033168034
0.0032787002
0.0032388677
0.003197208
0.0031536236
0.0031080072
0.0030602869
0.0030103999
0.0029583557
0.0029042368
0.0028481813
0.0027902837
0.0027308391
0.0026702441
0.0026089322
0.0025478924
0.0024886019
0.0024330223
0.0023843286
0.0023467758
0.0023210096
0.0023186918
0.0023445756
0.0023973199
0.0024872807
0.0026193006
0.0027959499
0.0030162361
0.0032731585
0.0035650266
0.0038748597
0.0041563501
0.0043705747
0.0044957461
0.0045337308
0.004494259
0.0044019404
0.0042838321
0.0041471938
0.004003945
0.0038578996
0.0037075249
0.0035560422
0.0034015565
0.0032411264
0.003078627
0.0029158577
0.0027545278
0.0025968808
0.0024411194
0.0022867956
0.0021367014
0.0019903256
0.0018460682
0.0017046206
0.0015676803
0.0014349529
0.0013047961
0.0011782886
0.0010561013
0.0009402912
0.00083033249
0.0007289286
0.00063258786
0.00057040682
0.00048364854
0.00066939087
-0.00051388439
0.01204617
0.012149151
0.012367824
0.012647172
0.012985522
0.01338315
0.013838213
0.014349894
0.014919488
0.015550183
0.01624694
0.017016831
0.017869652
0.018819229
0.01988447
0.021094239
0.022485835
0.024132767
0.026101455
0.028665694
0.031796489
0.037133001
0.042400463
0.081877686
0.052098216
0.0024669286
0.0011175699
0.0019861991
0.0025444238
0.0029820974
0.0032430076
0.0034278832
0.0035684526
0.003667043
0.0037363238
0.0037859374
0.0038212819
0.003846064
0.0038626333
0.003872819
0.0038780528
0.0038792205
0.0038770263
0.0038721246
0.0038649289
0.0038557216
0.0038447736
0.0038322843
0.0038184317
0.0038033486
0.0037870935
0.0037697437
0.0037513611
0.0037319815
0.0037116493
0.0036903745
0.0036681368
0.0036449385
0.0036207668
0.0035956028
0.0035694203
0.0035421969
0.003513882
0.0034843994
0.0034536765
0.0034216347
0.0033882004
0.003353294
0.0033168254
0.0032787211
0.0032388875
0.0031972268
0.0031536415
0.0031080242
0.003060303
0.0030104152
0.0029583701
0.0029042504
0.0028481941
0.0027902957
0.0027308503
0.0026702544
0.0026089418
0.0025479012
0.0024886099
0.0024330294
0.0023843348
0.0023467811
0.0023210138
0.0023186948
0.0023445774
0.0023973203
0.0024872798
0.0026192982
0.0027959459
0.0030162305
0.0032731515
0.0035650184
0.0038748504
0.0041563401
0.0043705648
0.004495737
0.0045337231
0.0044942528
0.0044019356
0.0042838285
0.0041471911
0.0040039431
0.0038578982
0.0037075239
0.0035560416
0.0034015562
0.0032411263
0.0030786271
0.002915858
0.0027545283
0.0025968814
0.0024411201
0.0022867964
0.0021367022
0.0019903264
0.0018460691
0.0017046215
0.0015676813
0.0014349539
0.0013047971
0.0011782895
0.0010561023
0.00094029213
0.00083033342
0.00072892954
0.0006325888
0.00057040786
0.00048364959
0.00066939203
-0.0005138837
0.01204617
0.012149151
0.012367825
0.012647172
0.012985523
0.013383151
0.013838214
0.014349896
0.01491949
0.015550185
0.016246943
0.017016834
0.017869657
0.018819236
0.019884478
0.021094251
0.02248585
0.024132789
0.026101485
0.028665745
0.031796557
0.037133139
0.042400655
0.08186277
0.052129896
0.0024808787
0.0011218757
0.001988264
0.002545689
0.0029829861
0.0032436793
0.0034284165
0.0035688888
0.003667408
0.003736635
0.0037862066
0.0038215176
0.0038462724
0.003862819
0.0038729857
0.0038782034
0.0038793572
0.003877151
0.0038722389
0.003865034
0.0038558186
0.0038448634
0.0038323676
0.0038185092
0.0038034208
0.0037871611
0.0037698069
0.0037514204
0.0037320372
0.0037117017
0.0036904239
0.0036681834
0.0036449825
0.0036208084
0.0035956421
0.0035694575
0.0035422322
0.0035139154
0.0034844311
0.0034537066
0.0034216632
0.0033882276
0.0033533198
0.0033168499
0.0032787444
0.0032389096
0.0031972478
0.0031536614
0.0031080431
0.0030603209
0.0030104321
0.0029583861
0.0029042655
0.0028482083
0.002790309
0.0027308627
0.002670266
0.0026089525
0.002547911
0.0024886188
0.0024330373
0.0023843417
0.0023467869
0.0023210183
0.0023186981
0.0023445793
0.0023973208
0.0024872786
0.0026192954
0.0027959413
0.0030162242
0.0032731436
0.003565009
0.0038748398
0.0041563288
0.0043705537
0.0044957268
0.0045337145
0.0044942459
0.0044019302
0.0042838245
0.0041471881
0.0040039409
0.0038578967
0.0037075229
0.0035560409
0.0034015558
0.0032411262
0.0030786273
0.0029158583
0.0027545288
0.002596882
0.0024411208
0.0022867972
0.0021367031
0.0019903274
0.0018460701
0.0017046225
0.0015676823
0.0014349549
0.0013047981
0.0011782906
0.0010561033
0.00094029317
0.00083033446
0.00072893059
0.00063258985
0.00057040902
0.00048365077
0.00066939332
-0.00051388292
0.01204617
0.012149151
0.012367825
0.012647173
0.012985523
0.013383151
0.013838215
0.014349897
0.014919492
0.015550188
0.016246946
0.017016839
0.017869663
0.018819243
0.019884488
0.021094264
0.022485868
0.024132815
0.02610152
0.028665803
0.031796636
0.037133299
0.042400883
0.08184524
0.052163997
0.0024964294
0.0011266842
0.001990571
0.0025471031
0.0029839794
0.00324443
0.0034290125
0.0035693762
0.0036678158
0.0037369828
0.0037865076
0.003821781
0.0038465052
0.0038630265
0.003873172
0.0038783716
0.00387951
0.0038772904
0.0038723666
0.0038651515
0.003855927
0.0038449637
0.0038324607
0.0038185958
0.0038035016
0.0037872365
0.0037698776
0.0037514867
0.0037320994
0.0037117603
0.0036904791
0.0036682354
0.0036450316
0.0036208548
0.003595686
0.0035694991
0.0035422716
0.0035139527
0.0034844665
0.0034537402
0.0034216952
0.0033882579
0.0033533486
0.0033168772
0.0032787704
0.0032389343
0.0031972712
0.0031536837
0.0031080642
0.0030603409
0.0030104511
0.002958404
0.0029042824
0.0028482242
0.0027903239
0.0027308766
0.0026702789
0.0026089644
0.0025479219
0.0024886287
0.0024330461
0.0023843494
0.0023467934
0.0023210234
0.0023187017
0.0023445814
0.0023973212
0.0024872772
0.0026192921
0.0027959361
0.003016217
0.0032731346
0.0035649984
0.0038748279
0.0041563161
0.0043705412
0.0044957154
0.0045337049
0.0044942383
0.0044019243
0.00428382
0.0041471848
0.0040039385
0.003857895
0.0037075217
0.0035560402
0.0034015555
0.0032411261
0.0030786275
0.0029158587
0.0027545293
0.0025968827
0.0024411217
0.0022867982
0.0021367041
0.0019903285
0.0018460713
0.0017046236
0.0015676835
0.0014349561
0.0013047993
0.0011782918
0.0010561045
0.00094029434
0.00083033562
0.00072893176
0.00063259102
0.00057041032
0.00048365208
0.00066939477
-0.00051388206
0.01204617
0.012149152
0.012367825
0.012647173
0.012985524
0.013383153
0.013838216
0.014349899
0.014919494
0.015550191
0.01624695
0.017016844
0.017869669
0.018819252
0.0198845
0.021094279
0.022485889
0.024132844
0.02610156
0.02866587
0.031796725
0.037133481
0.04240115
0.081824556
0.052200589
0.0025138147
0.0011320666
0.0019931544
0.0025486872
0.0029850921
0.0032452711
0.0034296802
0.0035699223
0.0036682727
0.0037373724
0.0037868447
0.0038220761
0.0038467661
0.003863259
0.0038733807
0.0038785601
0.0038796812
0.0038774466
0.0038725097
0.0038652831
0.0038560484
0.0038450761
0.003832565
0.0038186929
0.0038035921
0.0037873211
0.0037699568
0.003751561
0.0037321692
0.0037118259
0.0036905409
0.0036682937
0.0036450866
0.0036209068
0.0035957352
0.0035695457
0.0035423157
0.0035139946
0.0034845062
0.0034537779
0.0034217309
0.0033882919
0.0033533809
0.0033169079
0.0032787995
0.003238962
0.0031972975
0.0031537086
0.0031080879
0.0030603633
0.0030104723
0.0029584241
0.0029043013
0.002848242
0.0027903406
0.0027308922
0.0026702934
0.0026089778
0.0025479341
0.0024886397
0.002433056
0.0023843579
0.0023468005
0.002321029
0.0023187056
0.0023445836
0.0023973216
0.0024872756
0.0026192883
0.0027959301
0.0030162087
0.0032731243
0.0035649864
0.0038748143
0.0041563018
0.0043705272
0.0044957026
0.0045336941
0.0044942297
0.0044019176
0.0042838151
0.0041471812
0.0040039359
0.0038578931
0.0037075205
0.0035560394
0.0034015551
0.003241126
0.0030786277
0.0029158592
0.00275453
0.0025968836
0.0024411227
0.0022867993
0.0021367053
0.0019903297
0.0018460725
0.0017046249
0.0015676848
0.0014349574
0.0013048006
0.0011782931
0.0010561058
0.00094029565
0.00083033692
0.00072893309
0.00063259234
0.00057041178
0.00048365355
0.00066939639
-0.00051388108
0.01204617
0.012149152
0.012367826
0.012647174
0.012985525
0.013383154
0.013838218
0.014349901
0.014919497
0.015550194
0.016246954
0.01701685
0.017869677
0.018819262
0.019884513
0.021094297
0.022485913
0.024132878
0.026101606
0.028665946
0.031796828
0.037133688
0.042401445
0.081800071
0.05223967
0.0025333028
0.0011381021
0.0019960525
0.0025504651
0.0029863411
0.003246215
0.0034304296
0.0035705352
0.0036687855
0.0037378096
0.003787223
0.0038224073
0.0038470588
0.0038635199
0.0038736149
0.0038787717
0.0038798733
0.0038776219
0.0038726703
0.0038654308
0.0038561847
0.0038452022
0.0038326821
0.0038188018
0.0038036937
0.003787416
0.0037700457
0.0037516443
0.0037322475
0.0037118996
0.0036906103
0.0036683591
0.0036451484
0.0036209652
0.0035957905
0.003569598
0.0035423653
0.0035140415
0.0034845508
0.0034538202
0.0034217711
0.00338833
0.0033534171
0.0033169423
0.0032788322
0.0032389931
0.003197327
0.0031537366
0.0031081144
0.0030603885
0.0030104961
0.0029584466
0.0029043226
0.002848262
0.0027903593
0.0027309097
0.0026703096
0.0026089927
0.0025479477
0.0024886521
0.002433067
0.0023843675
0.0023468085
0.0023210353
0.00231871
0.0023445861
0.0023973218
0.0024872736
0.0026192839
0.0027959231
0.0030161993
0.0032731126
0.0035649727
0.003874799
0.0041562855
0.0043705112
0.0044956881
0.004533682
0.0044942201
0.0044019102
0.0042838096
0.0041471771
0.0040039329
0.003857891
0.0037075191
0.0035560385
0.0034015546
0.003241126
0.0030786279
0.0029158597
0.0027545308
0.0025968845
0.0024411238
0.0022868005
0.0021367066
0.0019903311
0.001846074
0.0017046264
0.0015676863
0.0014349589
0.0013048021
0.0011782946
0.0010561073
0.00094029713
0.00083033839
0.00072893458
0.00063259383
0.00057041342
0.00048365521
0.00066939822
-0.00051387999
0.01204617
0.012149153
0.012367827
0.012647175
0.012985526
0.013383155
0.01383822
0.014349903
0.0149195
0.015550198
0.01624696
0.017016856
0.017869686
0.018819273
0.019884528
0.021094317
0.02248594
0.024132917
0.026101658
0.028666032
0.031796943
0.037133921
0.042401748
0.081771003
0.052281136
0.0025552044
0.0011448799
0.0019993086
0.0025524636
0.002987745
0.0032472761
0.0034312719
0.0035712241
0.0036693619
0.0037383011
0.0037876482
0.0038227796
0.0038473879
0.0038638132
0.0038738781
0.0038790094
0.0038800892
0.0038778189
0.0038728508
0.0038655968
0.0038563378
0.003845344
0.0038328137
0.0038189242
0.0038038079
0.0037875228
0.0037701456
0.003751738
0.0037323355
0.0037119824
0.0036906883
0.0036684327
0.0036452179
0.0036210309
0.0035958526
0.0035696568
0.003542421
0.0035140944
0.0034846009
0.0034538677
0.0034218162
0.0033883729
0.0033534578
0.003316981
0.0032788689
0.003239028
0.0031973602
0.0031537681
0.0031081443
0.0030604168
0.0030105229
0.0029584719
0.0029043464
0.0028482844
0.0027903803
0.0027309293
0.0026703278
0.0026090095
0.0025479631
0.0024886659
0.0024330793
0.0023843782
0.0023468175
0.0023210422
0.0023187148
0.0023445887
0.002397322
0.0024872712
0.0026192787
0.0027959151
0.0030161885
0.0032730993
0.003564957
0.0038747815
0.004156267
0.0043704932
0.0044956717
0.0045336683
0.0044942094
0.0044019019
0.0042838034
0.0041471726