/*--------------------------------*- C++ -*----------------------------------*\
| =========                 |                                                 |
| \\      /  F ield         | OpenFOAM: The Open Source CFD Toolbox           |
|  \\    /   O peration     | Version:  2206                                  |
|   \\  /    A nd           | Website:  www.openfoam.com                      |
|    \\/     M anipulation  |                                                 |
\*---------------------------------------------------------------------------*/
FoamFile
{
    version     2.0;
    format      ascii;
    arch        "LSB;label=32;scalar=64";
    class       surfaceScalarField;
    location    "300";
    object      phi;
}
// * * * * * * * * * * * * * * * * * * * * * * * * * * * * * * * * * * * * * //

dimensions      [0 3 -1 0 0 0 0];

oriented        oriented;

internalField   nonuniform List<scalar> 
25880
(
2.0046397e-06
1.4432812e-11
2.0046064e-06
3.3322489e-11
2.0045654e-06
4.0986329e-11
2.0045191e-06
4.6274068e-11
2.0044658e-06
5.3282562e-11
2.0044044e-06
6.1455488e-11
2.0043336e-06
7.0761429e-11
2.004252e-06
8.1594899e-11
2.0041576e-06
9.4420759e-11
2.0040479e-06
1.0975515e-10
2.0039196e-06
1.2825966e-10
2.0037687e-06
1.5090303e-10
2.0035897e-06
1.7900003e-10
2.0033748e-06
2.148685e-10
2.0031138e-06
2.6105246e-10
2.0027886e-06
3.2520151e-10
2.0023793e-06
4.0923195e-10
2.0018266e-06
5.5276127e-10
2.0011098e-06
7.1681565e-10
1.999929e-06
1.1807735e-09
1.9984321e-06
1.4968575e-09
1.9947251e-06
3.7070215e-09
1.9937384e-06
9.8669922e-10
1.0011985e-06
9.9253992e-07
4.4185012e-09
9.9677999e-07
2.1244726e-09
2.2940286e-09
1.6072198e-09
5.1725277e-10
1.3578044e-09
2.4941541e-10
1.2040216e-09
1.5378279e-10
1.0950419e-09
1.0897975e-10
1.011901e-09
8.314091e-11
9.4523191e-10
6.6669058e-11
8.9016934e-10
5.5062571e-11
8.4363113e-10
4.6538209e-11
8.03531e-10
4.0100125e-11
7.6846118e-10
3.5069818e-11
7.3742363e-10
3.1037547e-11
7.0967992e-10
2.7743713e-11
6.8466792e-10
2.5011997e-11
6.6195233e-10
2.2715593e-11
6.4118747e-10
2.0764864e-11
6.2209715e-10
1.9090318e-11
6.0446008e-10
1.7637071e-11
5.8809171e-10
1.6368372e-11
5.7283884e-10
1.5252868e-11
5.585733e-10
1.4265535e-11
5.4518627e-10
1.3387029e-11
5.3258498e-10
1.260129e-11
5.2069007e-10
1.1894912e-11
5.094331e-10
1.1256971e-11
4.9875419e-10
1.0678911e-11
4.8860093e-10
1.0153258e-11
4.7892742e-10
9.6735056e-12
4.6969317e-10
9.2342561e-12
4.6086249e-10
8.8306756e-12
4.5240373e-10
8.458763e-12
4.4428837e-10
8.1153613e-12
4.3649085e-10
7.7975144e-12
4.2898832e-10
7.5025355e-12
4.2176014e-10
7.2281809e-12
4.1478775e-10
6.9723903e-12
4.0805461e-10
6.7331364e-12
4.0154587e-10
6.508736e-12
3.9524782e-10
6.2980497e-12
3.8914787e-10
6.0999573e-12
3.8323471e-10
5.9131542e-12
3.774983e-10
5.7364145e-12
3.7192958e-10
5.5687189e-12
3.6652042e-10
5.4091539e-12
3.6126378e-10
5.2566399e-12
3.5615365e-10
5.1101356e-12
3.5118493e-10
4.9687172e-12
3.4635349e-10
4.8314367e-12
3.4165611e-10
4.6973788e-12
3.370904e-10
4.5657102e-12
3.3265479e-10
4.4356151e-12
3.2834898e-10
4.3058068e-12
3.2417492e-10
4.1740629e-12
3.2013695e-10
4.0379732e-12
3.1624104e-10
3.8959096e-12
3.1249459e-10
3.7464483e-12
3.0890665e-10
3.587942e-12
3.0548797e-10
3.4186723e-12
3.0225271e-10
3.2352614e-12
2.992199e-10
3.0328129e-12
2.9641439e-10
2.8055086e-12
2.9387236e-10
2.542035e-12
2.9163828e-10
2.2340758e-12
2.8977831e-10
1.8599765e-12
2.8835687e-10
1.4214408e-12
2.8742922e-10
9.2764953e-13
2.8707899e-10
3.5022899e-13
2.8739671e-10
-3.1772035e-13
2.8847736e-10
-1.0806461e-12
2.9042019e-10
-1.9428202e-12
2.9329521e-10
-2.8750197e-12
2.9711681e-10
-3.8216017e-12
3.018779e-10
-4.7610859e-12
3.0755097e-10
-5.6730674e-12
3.1394736e-10
-6.396383e-12
3.2063682e-10
-6.6894555e-12
3.2716066e-10
-6.5238396e-12
3.3301103e-10
-5.850373e-12
3.3797584e-10
-4.9648096e-12
3.4210522e-10
-4.129373e-12
3.453953e-10
-3.2900811e-12
3.4799084e-10
-2.5955474e-12
3.5001165e-10
-2.0208048e-12
3.5155676e-10
-1.5451161e-12
3.5269586e-10
-1.1390961e-12
3.5348243e-10
-7.8657547e-13
3.5395442e-10
-4.7198952e-13
3.541296e-10
-1.7517792e-13
3.5402235e-10
1.0724538e-13
3.5366716e-10
3.5519461e-13
3.5309659e-10
5.7056704e-13
3.5234826e-10
7.483245e-13
3.5145689e-10
8.9137205e-13
3.5044794e-10
1.0089539e-12
3.4934727e-10
1.1006643e-12
3.4818123e-10
1.166039e-12
3.4696785e-10
1.2133818e-12
3.4571867e-10
1.2491831e-12
3.4444622e-10
1.2724423e-12
3.4316339e-10
1.2828335e-12
3.4187738e-10
1.2860134e-12
3.4058968e-10
1.2876976e-12
3.3930149e-10
1.2881844e-12
3.3801352e-10
1.2879746e-12
3.3672983e-10
1.2836922e-12
3.3542497e-10
1.3048581e-12
3.3412207e-10
1.302895e-12
3.3267423e-10
1.447838e-12
3.3120966e-10
1.464569e-12
3.2960154e-10
1.6081238e-12
9.6847244e-13
2.0345133e-06
2.9240629e-11
2.0344791e-06
6.7525085e-11
2.034437e-06
8.3067984e-11
2.0343895e-06
9.3786417e-11
2.0343348e-06
1.0798985e-10
2.0342717e-06
1.2455074e-10
2.034199e-06
1.4340455e-10
2.0341153e-06
1.6535064e-10
2.0340183e-06
1.9133065e-10
2.0339057e-06
2.2238953e-10
2.0337741e-06
2.5986648e-10
2.0336193e-06
3.0572252e-10
2.0334357e-06
3.6261889e-10
2.0332153e-06
4.3524752e-10
2.0329476e-06
5.2875637e-10
2.0326142e-06
6.5863095e-10
2.0321946e-06
8.2873865e-10
2.0316281e-06
1.1192798e-09
2.0308936e-06
1.4513046e-09
2.0296841e-06
2.3902842e-09
2.028151e-06
3.0300121e-09
2.0243554e-06
7.5026348e-09
2.0233393e-06
2.0027443e-09
1.0225124e-06
1.9933669e-06
1.3480985e-08
2.0058114e-06
6.500288e-09
9.2747256e-09
4.9178748e-09
2.099666e-09
4.1547023e-09
1.0125879e-09
3.6841277e-09
6.243574e-10
3.3506439e-09
4.4246359e-10
3.0962321e-09
3.3755269e-10
2.8922268e-09
2.7067439e-10
2.7237367e-09
2.2355259e-10
2.5813315e-09
1.8894347e-10
2.4586271e-09
1.6280451e-10
2.3513155e-09
1.4238139e-10
2.2563426e-09
1.2601043e-10
2.1714488e-09
1.1263758e-10
2.0949138e-09
1.0154694e-10
2.0254058e-09
9.2223657e-11
1.9618668e-09
8.4303823e-11
1.9034518e-09
7.750528e-11
1.8494837e-09
7.1605211e-11
1.7993977e-09
6.6454397e-11
1.752725e-09
6.1925546e-11
1.7090735e-09
5.7917058e-11
1.6681101e-09
5.4350403e-11
1.629551e-09
5.116037e-11
1.5931534e-09
4.8292539e-11
1.5587078e-09
4.5702563e-11
1.526031e-09
4.3355693e-11
1.4949627e-09
4.1221589e-11
1.4653624e-09
3.9273837e-11
1.4371061e-09
3.7490523e-11
1.4100847e-09
3.5852023e-11
1.3842014e-09
3.4342092e-11
1.3593689e-09
3.294791e-11
1.3355089e-09
3.1657478e-11
1.3125515e-09
3.0459887e-11
1.2904337e-09
2.9346027e-11
1.2690986e-09
2.8307535e-11
1.2484955e-09
2.733618e-11
1.2285791e-09
2.6425129e-11
1.2093074e-09
2.5569753e-11
1.1906419e-09
2.4765506e-11
1.1725479e-09
2.400709e-11
1.1549948e-09
2.3289528e-11
1.1379549e-09
2.2608681e-11
1.1214032e-09
2.1960839e-11
1.1053182e-09
2.1341621e-11
1.0896815e-09
2.0746798e-11
1.0744776e-09
2.0172616e-11
1.0596938e-09
1.9615226e-11
1.0453203e-09
1.9070911e-11
1.0313497e-09
1.8536286e-11
1.0177773e-09
1.8008035e-11
1.0046022e-09
1.7480932e-11
9.918303e-10
1.694595e-11
9.7947497e-10
1.6393305e-11
9.675545e-10
1.5816376e-11
9.5609157e-10
1.5209379e-11
9.4511389e-10
1.4565621e-11
9.3465446e-10
1.3878107e-11
9.2475661e-10
1.313311e-11
9.1547868e-10
1.2310738e-11
9.0689685e-10
1.1387341e-11
8.9912192e-10
1.0316967e-11
8.9229003e-10
9.0659654e-12
8.8660412e-10
7.5458876e-12
8.822612e-10
5.7643606e-12
8.7943037e-10
3.7584844e-12
8.7836819e-10
1.4124065e-12
8.7935164e-10
-1.3011602e-12
8.8267144e-10
-4.4004416e-12
8.8863124e-10
-7.9026238e-12
8.9744503e-10
-1.1688807e-11
9.0915651e-10
-1.553307e-11
9.2374341e-10
-1.9347981e-11
9.4112029e-10
-2.3049943e-11
9.6070807e-10
-2.5984166e-11
9.8118843e-10
-2.7169807e-11
1.0011572e-09
-2.649261e-11
1.0190607e-09
-2.3753908e-11
1.034251e-09
-2.0155046e-11
1.0468828e-09
-1.6761164e-11
1.0569455e-09
-1.335282e-11
1.0648829e-09
-1.0532938e-11
1.0710618e-09
-8.1996754e-12
1.0757853e-09
-6.2686162e-12
1.0792666e-09
-4.62043e-12
1.0816694e-09
-3.1894279e-12
1.0831098e-09
-1.9123681e-12
1.083642e-09
-7.0736041e-13
1.0833101e-09
4.3919362e-13
1.0822195e-09
1.4457308e-12
1.0804701e-09
2.3200041e-12
1.0781769e-09
3.0415522e-12
1.0754461e-09
3.6221509e-12
1.0723557e-09
4.0993225e-12
1.0689849e-09
4.4714426e-12
1.0654143e-09
4.7366375e-12
1.0616991e-09
4.9286311e-12
1.0578745e-09
5.0737725e-12
1.0539789e-09
5.1679999e-12
1.0500518e-09
5.2100025e-12
1.046115e-09
5.2227401e-12
1.0421733e-09
5.2294271e-12
1.0382302e-09
5.2312539e-12
1.0342879e-09
5.2302623e-12
1.0303589e-09
5.212733e-12
1.0263652e-09
5.2985506e-12
1.0223778e-09
5.2903526e-12
1.0179467e-09
5.8788639e-12
1.0134662e-09
5.9450727e-12
1.0085369e-09
6.5374501e-12
3.9200539e-12
2.0947057e-06
4.4669436e-11
2.09467e-06
1.0317908e-10
2.0946261e-06
1.2695067e-10
2.0945766e-06
1.4333417e-10
2.0945195e-06
1.6503943e-10
2.0944537e-06
1.9034336e-10
2.094378e-06
2.1914586e-10
2.0942907e-06
2.5266821e-10
2.0941897e-06
2.9234861e-10
2.0940723e-06
3.397822e-10
2.0939351e-06
3.9701285e-10
2.0937738e-06
4.6703361e-10
2.0935825e-06
5.5390579e-10
2.093353e-06
6.6479054e-10
2.0930742e-06
8.0754175e-10
2.092727e-06
1.0057953e-09
2.0922903e-06
1.265434e-09
2.0917007e-06
1.7088711e-09
2.0909365e-06
2.2155108e-09
2.0896785e-06
3.6483082e-09
2.088084e-06
4.6244677e-09
2.084138e-06
1.1448641e-08
2.0830762e-06
3.0645465e-09
1.05945e-06
3.0169931e-06
2.3309131e-08
3.0419522e-06
1.1264738e-08
2.1319119e-08
8.5227813e-09
4.8416224e-09
7.2002086e-09
2.3351605e-09
6.3846533e-09
1.4399127e-09
5.8066847e-09
1.0204323e-09
5.3657604e-09
7.7847694e-10
5.0121998e-09
6.2423506e-10
4.7201904e-09
5.1556198e-10
4.4733887e-09
4.3574516e-10
4.2607311e-09
3.7546209e-10
4.074751e-09
3.2836153e-10
3.910155e-09
2.9060639e-10
3.7630268e-09
2.5976572e-10
3.6303854e-09
2.3418834e-10
3.5099222e-09
2.1268691e-10
3.3998039e-09
1.9442216e-10
3.2985658e-09
1.7874334e-10
3.2050344e-09
1.6513662e-10
3.118231e-09
1.5325783e-10
3.0373431e-09
1.428134e-10
2.9616911e-09
1.3356904e-10
2.8906979e-09
1.2534364e-10
2.8238715e-09
1.179868e-10
2.760791e-09
1.1137302e-10
2.7010935e-09
1.0540003e-10
2.6444615e-09
9.9987689e-11
2.5906171e-09
9.5066026e-11
2.5393168e-09
9.0574125e-11
2.4903459e-09
8.6461447e-11
2.4435151e-09
8.2682739e-11
2.3986567e-09
7.9200537e-11
2.3556193e-09
7.5985271e-11
2.3142676e-09
7.3009268e-11
2.2744801e-09
7.0247373e-11
2.2361475e-09
6.7678577e-11
2.1991715e-09
6.5283588e-11
2.1634642e-09
6.3043431e-11
2.128947e-09
6.0942344e-11
2.0955471e-09
5.8969652e-11
2.0631977e-09
5.7114865e-11
2.0318391e-09
5.5365767e-11
2.0014177e-09
5.3710878e-11
1.9718857e-09
5.2140655e-11
1.9432e-09
5.0646538e-11
1.9153232e-09
4.9218423e-11
1.8882235e-09
4.7846554e-11
1.8618738e-09
4.6522272e-11
1.8362524e-09
4.5236696e-11
1.811342e-09
4.3981247e-11
1.7871302e-09
4.2748119e-11
1.7636086e-09
4.1529654e-11
1.7407757e-09
4.0313792e-11
1.718642e-09
3.9079706e-11
1.6972304e-09
3.7804826e-11
1.6765729e-09
3.6473863e-11
1.6567089e-09
3.5073465e-11
1.6376863e-09
3.3588181e-11
1.6195626e-09
3.2001843e-11
1.6024129e-09
3.0282758e-11
1.5863386e-09
2.8385004e-11
1.571472e-09
2.6253985e-11
1.5580053e-09
2.3783648e-11
1.5461746e-09
2.0896692e-11
1.5363329e-09
1.7387609e-11
1.5288212e-09
1.3276033e-11
1.5239327e-09
8.6470052e-12
1.5221136e-09
3.2314425e-12
1.523844e-09
-3.0315039e-12
1.529628e-09
-1.0184436e-11
1.5399919e-09
-1.8266545e-11
1.555306e-09
-2.7002917e-11
1.5756452e-09
-3.5872266e-11
1.6009699e-09
-4.4672708e-11
1.6311297e-09
-5.3209661e-11
1.6651162e-09
-5.9970724e-11
1.70064e-09
-6.2693554e-11
1.7352651e-09
-6.1117751e-11
1.7662997e-09
-5.4788555e-11
1.7926228e-09
-4.6478124e-11
1.8145061e-09
-3.8644437e-11
1.8319347e-09
-3.0781384e-11
1.8456793e-09
-2.4277534e-11
1.8563764e-09
-1.8896859e-11
1.8645518e-09
-1.4444008e-11
1.8705749e-09
-1.0643536e-11
1.8747295e-09
-7.3439509e-12
1.8772163e-09
-4.3992039e-12
1.8781292e-09
-1.6202664e-12
1.8775447e-09
1.0237069e-12
1.8756458e-09
3.3446515e-12
1.8726052e-09
5.3605864e-12
1.8686225e-09
7.0242293e-12
1.8638819e-09
8.3627395e-12
1.8585186e-09
9.462654e-12
1.8526698e-09
1.0320217e-11
1.8464753e-09
1.0931162e-11
1.8400306e-09
1.1373335e-11
1.8333969e-09
1.1707483e-11
1.8266407e-09
1.1924209e-11
1.8198301e-09
1.2020531e-11
1.8130035e-09
1.2049424e-11
1.8061685e-09
1.2064426e-11
1.7993315e-09
1.2068235e-11
1.7924962e-09
1.2065548e-11
1.7856842e-09
1.202474e-11
1.7787604e-09
1.2222312e-11
1.7718477e-09
1.2203038e-11
1.7641667e-09
1.355993e-11
1.7564011e-09
1.3710628e-11
1.7478507e-09
1.5087825e-11
9.0282889e-12
2.1861139e-06
6.098463e-11
2.1860762e-06
1.4090188e-10
2.1860297e-06
1.7339807e-10
2.1859773e-06
1.957801e-10
2.1859169e-06
2.2542437e-10
2.1858473e-06
2.599777e-10
2.1857671e-06
2.9930119e-10
2.1856747e-06
3.4506234e-10
2.1855678e-06
3.9922424e-10
2.1854437e-06
4.6396282e-10
2.1852986e-06
5.420656e-10
2.185128e-06
6.3761475e-10
2.1849258e-06
7.5614878e-10
2.1846831e-06
9.074347e-10
2.1843885e-06
1.1021794e-09
2.1840217e-06
1.372621e-09
2.1835604e-06
1.7267527e-09
2.1829377e-06
2.3315422e-09
2.1821308e-06
3.0223632e-09
2.1808031e-06
4.9760338e-09
2.1791205e-06
6.3070429e-09
2.1749581e-06
1.5611078e-08
2.1738316e-06
4.1910769e-09
1.112868e-06
4.0779567e-06
3.4484633e-08
4.1203356e-06
1.6702802e-08
3.910095e-08
1.2637579e-08
8.9068447e-09
1.0676507e-08
4.2962333e-09
9.4671292e-09
2.6492902e-09
8.6100587e-09
1.8775027e-09
7.9562131e-09
1.4323226e-09
7.4319237e-09
1.1485245e-09
6.9989075e-09
9.4857819e-10
6.6329291e-09
8.0172358e-10
6.3175831e-09
6.9080806e-10
6.041797e-09
6.0414764e-10
5.7977211e-09
5.346823e-10
5.5795478e-09
4.7793902e-10
5.3828565e-09
4.3087966e-10
5.2042238e-09
3.913196e-10
5.0409312e-09
3.5771473e-10
4.8908069e-09
3.2886768e-10
4.7521105e-09
3.0383301e-10
4.6233907e-09
2.8197757e-10
4.503443e-09
2.6276114e-10
4.3912593e-09
2.4575271e-10
4.285984e-09
2.3061902e-10
4.1868874e-09
2.1708337e-10
4.0933455e-09
2.0491486e-10
4.0048202e-09
1.9392533e-10
3.9208406e-09
1.839673e-10
3.8409946e-09
1.7491206e-10
3.7649212e-09
1.6664751e-10
3.692302e-09
1.5908069e-10
3.6228564e-09
1.5212832e-10
3.5563354e-09
1.4572149e-10
3.4925149e-09
1.3980577e-10
3.4311939e-09
1.3433027e-10
3.3721926e-09
1.2924869e-10
3.3153488e-09
1.2452237e-10
3.2605166e-09
1.2011584e-10
3.2075658e-09
1.1599417e-10
3.1563798e-09
1.1212836e-10
3.1068507e-09
1.0849878e-10
3.0588795e-09
1.0508611e-10
3.0123773e-09
1.0186788e-10
2.9672653e-09
9.8822964e-11
2.9234721e-09
9.5933804e-11
2.880934e-09
9.3184646e-11
2.8395955e-09
9.0556899e-11
2.7994095e-09
8.8032607e-11
2.7603359e-09
8.5595826e-11
2.7223424e-09
8.323021e-11
2.6854037e-09
8.0919968e-11
2.6495011e-09
7.8650725e-11
2.6146224e-09
7.6408379e-11
2.5807654e-09
7.4170715e-11
2.5479457e-09
7.1899392e-11
2.5161977e-09
6.9552864e-11
2.4855686e-09
6.7102968e-11
2.456117e-09
6.4525092e-11
2.4279144e-09
6.1790774e-11
2.401046e-09
5.88702e-11
2.3756238e-09
5.5704966e-11
2.3517983e-09
5.2210471e-11
2.3297662e-09
4.8286152e-11
2.3098132e-09
4.3736657e-11
2.2922894e-09
3.84205e-11
2.2777212e-09
3.1955807e-11
2.2666135e-09
2.4383695e-11
2.2594011e-09
1.5859407e-11
2.2567494e-09
5.8831108e-12
2.25937e-09
-5.6520315e-12
2.2680114e-09
-1.8825898e-11
2.2834544e-09
-3.370952e-11
2.3062468e-09
-4.9795342e-11
2.3364979e-09
-6.6123332e-11
2.3741472e-09
-8.2322037e-11
2.4189668e-09
-9.8029255e-11
2.4694516e-09
-1.104555e-10
2.5221952e-09
-1.1543721e-10
2.5735803e-09
-1.1250282e-10
2.6196164e-09
-1.008246e-10
2.6586452e-09
-8.5507022e-11
2.6910774e-09
-7.1076555e-11
2.7168984e-09
-5.6602425e-11
2.7372551e-09
-4.463426e-11
2.7530934e-09
-3.4735087e-11
2.7651931e-09
-2.6543765e-11
2.7741023e-09
-1.9552728e-11
2.7802417e-09
-1.348338e-11
2.783909e-09
-8.0664494e-12
2.7852424e-09
-2.9536665e-12
2.7843557e-09
1.910363e-12
2.7815206e-09
6.1797966e-12
2.776993e-09
9.8881222e-12
2.7710692e-09
1.2948038e-11
2.7640224e-09
1.5409577e-11
2.7560531e-09
1.7431988e-11
2.747365e-09
1.9008261e-11
2.7381655e-09
2.0130703e-11
2.7285961e-09
2.0942765e-11
2.7187474e-09
2.1556152e-11
2.7087181e-09
2.195346e-11
2.6986094e-09
2.2129311e-11
2.6884775e-09
2.2181292e-11
2.678334e-09
2.2207867e-11
2.6681884e-09
2.2213902e-11
2.658046e-09
2.2207969e-11
2.6479387e-09
2.213197e-11
2.6376664e-09
2.2494652e-11
2.6274109e-09
2.2458535e-11
2.6160169e-09
2.4953894e-11
2.6044986e-09
2.5228915e-11
2.5918115e-09
2.7774964e-11
1.6601026e-11
2.3101002e-06
7.8477712e-11
2.3100597e-06
1.8137303e-10
2.3100099e-06
2.2325194e-10
2.3099536e-06
2.5207536e-10
2.3098888e-06
2.9023932e-10
2.309814e-06
3.347149e-10
2.309728e-06
3.8532011e-10
2.3096289e-06
4.4420099e-10
2.3095142e-06
5.138831e-10
2.309381e-06
5.9716402e-10
2.3092254e-06
6.9762676e-10
2.3090425e-06
8.2051865e-10
2.3088257e-06
9.7295813e-10
2.3085657e-06
1.1675e-09
2.3082499e-06
1.4179003e-09
2.307857e-06
1.7656009e-09
2.3073629e-06
2.2208333e-09
2.3066962e-06
2.9982368e-09
2.3058326e-06
3.8859863e-09
2.304412e-06
6.3965754e-09
2.3026121e-06
8.1069808e-09
2.2981613e-06
2.0061845e-08
2.296949e-06
5.4034194e-09
1.1839056e-06
5.1910001e-06
4.7664653e-08
5.2565765e-06
2.3139725e-08
6.3625877e-08
1.750842e-08
1.453815e-08
1.4791549e-08
7.0131037e-09
1.3115929e-08
4.3249104e-09
1.1928428e-08
3.0650042e-09
1.1022502e-08
2.3382487e-09
1.0296087e-08
1.8749393e-09
9.6961324e-09
1.5485325e-09
9.1890601e-09
1.3087959e-09
8.752141e-09
1.1277272e-09
8.3700332e-09
9.8625541e-10
8.0318606e-09
8.7285497e-10
7.7295763e-09
7.8022331e-10
7.4570554e-09
7.0340049e-10
7.2095551e-09
6.3881997e-10
6.9833084e-09
5.8396137e-10
6.7753064e-09
5.3686971e-10
6.5831379e-09
4.9600154e-10
6.404792e-09
4.6032348e-10
6.2385997e-09
4.2895339e-10
6.0831646e-09
4.0118781e-10
5.937301e-09
3.7648265e-10
5.7999981e-09
3.5438623e-10
5.6703914e-09
3.345216e-10
5.5477351e-09
3.1658161e-10
5.4313769e-09
3.0032551e-10
5.3207458e-09
2.8554313e-10
5.2153418e-09
2.7205154e-10
5.1147235e-09
2.5969894e-10
5.0185024e-09
2.4834941e-10
4.9263335e-09
2.3789043e-10
4.8379061e-09
2.2823317e-10
4.7529418e-09
2.1929452e-10
4.6711916e-09
2.1099893e-10
4.5924307e-09
2.0328329e-10
4.5164569e-09
1.9608965e-10
4.44309e-09
1.8936103e-10
4.3721683e-09
1.8305009e-10
4.3035423e-09
1.7712474e-10
4.2370749e-09
1.7155347e-10
4.1726432e-09
1.6629959e-10
4.1101376e-09
1.613286e-10
4.0494596e-09
1.5661184e-10
3.9905206e-09
1.5212357e-10
3.9332441e-09
1.4783345e-10
3.8775645e-09
1.4371215e-10
3.8234268e-09
1.3973362e-10
3.7707858e-09
1.3587116e-10
3.7196068e-09
1.3209898e-10
3.6698639e-09
1.2839359e-10
3.6215404e-09
1.2473194e-10
3.5746334e-09
1.2107771e-10
3.5291645e-09
1.1736827e-10
3.4851816e-09
1.1353574e-10
3.4427505e-09
1.0953409e-10
3.4019525e-09
1.0532304e-10
3.3628873e-09
1.0085606e-10
3.3256731e-09
9.6084359e-11
3.2904657e-09
9.0912389e-11
3.2574743e-09
8.520182e-11
3.2269722e-09
7.8788267e-11
3.1993566e-09
7.1352293e-11
3.1751125e-09
6.2664606e-11
3.1549748e-09
5.2093511e-11
3.1396415e-09
3.9716986e-11
3.1297149e-09
2.578599e-11
3.126124e-09
9.4740247e-12
3.1298541e-09
-9.3821646e-12
3.1419446e-09
-3.0916361e-11
3.1634773e-09
-5.5242247e-11
3.1952095e-09
-8.1527539e-11
3.237289e-09
-1.0820283e-10
3.2896293e-09
-1.3466234e-10
3.3519061e-09
-1.6030607e-10
3.4220153e-09
-1.8056468e-10
3.4952167e-09
-1.8863857e-10
3.5664875e-09
-1.8377365e-10
3.6303012e-09
-1.646383e-10
3.6843683e-09
-1.3957409e-10
3.7292708e-09
-1.1597907e-10
3.7650036e-09
-9.2335215e-11
3.7931626e-09
-7.2793312e-11
3.8150619e-09
-5.663441e-11
3.8317834e-09
-4.3265252e-11
3.8440862e-09
-3.1855456e-11
3.8525534e-09
-2.1950604e-11
3.8575968e-09
-1.3109886e-11
3.8594068e-09
-4.7636959e-12
3.8581418e-09
3.175456e-12
3.8541781e-09
1.014343e-11
3.8478706e-09
1.6195595e-11
3.83963e-09
2.118871e-11
3.8298349e-09
2.5204652e-11
3.8187634e-09
2.8503461e-11
3.8066983e-09
3.107342e-11
3.7939267e-09
3.2902322e-11
3.7806446e-09
3.4224862e-11
3.7669775e-09
3.5223251e-11
3.7530621e-09
3.5868789e-11
3.7390385e-09
3.615295e-11
3.7249845e-09
3.6235322e-11
3.7109158e-09
3.6276556e-11
3.6968453e-09
3.6284377e-11
3.6827807e-09
3.6272609e-11
3.668766e-09
3.6146626e-11
3.6545237e-09
3.6736992e-11
3.6403054e-09
3.6676839e-11
3.6245113e-09
4.0747904e-11
3.6085461e-09
4.1194152e-11
3.5909567e-09
4.5364413e-11
2.7095019e-11
2.4685122e-06
9.7474203e-11
2.4684682e-06
2.2535304e-10
2.468414e-06
2.7745592e-10
2.4683528e-06
3.1328643e-10
2.4682823e-06
3.6071157e-10
2.4682011e-06
4.1596853e-10
2.4681075e-06
4.7882678e-10
2.4679998e-06
5.5195206e-10
2.4678752e-06
6.384805e-10
2.4677305e-06
7.4188334e-10
2.4675615e-06
8.6660528e-10
2.4673629e-06
1.0191559e-09
2.4671275e-06
1.2083646e-09
2.4668451e-06
1.4498062e-09
2.4665025e-06
1.760536e-09
2.4660761e-06
2.1919672e-09
2.4655402e-06
2.7567328e-09
2.4648174e-06
3.7211211e-09
2.4638813e-06
4.822065e-09
2.4623423e-06
7.9355605e-09
2.4603926e-06
1.0056688e-08
2.455574e-06
2.4880476e-08
2.454252e-06
6.7253813e-09
1.2740212e-06
6.3712309e-06
6.3620256e-08
6.4669775e-06
3.0960462e-08
9.6285672e-08
2.3426675e-08
2.2071937e-08
1.9791498e-08
1.0648282e-08
1.7549296e-08
6.5671124e-09
1.5960245e-08
4.6540549e-09
1.4747981e-08
3.5505122e-09
1.3775939e-08
2.8469812e-09
1.2973118e-08
2.3513544e-09
1.2294584e-08
1.98733e-09
1.1709925e-08
1.7123858e-09
1.1198612e-08
1.4975687e-09
1.0746089e-08
1.3253774e-09
1.034159e-08
1.1847227e-09
9.9769174e-09
1.0680728e-09
9.6457256e-09
9.7001174e-10
9.3429737e-09
8.8671332e-10
9.0646351e-09
8.1520831e-10
8.8074837e-09
7.5315294e-10
8.5688284e-09
6.9897873e-10
8.3464363e-09
6.5134555e-10
8.1384385e-09
6.0918563e-10
7.9432484e-09
5.7167271e-10
7.7595137e-09
5.3812093e-10
7.5860773e-09
5.0795797e-10
7.4219415e-09
4.8071742e-10
7.2662334e-09
4.5603368e-10
7.1181888e-09
4.3358767e-10
6.9771388e-09
4.131016e-10
6.8424927e-09
3.9434497e-10
6.7137307e-09
3.7711143e-10
6.590391e-09
3.6123012e-10
6.4720581e-09
3.4656612e-10
6.3583593e-09
3.3299325e-10
6.2489615e-09
3.2039679e-10
6.1435639e-09
3.0868092e-10
6.0418959e-09
2.9775764e-10
5.9437165e-09
2.8754043e-10
5.8488091e-09
2.7795741e-10
5.7569741e-09
2.6895984e-10
5.6680277e-09
2.6049986e-10
5.5818055e-09
2.5252174e-10
5.498161e-09
2.4497312e-10
5.4169624e-09
2.3781044e-10
5.3380913e-09
2.3099462e-10
5.2614452e-09
2.2447957e-10
5.1869366e-09
2.1822075e-10
5.1144917e-09
2.1217855e-10
5.0440505e-09
2.0631238e-10
4.9755664e-09
2.0058309e-10
4.909005e-09
1.9495495e-10
4.844344e-09
1.8939291e-10
4.78158e-09
1.8384174e-10
4.7207421e-09
1.7820621e-10
4.6618946e-09
1.7238318e-10
4.6051261e-09
1.6630266e-10
4.5505458e-09
1.5990329e-10
4.4982876e-09
1.5311426e-10
4.4485107e-09
1.4586131e-10
4.4014241e-09
1.3799897e-10
4.3573091e-09
1.2931676e-10
4.3165327e-09
1.195647e-10
4.2796283e-09
1.0825666e-10
4.2472451e-09
9.5047898e-11
4.2203758e-09
7.8962778e-11
4.1999518e-09
6.0141012e-11
4.1867786e-09
3.8959111e-11
4.1821115e-09
1.4141177e-11
4.1872682e-09
-1.4538833e-11
4.2036426e-09
-4.7290815e-11
4.2326834e-09
-8.428308e-11
4.2754007e-09
-1.2424475e-10
4.3319863e-09
-1.6478843e-10
4.4023201e-09
-2.0499617e-10
4.4859544e-09
-2.4394041e-10
4.5800419e-09
-2.7465214e-10
4.6782044e-09
-2.8680113e-10
4.7737027e-09
-2.7927193e-10
4.8591452e-09
-2.5008073e-10
4.9314812e-09
-2.1191009e-10
4.9915121e-09
-1.7601e-10
5.0392559e-09
-1.4007905e-10
5.0768602e-09
-1.1039762e-10
5.1060894e-09
-8.5863543e-11
5.128393e-09
-6.5568897e-11
5.1447868e-09
-4.8249253e-11
5.1560516e-09
-3.3215433e-11
5.1627374e-09
-1.9795698e-11
5.1650968e-09
-7.1230752e-12
5.1633426e-09
4.9296411e-12
5.1579793e-09
1.550674e-11
5.1494813e-09
2.4693618e-11
5.1383987e-09
3.2271329e-11
5.1252387e-09
3.8364631e-11
5.1103736e-09
4.3368541e-11
5.0941824e-09
4.7264667e-11
5.0770495e-09
5.0035166e-11
5.059237e-09
5.2037433e-11
5.0409124e-09
5.3547851e-11
5.0222589e-09
5.4522259e-11
5.0034636e-09
5.4948196e-11
4.9846304e-09
5.5068571e-11
4.9657798e-09
5.5127123e-11
4.946929e-09
5.5135175e-11
4.9280883e-09
5.5113364e-11
4.9093164e-09
5.4918454e-11
4.8902417e-09
5.5811737e-11
4.8712003e-09
5.5718282e-11
4.8500529e-09
6.1895226e-11
4.8286778e-09
6.2569312e-11
4.805124e-09
6.8918149e-11
4.1143778e-11
2.6637105e-06
1.1834309e-10
2.6636622e-06
2.7370612e-10
2.6636025e-06
3.370842e-10
2.6635352e-06
3.8062762e-10
2.6634577e-06
4.3823828e-10
2.6633683e-06
5.0534739e-10
2.6632654e-06
5.8166891e-10
2.663147e-06
6.7043959e-10
2.66301e-06
7.7546584e-10
2.6628509e-06
9.0095744e-10
2.6626652e-06
1.052303e-09
2.662447e-06
1.2373951e-09
2.6621884e-06
1.466937e-09
2.6618784e-06
1.7598122e-09
2.6615022e-06
2.1366859e-09
2.6610343e-06
2.6598973e-09
2.6604463e-06
3.3446819e-09
2.6596535e-06
4.5139222e-09
2.6586273e-06
5.8482759e-09
2.6569411e-06
9.621823e-09
2.6548052e-06
1.2192609e-08
2.6495294e-06
3.0156242e-08
2.6480705e-06
8.1842592e-09
1.3850365e-06
7.6342649e-06
8.3280365e-08
7.7687336e-06
4.0632682e-08
1.3893336e-07
3.0746369e-08
3.195825e-08
2.5975443e-08
1.5419207e-08
2.3032389e-08
9.510167e-09
2.0946619e-08
6.7398244e-09
1.9355412e-08
5.1417199e-09
1.8079528e-08
4.1228644e-09
1.7025758e-08
3.4051249e-09
1.6135123e-08
2.8779646e-09
1.5367709e-08
2.4798006e-09
1.4696566e-08
2.1687116e-09
1.410259e-08
1.9193531e-09
1.3571648e-08
1.7156649e-09
1.3092981e-08
1.5467394e-09
1.265826e-08
1.4047328e-09
1.2260868e-08
1.2841057e-09
1.1895519e-08
1.1805569e-09
1.155798e-08
1.0906918e-09
1.1244719e-08
1.0122404e-09
1.0952803e-08
9.4326088e-10
1.0679781e-08
8.8220751e-10
1.0423571e-08
8.2788359e-10
1.0182396e-08
7.792959e-10
9.9547379e-09
7.3561567e-10
9.7392878e-09
6.9616749e-10
9.5348996e-09
6.6042187e-10
9.3405705e-09
6.2791676e-10
9.1554223e-09
5.9824988e-10
8.9786798e-09
5.7108743e-10
8.8096606e-09
5.4613061e-10
8.6477588e-09
5.2313198e-10
8.4924287e-09
5.0189614e-10
8.3431816e-09
4.8224036e-10
8.1995799e-09
4.6399852e-10
8.061229e-09
4.4703185e-10
7.9277737e-09
4.3121291e-10
7.7988977e-09
4.1641642e-10
7.6743168e-09
4.0253827e-10
7.5537688e-09
3.8950785e-10
7.4370128e-09
3.7725586e-10
7.323833e-09
3.6570157e-10
7.214037e-09
3.5476912e-10
7.107452e-09
3.4439544e-10
7.0039227e-09
3.345239e-10
6.9033145e-09
3.2508775e-10
6.8055129e-09
3.1602244e-10
6.7104209e-09
3.0727052e-10
6.6179601e-09
2.987732e-10
6.5280695e-09
2.9047369e-10
6.4407042e-09
2.8232022e-10
6.3558352e-09
2.7426192e-10
6.2734583e-09
2.6621866e-10
6.1936121e-09
2.5805232e-10
6.1163819e-09
2.4961342e-10
6.0418842e-09
2.408004e-10
5.9702634e-09
2.3152409e-10
5.901696e-09
2.2168167e-10
5.836392e-09
2.111653e-10
5.7746273e-09
1.9976364e-10
5.7167729e-09
1.8717115e-10
5.6633125e-09
1.7302516e-10
5.6149494e-09
1.5661967e-10
5.5725354e-09
1.3746189e-10
5.5373894e-09
1.1410886e-10
5.5107288e-09
8.6801537e-11
5.4936106e-09
5.6077367e-11
5.4877014e-09
2.0050407e-11
5.4947297e-09
-2.1567152e-11
5.5165305e-09
-6.909163e-11
5.5550066e-09
-1.2275915e-10
5.6114785e-09
-1.8071669e-10
5.6861892e-09
-2.3949914e-10
5.7789742e-09
-2.9778119e-10
5.8892244e-09
-3.5419053e-10
6.0131518e-09
-3.9857956e-10
6.1423293e-09
-4.1597867e-10
6.2678816e-09
-4.0482418e-10
6.3801127e-09
-3.6231186e-10
6.4750393e-09
-3.0683664e-10
6.5537482e-09
-2.5471899e-10
6.616303e-09
-2.0263381e-10
6.6655412e-09
-1.5963578e-10
6.7037881e-09
-1.2411049e-10
6.7329498e-09
-9.4730583e-11
6.7543591e-09
-6.9658598e-11
6.7690418e-09
-4.7898069e-11
6.777718e-09
-2.8471929e-11
6.7807159e-09
-1.0120995e-11
6.7783166e-09
7.3289432e-12
6.771183e-09
2.2640334e-11
6.7599375e-09
3.5939158e-11
6.7453031e-09
4.6905747e-11
6.7279461e-09
5.572158e-11
6.7083557e-09
6.295901e-11
6.68703e-09
6.859028e-11
6.6644744e-09
7.2590782e-11
6.6410319e-09
7.5479943e-11
6.6169223e-09
7.765747e-11
6.5923862e-09
7.9058341e-11
6.567669e-09
7.966538e-11
6.5429062e-09
7.9831435e-11
6.5181242e-09
7.9909108e-11
6.4933453e-09
7.9914064e-11
6.4685831e-09
7.9875555e-11
6.4439146e-09
7.9586956e-11
6.4188512e-09
8.0875124e-11
6.3938333e-09
8.0736185e-11
6.3660552e-09
8.9673293e-11
6.3379799e-09
9.0644687e-11
6.3070388e-09
9.9859236e-11
5.9596217e-11
2.8986041e-06
1.4150823e-10
2.8985504e-06
3.2742756e-10
2.8984841e-06
4.0337631e-10
2.8984092e-06
4.5550044e-10
2.898323e-06
5.2443185e-10
2.8982237e-06
6.047076e-10
2.8981094e-06
6.9597739e-10
2.8979777e-06
8.0211178e-10
2.8978255e-06
9.2766084e-10
2.8976488e-06
1.0776521e-09
2.8974426e-06
1.2585188e-09
2.8972003e-06
1.479684e-09
2.8969133e-06
1.753924e-09
2.8965693e-06
2.1037842e-09
2.8961521e-06
2.5539193e-09
2.8956332e-06
3.1787615e-09
2.8949815e-06
3.996392e-09
2.8941031e-06
5.3923355e-09
2.8929666e-06
6.9848053e-09
2.8911002e-06
1.1488232e-08
2.8887365e-06
1.4556267e-08
2.8829021e-06
3.5990643e-08
2.8812745e-06
9.8118233e-09
1.5191886e-06
8.9963509e-06
1.0778416e-07
9.180138e-06
5.2734731e-08
1.9398279e-07
3.990535e-08
4.478763e-08
3.3713303e-08
2.1611254e-08
2.9893147e-08
1.3330323e-08
2.7185732e-08
9.4472391e-09
2.512027e-08
7.2071816e-09
2.346413e-08
5.7790046e-09
2.2096296e-08
4.7729591e-09
2.0940214e-08
4.0340459e-09
1.9944078e-08
3.4759371e-09
1.9072906e-08
3.0398839e-09
1.8301898e-08
2.6903605e-09
1.7612709e-08
2.4048538e-09
1.6991375e-08
2.1680737e-09
1.6427083e-08
1.9690249e-09
1.5911244e-08
1.7999452e-09
1.5436997e-08
1.6548032e-09
1.4998849e-08
1.5288405e-09
1.4592212e-08
1.4188771e-09
1.4213283e-08
1.3221897e-09
1.3858878e-08
1.2366123e-09
1.3526294e-08
1.1604674e-09
1.3213228e-08
1.0923628e-09
1.2917706e-08
1.0311369e-09
1.2638031e-08
9.7584288e-10
1.2372714e-08
9.2573863e-10
1.2120455e-08
8.8017646e-10
1.1880112e-08
8.3859256e-10
1.165068e-08
8.0051902e-10
1.1431274e-08
7.6553702e-10
1.1221106e-08
7.3329973e-10
1.1019469e-08
7.0353325e-10
1.0825728e-08
6.7598145e-10
1.0639315e-08
6.5041148e-10
1.0459718e-08
6.266288e-10
1.0286476e-08
6.0445481e-10
1.0119179e-08
5.8371388e-10
9.9574568e-09
5.6426009e-10
9.8009702e-09
5.4599443e-10
9.6494064e-09
5.2881972e-10
9.5024851e-09
5.1262279e-10
9.3599569e-09
4.9729731e-10
9.2215976e-09
4.8275481e-10
9.0872056e-09
4.689159e-10
8.9566063e-09
4.5568697e-10
8.8296513e-09
4.4297749e-10
8.706215e-09
4.3070679e-10
8.5861959e-09
4.1879237e-10
8.4695149e-09
4.071546e-10
8.3561144e-09
3.9572079e-10
8.2459568e-09
3.8441945e-10
8.1390375e-09
3.7313803e-10
8.0354072e-09
3.616826e-10
7.9351772e-09
3.4984337e-10
7.8384999e-09
3.3747769e-10
7.745564e-09
3.2446005e-10
7.6565998e-09
3.1064587e-10
7.5718816e-09
2.9588353e-10
7.4917696e-09
2.7987563e-10
7.416748e-09
2.6219268e-10
7.3474479e-09
2.4232528e-10
7.2847872e-09
2.1928037e-10
7.2298706e-09
1.9237851e-10
7.1844342e-09
1.5954529e-10
7.1500512e-09
1.2118448e-10
7.1280918e-09
7.8036829e-11
7.1207492e-09
2.7392939e-11
7.1302653e-09
-3.1083184e-11