/*--------------------------------*- C++ -*----------------------------------*\
| =========                 |                                                 |
| \\      /  F ield         | OpenFOAM: The Open Source CFD Toolbox           |
|  \\    /   O peration     | Version:  2206                                  |
|   \\  /    A nd           | Website:  www.openfoam.com                      |
|    \\/     M anipulation  |                                                 |
\*---------------------------------------------------------------------------*/
FoamFile
{
    version     2.0;
    format      ascii;
    arch        "LSB;label=32;scalar=64";
    class       volVectorField;
    location    "300";
    object      U;
}
// * * * * * * * * * * * * * * * * * * * * * * * * * * * * * * * * * * * * * //

dimensions      [0 1 -1 0 0 0 0];

internalField   nonuniform List<vector> 
13056
(
(1 1.7942604e-10 5.0159104e-25)
(0.99998646 4.6989748e-10 0)
(0.99996712 6.5582306e-10 0)
(0.9999457 8.4002953e-10 0)
(0.99992114 1.0970059e-09 0)
(0.99989277 1.4343772e-09 0)
(0.99986009 1.8712597e-09 0)
(0.99982247 2.4429694e-09 0)
(0.99977903 3.1976523e-09 0)
(0.99972866 4.1992674e-09 0)
(0.99966999 5.5354709e-09 0)
(0.99960124 7.3320751e-09 0)
(0.99952007 9.7671422e-09 0)
(0.9994234 1.3125388e-08 0)
(0.9993066 1.7782306e-08 0)
(0.99916401 2.4581928e-08 0)
(0.99898358 3.4121671e-08 0)
(0.99875716 5.0469426e-08 0)
(0.99843503 7.1044808e-08 0)
(0.99804286 1.2573745e-07 0)
(0.99726615 1.69224e-07 0)
(0.99654307 4.3902506e-07 0)
(0.99359761 1.2164021e-07 -5.3113489e-21)
(0.99549781 0.00012400289 8.925942e-18)
(0.0031615445 0.00012442386 0)
(0.0012378261 7.5128498e-08 -1.2532135e-20)
(0.0008802307 4.8470246e-08 4.1431595e-18)
(0.00072260451 6.1461241e-09 0)
(0.00063164524 3.7601412e-09 0)
(0.0005692992 2.6415035e-09 0)
(0.00052298365 1.9975328e-09 0)
(0.00048639254 1.5869292e-09 0)
(0.0004564978 1.2981488e-09 0)
(0.00043147838 1.0864947e-09 0)
(0.00041008311 9.2679593e-10 0)
(0.00039148337 8.0215359e-10 0)
(0.00037510431 7.0238409e-10 0)
(0.00036052571 6.2099975e-10 0)
(0.00034743148 5.5359297e-10 0)
(0.00033557722 4.9696671e-10 0)
(0.00032477328 4.4898164e-10 0)
(0.00031486451 4.0781628e-10 1.2376853e-25)
(0.0003057307 3.7208611e-10 0)
(0.0002972714 3.4096681e-10 0)
(0.00028940297 3.136098e-10 0)
(0.00028205627 2.8942087e-10 0)
(0.00027517262 2.6791266e-10 0)
(0.00026870217 2.4868685e-10 0)
(0.00026260224 2.3141286e-10 0)
(0.00025683636 2.1582089e-10 0)
(0.00025137274 2.0169715e-10 0)
(0.00024618345 1.8885652e-10 0)
(0.00024124416 1.7713926e-10 0)
(0.0002365334 1.6641225e-10 0)
(0.00023203225 1.5655776e-10 0)
(0.00022772406 1.4747791e-10 0)
(0.00022359388 1.3909352e-10 0)
(0.00021962822 1.313319e-10 0)
(0.00021581509 1.2412805e-10 0)
(0.00021214368 1.1742699e-10 0)
(0.00020860422 1.11179e-10 0)
(0.00020518796 1.0533713e-10 0)
(0.00020188715 9.9861938e-11 0)
(0.00019869474 9.4724076e-11 0)
(0.00019560409 8.989564e-11 0)
(0.00019260928 8.5347241e-11 0)
(0.00018970497 8.1051953e-11 0)
(0.00018688646 7.6987198e-11 0)
(0.00018414944 7.3132867e-11 0)
(0.00018149011 6.9467638e-11 0)
(0.00017890523 6.5971857e-11 0)
(0.00017639205 6.262773e-11 0)
(0.00017394826 5.9418927e-11 0)
(0.00017157204 5.6331183e-11 0)
(0.000169262 5.3351474e-11 0)
(0.00016701714 5.0467797e-11 0)
(0.00016483691 4.7662867e-11 0)
(0.00016272158 4.4909723e-11 0)
(0.00016067283 4.2183445e-11 0)
(0.00015869334 3.9470598e-11 0)
(0.00015678639 3.6758499e-11 0)
(0.0001549561 3.4035861e-11 0)
(0.0001532074 3.1293958e-11 0)
(0.00015154611 2.8504417e-11 0)
(0.00014998056 2.5629414e-11 0)
(0.00014852147 2.263216e-11 0)
(0.00014718299 1.9413589e-11 0)
(0.00014598722 1.6033478e-11 0)
(0.00014495635 1.1968334e-11 -1.0068117e-24)
(0.00014413488 3.6767168e-11 0)
(0.00014354203 3.5805632e-12 0)
(0.00014321386 -9.099511e-13 0)
(0.00014319833 -6.6082419e-12 0)
(0.00014353765 -1.2129735e-11 0)
(0.00014428466 -1.7852664e-11 0)
(0.00014548551 -2.3494887e-11 0)
(0.0001471635 -2.8573905e-11 0)
(0.00014930912 -3.3010132e-11 0)
(0.00015192507 -3.6587056e-11 0)
(0.0001549804 -3.8121802e-11 0)
(0.0001583149 -3.6579027e-11 0)
(0.00016165665 -3.254641e-11 0)
(0.00016482156 -9.6969731e-11 8.1785032e-21)
(0.00016748305 -2.0415658e-11 0)
(0.00016976711 -1.5366923e-11 0)
(0.00017159247 -1.1140363e-11 0)
(0.00017304071 -8.0048477e-12 0)
(0.00017417436 -5.6569538e-12 0)
(0.00017505035 -3.8809055e-12 0)
(0.00017571021 -2.4894609e-12 0)
(0.00017618159 -1.4004322e-12 0)
(0.0001764902 -5.3285399e-13 0)
(0.00017664776 1.5847747e-13 0)
(0.00017665982 8.7398136e-13 0)
(0.00017654061 1.4458496e-12 0)
(0.00017630544 1.9399567e-12 0)
(0.00017597137 2.3379602e-12 0)
(0.00017555886 2.6503647e-12 0)
(0.00017508206 2.9006473e-12 0)
(0.00017455225 3.0825725e-12 0)
(0.00017398396 3.1992566e-12 0)
(0.00017338891 3.2776974e-12 0)
(0.00017277339 3.3312165e-12 0)
(0.00017214263 3.3529142e-12 0)
(0.0001715039 3.345141e-12 0)
(0.00017086277 3.3257986e-12 0)
(0.00017022088 3.3070883e-12 0)
(0.00016957806 3.2869627e-12 0)
(0.00016893568 3.2642395e-12 0)
(0.00016829308 3.2335937e-12 0)
(0.00016765498 3.2689634e-12 0)
(0.00016699122 3.2534997e-12 0)
(0.00016635519 3.5819207e-12 0)
(0.0001655465 1.3211636e-11 0)
(0.0001648949 3.9218159e-12 4.835158e-24)
(0.00016393697 8.7689856e-12 0)
(1 5.4404584e-10 0)
(0.99998631 1.4260612e-09 0)
(0.99996675 1.9906517e-09 0)
(0.99994507 2.5498307e-09 0)
(0.99992024 3.3298214e-09 0)
(0.99989153 4.3537305e-09 0)
(0.99985847 5.6795018e-09 0)
(0.99982042 7.4142552e-09 0)
(0.99977648 9.7040141e-09 0)
(0.99972555 1.2742726e-08 0)
(0.99966623 1.6796169e-08 0)
(0.99959672 2.2245786e-08 0)
(0.99951467 2.9631381e-08 0)
(0.99941697 3.9816063e-08 0)
(0.99929895 5.393787e-08 0)
(0.99915488 7.4555283e-08 0)
(0.99897262 1.0347746e-07 0)
(0.99874393 1.5303506e-07 0)
(0.99841867 2.1539611e-07 0)
(0.99802277 3.811488e-07 0)
(0.9972389 5.1294052e-07 0)
(0.9965092 1.3305434e-06 0)
(0.99353775 3.6572085e-07 1.9717929e-20)
(0.99545008 0.00037268611 -7.8609624e-21)
(0.0094955496 0.00037444728 0)
(0.0037317016 1.227469e-06 0)
(0.0026537976 2.730379e-07 3.4220599e-22)
(0.0021786164 1.2866021e-07 0)
(0.0019043663 7.8630465e-08 0)
(0.0017163874 5.5219308e-08 0)
(0.0015767406 4.1735515e-08 0)
(0.0014664166 3.3147671e-08 0)
(0.0013762828 2.7108781e-08 0)
(0.0013008482 2.2681502e-08 0)
(0.0012363409 1.934198e-08 0)
(0.0011802624 1.6736518e-08 0)
(0.0011308794 1.4651327e-08 0)
(0.0010869249 1.2950675e-08 0)
(0.0010474458 1.1542326e-08 0)
(0.0010117052 1.0360118e-08 0)
(0.00097913133 9.3570566e-09 -1.2499235e-24)
(0.00094925648 8.4970455e-09 -2.9753767e-25)
(0.00092171807 7.7517693e-09 0)
(0.0008962133 7.1018078e-09 0)
(0.00087249 6.5309231e-09 0)
(0.00085033973 6.0261294e-09 0)
(0.00082958553 5.5773526e-09 0)
(0.00081007711 5.1762672e-09 0)
(0.00079168581 4.8159622e-09 0)
(0.00077430167 4.4908025e-09 0)
(0.00075782884 4.1963162e-09 0)
(0.0007421831 3.9286346e-09 0)
(0.00072729108 3.6844185e-09 0)
(0.00071308812 3.4608873e-09 0)
(0.00069951709 3.2555856e-09 0)
(0.00068652785 3.0664678e-09 0)
(0.0006740753 2.8918774e-09 0)
(0.00066211881 2.7302982e-09 0)
(0.00065062216 2.5803729e-09 0)
(0.0006395528 2.4409545e-09 0)
(0.00062888126 2.3110074e-09 0)
(0.00061858118 2.1895539e-09 0)
(0.00060862919 2.0757731e-09 0)
(0.000599004 1.9690523e-09 0)
(0.00058968566 1.8688111e-09 0)
(0.00058065624 1.7744392e-09 0)
(0.00057189972 1.6853799e-09 0)
(0.00056340187 1.601165e-09 0)
(0.00055514973 1.5213799e-09 0)
(0.00054713181 1.4455861e-09 0)
(0.00053933841 1.3733808e-09 0)
(0.00053176117 1.3044178e-09 0)
(0.00052439316 1.238366e-09 0)
(0.00051722889 1.1749245e-09 0)
(0.00051026419 1.1138347e-09 0)
(0.00050349606 1.0548615e-09 0)
(0.0004969228 9.9768071e-10 0)
(0.00049054529 9.4178755e-10 0)
(0.00048436855 8.8668771e-10 0)
(0.00047840071 8.3210927e-10 0)
(0.00047265168 7.778617e-10 0)
(0.00046713388 7.2373868e-10 0)
(0.00046186217 6.695542e-10 0)
(0.0004568542 6.148481e-10 0)
(0.00045213506 5.5895399e-10 0)
(0.00044773715 5.011449e-10 0)
(0.00044370318 4.3988726e-10 0)
(0.00044009983 3.7429784e-10 0)
(0.00043699411 3.0188721e-10 1.9305709e-24)
(0.00043452034 2.2696522e-10 1.0259658e-24)
(0.00043273632 1.4175423e-10 0)
(0.00043175117 5.31532e-11 0)
(0.00043170942 -4.1067784e-11 0)
(0.00043273845 -1.414362e-10 0)
(0.00043499758 -2.4676112e-10 0)
(0.00043862589 -3.5212752e-10 0)
(0.00044369345 -4.5012199e-10 0)
(0.00045017139 -5.3825556e-10 0)
(0.00045806751 -6.1475571e-10 0)
(0.0004672877 -6.6372636e-10 0)
(0.00047734788 -6.6397959e-10 0)
(0.00048742752 -6.1866298e-10 0)
(0.00049697157 -5.3697405e-10 2.3420085e-25)
(0.00050499584 -4.2792856e-10 0)
(0.00051188068 -3.3854628e-10 0)
(0.00051738192 -2.5607233e-10 0)
(0.00052174601 -1.9143557e-10 0)
(0.00052516159 -1.4098938e-10 0)
(0.00052780047 -1.0180588e-10 0)
(0.00052978781 -7.078664e-11 0)
(0.00053120702 -4.6062869e-11 0)
(0.00053213554 -2.6084105e-11 0)
(0.00053260872 -9.2900901e-12 0)
(0.0005326432 4.8433078e-12 0)
(0.00053228196 1.7100945e-11 0)
(0.00053157116 2.7748732e-11 0)
(0.00053056222 3.6543957e-11 0)
(0.00052931685 4.362755e-11 0)
(0.00052787778 4.9454829e-11 0)
(0.00052627893 5.4009696e-11 0)
(0.00052456421 5.7266033e-11 0)
(0.00052276893 5.9628549e-11 0)
(0.00052091201 6.1419346e-11 0)
(0.00051900925 6.259234e-11 0)
(0.00051708256 6.3129086e-11 0)
(0.00051514872 6.3305615e-11 0)
(0.00051321264 6.3405263e-11 0)
(0.00051127388 6.3444754e-11 0)
(0.0005093365 6.345055e-11 0)
(0.0005073985 6.3253911e-11 0)
(0.00050547414 6.4309844e-11 0)
(0.00050347253 6.4220441e-11 0)
(0.00050155449 7.138949e-11 0)
(0.00049911633 7.3261526e-11 0)
(0.00049715138 7.9348031e-11 -7.4760955e-24)
(0.00049426272 4.8375336e-11 1.1630797e-24)
(1 9.2109149e-10 0)
(0.99998615 2.4146296e-09 0)
(0.99996633 3.3711574e-09 0)
(0.99994438 4.3182043e-09 0)
(0.99991922 5.6390769e-09 0)
(0.99989015 7.3728568e-09 0)
(0.99985667 9.6175459e-09 0)
(0.99981813 1.2554429e-08 0)
(0.99977365 1.6430613e-08 0)
(0.99972209 2.1574251e-08 0)
(0.99966204 2.8434979e-08 0)
(0.99959169 3.7658082e-08 0)
(0.99950867 5.0156654e-08 0)
(0.99940982 6.7390631e-08 0)
(0.99929043 9.1284585e-08 0)
(0.99914472 1.2616587e-07 0)
(0.99896041 1.7509169e-07 0)
(0.99872922 2.5891755e-07 0)
(0.99840047 3.643808e-07 0)
(0.99800044 6.4467587e-07 0)
(0.99720864 8.6754404e-07 0)
(0.99647158 2.2500304e-06 0)
(0.99347138 6.2052895e-07 -1.0446637e-20)
(0.99539705 0.00062514655 6.8625248e-55)
(0.015933467 0.00062929033 -6.8623365e-55)
(0.0062809437 3.4424664e-06 0)
(0.0044668876 7.799731e-07 -1.8341272e-22)
(0.0036671175 3.7353943e-07 0)
(0.0032054703 2.283069e-07 0)
(0.0028890436 1.6033635e-07 0)
(0.0026539725 1.2118544e-07 0)
(0.0024682644 9.6249319e-08 0)
(0.0023165428 7.8715275e-08 0)
(0.0021895641 6.5860465e-08 0)
(0.0020809796 5.6163825e-08 0)
(0.0019865835 4.8598586e-08 0)
(0.0019034579 4.2544022e-08 0)
(0.0018294701 3.7606009e-08 0)
(0.0017630157 3.3516713e-08 0)
(0.0017028542 3.0083956e-08 0)
(0.0016480231 2.7171526e-08 0)
(0.0015977353 2.4674402e-08 0)
(0.0015513804 2.2510299e-08 0)
(0.0015084486 2.062306e-08 0)
(0.0014685155 1.8965378e-08 0)
(0.0014312302 1.7499608e-08 0)
(0.0013962949 1.6196487e-08 0)
(0.0013634566 1.5031841e-08 0)
(0.0013324987 1.3985605e-08 0)
(0.0013032361 1.3041416e-08 0)
(0.0012755075 1.2186289e-08 0)
(0.0012491711 1.1408991e-08 0)
(0.0012241034 1.0699828e-08 0)
(0.0012001956 1.0050725e-08 0)
(0.0011773515 9.4545525e-09 0)
(0.0011554867 8.9053716e-09 0)
(0.0011345253 8.3983715e-09 0)
(0.0011143989 7.9291503e-09 0)
(0.0010950466 7.4937667e-09 0)
(0.0010764135 7.0888899e-09 0)
(0.0010584501 6.7115131e-09 0)
(0.0010411119 6.3587972e-09 0)
(0.0010243597 6.028358e-09 0)
(0.0010081576 5.7184166e-09 0)
(0.00099247195 5.427287e-09 0)
(0.0009772727 5.1531965e-09 0)
(0.00096253284 4.8945285e-09 0)
(0.00094822841 4.649923e-09 0)
(0.00093433759 4.4181756e-09 0)
(0.00092084107 4.198012e-09 0)
(0.0009077225 3.9882622e-09 0)
(0.00089496782 3.7879175e-09 0)
(0.0008825654 3.5960154e-09 0)
(0.00087050597 3.4116822e-09 0)
(0.00085878255 3.2341655e-09 0)
(0.00084739007 3.0627806e-09 0)
(0.00083632571 2.8965814e-09 0)
(0.00082559097 2.734096e-09 0)
(0.00081519432 2.5738865e-09 0)
(0.00080514946 2.4151608e-09 0)
(0.00079547311 2.2573573e-09 0)
(0.00078618623 2.0998736e-09 0)
(0.00077731388 1.9421671e-09 0)
(0.00076888582 1.7828863e-09 0)
(0.00076094439 1.6200815e-09 0)
(0.00075354419 1.4516344e-09 0)
(0.00074675725 1.273032e-09 0)
(0.00074069598 1.0819696e-09 0)
(0.0007354732 8.7019721e-10 0)
(0.00073131592 6.4068698e-10 2.1745013e-24)
(0.00072832034 4.0342153e-10 0)
(0.00072667155 1.4558444e-10 0)
(0.00072661261 -1.3108808e-10 0)
(0.00072835824 -4.2426023e-10 0)
(0.00073217669 -7.3173978e-10 0)
(0.000738302 -1.0390292e-09 0)
(0.00074685166 -1.3244e-09 0)
(0.00075777667 -1.5807683e-09 0)
(0.00077108964 -1.8025484e-09 0)
(0.0007866304 -1.9426081e-09 0)
(0.00080358145 -1.9394249e-09 0)
(0.00082055952 -1.8032277e-09 0)
(0.00083663034 -1.5372392e-09 0)
(0.00085013795 -1.2421593e-09 0)
(0.00086172371 -9.8076807e-10 0)
(0.00087097886 -7.4067254e-10 0)
(0.00087831932 -5.5293145e-10 0)
(0.00088406319 -4.0664462e-10 0)
(0.00088849989 -2.9312894e-10 0)
(0.00089184008 -2.033012e-10 0)
(0.0008942242 -1.3175159e-10 0)
(0.0008957826 -7.3965689e-11 0)
(0.00089657463 -2.5492252e-11 0)
(0.00089662824 1.5660422e-11 0)
(0.00089601586 5.120759e-11 0)
(0.00089481518 8.2083078e-11 0)
(0.00089311277 1.0756279e-10 0)
(0.00089101259 1.2806353e-10 0)
(0.00088858654 1.4491039e-10 0)
(0.00088589179 1.5804535e-10 0)
(0.00088300225 1.6740311e-10 0)
(0.00087997737 1.7417628e-10 0)
(0.00087684896 1.792951e-10 0)
(0.00087364363 1.8261528e-10 0)
(0.00087039827 1.8409123e-10 0)
(0.00086714107 1.8453464e-10 0)
(0.00086388028 1.8476532e-10 0)
(0.00086061514 1.848246e-10 0)
(0.00085735246 1.8478424e-10 0)
(0.00085408893 1.8416005e-10 0)
(0.0008508485 1.8718749e-10 0)
(0.0008474782 1.8689381e-10 0)
(0.00084424853 2.0767838e-10 0)
(0.00084014407 2.0967855e-10 0)
(0.00083683557 2.3100678e-10 0)
(0.00083197192 1.3816219e-10 0)
(1 1.3170391e-09 1.0751126e-24)
(0.99998596 3.453413e-09 0)
(0.99996587 4.8223397e-09 0)
(0.9999436 6.177192e-09 0)
(0.99991809 8.0665998e-09 0)
(0.9998886 1.0546393e-08 0)
(0.99985465 1.3756561e-08 0)
(0.99981558 1.795623e-08 0)
(0.99977048 2.3498587e-08 0)
(0.99971821 3.085257e-08 0)
(0.99965735 4.0660647e-08 0)
(0.99958606 5.3844778e-08 0)
(0.99950194 7.1709422e-08 0)
(0.99940181 9.6340211e-08 0)
(0.99928089 1.3048589e-07 0)
(0.99913335 1.8032798e-07 0)
(0.99894677 2.5022915e-07 0)
(0.99871278 3.6998055e-07 0)
(0.99838013 5.2061128e-07 0)
(0.99797549 9.2091794e-07 0)
(0.99717485 1.2392099e-06 0)
(0.9964296 3.213361e-06 0)
(0.99339742 8.889588e-07 0)
(0.99533783 0.00088509277 -3.5802374e-55)
(0.022568114 0.0008928396 3.5801707e-55)
(0.0089235065 7.1013631e-06 0)
(0.0063465024 1.6080376e-06 0)
(0.0052102753 7.6941021e-07 0)
(0.0045543281 4.7028594e-07 0)
(0.0041047211 3.3027669e-07 0)
(0.0037707077 2.4962834e-07 0)
(0.0035068385 1.982611e-07 0)
(0.0032912605 1.621432e-07 0)
(0.0031108387 1.3566377e-07 0)
(0.0029565534 1.1568966e-07 0)
(0.0028224283 1.0010613e-07 0)
(0.0027043172 8.7634493e-08 0)
(0.0025991897 7.746285e-08 0)
(0.0025047662 6.9039469e-08 0)
(0.0024192841 6.1968483e-08 0)
(0.0023413759 5.5969293e-08 0)
(0.002269923 5.0825581e-08 0)
(0.0022040582 4.6367867e-08 0)
(0.0021430571 4.248044e-08 0)
(0.0020863168 3.9065868e-08 0)
(0.0020333387 3.6046608e-08 0)
(0.0019836995 3.3362379e-08 0)
(0.0019370399 3.0963388e-08 0)
(0.0018930521 2.8808303e-08 0)
(0.001851473 2.6863421e-08 0)
(0.0018120736 2.5101991e-08 0)
(0.0017746523 2.3500878e-08 0)
(0.0017390337 2.2040111e-08 0)
(0.0017050631 2.0703056e-08 0)
(0.0016726039 1.9475033e-08 0)
(0.0016415362 1.8343804e-08 0)
(0.0016117521 1.729946e-08 0)
(0.0015831544 1.6332934e-08 0)
(0.0015556566 1.5436109e-08 0)
(0.0015291807 1.4602122e-08 0)
(0.0015036563 1.382478e-08 0)
(0.0014790204 1.3098236e-08 0)
(0.001455217 1.2417578e-08 0)
(0.0014321953 1.1779142e-08 0)
(0.0014099076 1.1179454e-08 0)
(0.0013883108 1.0614864e-08 0)
(0.0013673669 1.0082041e-08 0)
(0.0013470417 9.5781836e-09 0)
(0.0013273043 9.1008108e-09 0)
(0.0013081271 8.647298e-09 0)
(0.001289487 8.2152349e-09 0)
(0.0012713641 7.8025432e-09 0)
(0.0012537418 7.4072402e-09 0)
(0.0012366069 7.0275257e-09 0)
(0.0012199496 6.6618498e-09 0)
(0.0012037626 6.3088014e-09 0)
(0.0011880421 5.9664307e-09 0)
(0.0011727902 5.6317058e-09 0)
(0.0011580189 5.3016646e-09 0)
(0.0011437478 4.974674e-09 0)
(0.0011300007 4.6495766e-09 0)
(0.0011168074 4.3251305e-09 0)
(0.0011042038 4.0002151e-09 0)
(0.0010922321 3.6720442e-09 0)
(0.0010809527 3.3365999e-09 0)
(0.0010704434 2.9895147e-09 0)
(0.0010608067 2.6214921e-09 0)
(0.0010522027 2.2277955e-09 0)
(0.0010447916 1.7913677e-09 -1.1138578e-24)
(0.0010388985 1.3198525e-09 -1.1838531e-24)
(0.0010346568 8.294917e-10 0)
(0.0010323332 2.979602e-10 0)
(0.0010322723 -2.7200518e-10 0)
(0.0010347798 -8.7613814e-10 0)
(0.0010402372 -1.5097151e-09 0)
(0.001048977 -2.1428409e-09 0)
(0.001061165 -2.7307497e-09 0)
(0.0010767309 -3.2588192e-09 0)
(0.0010956918 -3.7154692e-09 0)
(0.0011178166 -4.0035554e-09 0)
(0.001141938 -3.9963802e-09 0)
(0.001166086 -3.7151811e-09 0)
(0.0011889328 -3.1698937e-09 -2.7022853e-25)
(0.0012081271 -2.5584972e-09 0)
(0.0012245825 -2.019857e-09 0)
(0.0012377228 -1.525227e-09 0)
(0.0012481413 -1.1385146e-09 0)
(0.0012562912 -8.3722001e-10 0)
(0.0012625843 -6.0343376e-10 0)
(0.0012673198 -4.1843952e-10 0)
(0.0012706974 -2.7109291e-10 0)
(0.0012729022 -1.5208716e-10 0)
(0.0012740184 -5.2236857e-11 0)
(0.0012740854 3.2497267e-11 0)
(0.0012732064 1.0571127e-10 0)
(0.0012714916 1.6930322e-10 0)
(0.0012690643 2.2177957e-10 0)
(0.0012660722 2.6399723e-10 0)
(0.0012626174 2.9868701e-10 0)
(0.0012587814 3.2572938e-10 0)
(0.0012546691 3.4499089e-10 0)
(0.0012503651 3.5892916e-10 0)
(0.0012459144 3.6946016e-10 0)
(0.001241355 3.7628647e-10 0)
(0.0012367391 3.7931483e-10 0)
(0.0012321068 3.8021743e-10 0)
(0.0012274699 3.8068301e-10 0)
(0.001222827 3.8079591e-10 0)
(0.001218188 3.8070373e-10 0)
(0.0012135481 3.7940941e-10 0)
(0.0012089413 3.8563646e-10 0)
(0.0012041503 3.8502322e-10 0)
(0.0011995592 4.2782295e-10 0)
(0.0011937261 4.3232561e-10 0)
(0.0011890231 4.7610413e-10 0)
(0.0011821099 2.8457815e-10 0)
(1 1.738686e-09 0)
(0.99998576 4.5603149e-09 0)
(0.99996535 6.3693379e-09 0)
(0.99994273 8.1590173e-09 0)
(0.99991681 1.0654453e-08 0)
(0.99988687 1.3929287e-08 0)
(0.99985238 1.8168126e-08 0)
(0.9998127 2.371294e-08 0)
(0.99976691 3.1029794e-08 0)
(0.99971385 4.0737375e-08 0)
(0.99965207 5.3683204e-08 0)
(0.99957974 7.1083412e-08 0)
(0.99949439 9.4658476e-08 0)
(0.99939281 1.2715909e-07 0)
(0.99927018 1.7220958e-07 0)
(0.99912058 2.3796198e-07 0)
(0.99893144 3.301632e-07 0)
(0.99869431 4.881005e-07 0)
(0.9983573 6.8671852e-07 0)
(0.9979475 1.2145062e-06 0)
(0.99713697 1.6341585e-06 0)
(0.99638255 4.2366013e-06 0)
(0.99331463 1.1757162e-06 0)
(0.9952714 0.0011562031 0)
(0.029493389 0.0011688541 0)
(0.011698723 1.2356775e-05 0)
(0.0083206334 2.7900551e-06 0)
(0.0068310728 1.3344112e-06 0)
(0.0059710221 8.1567583e-07 0)
(0.0053815137 5.7284389e-07 0)
(0.0049435617 4.3296322e-07 0)
(0.0045975868 3.4386774e-07 0)
(0.0043149298 2.8122424e-07 0)
(0.0040783675 2.352977e-07 0)
(0.0038760746 2.0065385e-07 0)
(0.0037002152 1.7362532e-07 0)
(0.0035453528 1.5199428e-07 0)
(0.0034075138 1.3435245e-07 0)
(0.0032837093 1.1974286e-07 0)
(0.0031716284 1.0747888e-07 0)
(0.003069478 9.7073853e-08 0)
(0.0029757912 8.8152576e-08 0)
(0.0028894313 8.0421105e-08 0)
(0.0028094484 7.3678745e-08 0)
(0.002735052 6.77565e-08 0)
(0.0026655884 6.2519887e-08 0)
(0.0026005026 5.7864353e-08 0)
(0.0025393234 5.3703533e-08 0)
(0.0024816473 4.9965744e-08 0)
(0.0024271295 4.6592533e-08 0)
(0.0023754695 4.3537499e-08 0)
(0.0023264031 4.0760516e-08 0)
(0.0022797003 3.8226948e-08 0)
(0.0022351583 3.5907948e-08 0)
(0.0021925979 3.377805e-08 0)
(0.002151862 3.1816032e-08 0)
(0.0021128092 3.0004706e-08 0)
(0.0020753119 2.8328347e-08 0)
(0.0020392567 2.6772874e-08 0)
(0.0020045415 2.5326387e-08 0)
(0.0019710739 2.3978145e-08 0)
(0.0019387712 2.2718007e-08 0)
(0.0019075602 2.1537452e-08 0)
(0.001877374 2.0430126e-08 0)
(0.0018481503 1.9390003e-08 0)
(0.0018198327 1.8410751e-08 0)
(0.001792371 1.7486594e-08 0)
(0.0017657206 1.6612672e-08 0)
(0.001739841 1.5784683e-08 0)
(0.0017146962 1.4998073e-08 0)
(0.0016902556 1.4248663e-08 0)
(0.0016664932 1.3532845e-08 0)
(0.0016433874 1.2847181e-08 0)
(0.0016209209 1.2188548e-08 0)
(0.0015990808 1.1554256e-08 0)
(0.0015778578 1.0941857e-08 0)
(0.0015572465 1.0347967e-08 0)
(0.0015372501 9.7673246e-09 0)
(0.0015178844 9.194792e-09 0)
(0.001499175 8.6275338e-09 0)
(0.0014811534 8.063539e-09 0)
(0.0014638588 7.5006515e-09 0)
(0.0014473383 6.936923e-09 0)
(0.0014316475 6.3675136e-09 0)
(0.0014168659 5.7854468e-09 0)
(0.0014030958 5.1831408e-09 0)
(0.0013904721 4.5444554e-09 0)
(0.0013792052 3.861256e-09 0)
(0.0013695046 3.103605e-09 0)
(0.001361802 2.2864855e-09 0)
(0.0013562653 1.4342376e-09 0)
(0.0013532514 5.1138334e-10 0)
(0.0013532108 -4.7790192e-10 0)
(0.0013565455 -1.5265165e-09 0)
(0.0013637561 -2.626145e-09 0)
(0.0013752783 -3.7247991e-09 0)
(0.0013913281 -4.7447849e-09 0)
(0.0014118119 -5.6607644e-09 0)
(0.0014367511 -6.4523999e-09 0)
(0.0014658362 -6.9508415e-09 0)
(0.0014975266 -6.9364139e-09 0)
(0.0015292318 -6.4464896e-09 0)
(0.0015592094 -5.5016391e-09 0)
(0.0015843798 -4.437045e-09 0)
(0.0016059442 -3.5020101e-09 0)
(0.0016231557 -2.6438889e-09 0)
(0.0016367964 -1.9731837e-09 0)
(0.0016474623 -1.4507308e-09 0)
(0.0016556946 -1.0453849e-09 0)
(0.0016618854 -7.2465319e-10 0)
(0.0016662965 -4.692132e-10 0)
(0.001669171 -2.6290319e-10 0)
(0.0016706183 -8.9774194e-11 0)
(0.0016706902 5.714451e-11 0)
(0.0016695221 1.8410034e-10 0)
(0.0016672587 2.94372e-10 0)
(0.0016640614 3.85358e-10 0)
(0.0016601242 4.5854665e-10 0)
(0.0016555812 5.1867465e-10 0)
(0.001650539 5.6553199e-10 0)
(0.0016451357 5.9889195e-10 0)
(0.0016394819 6.2302341e-10 0)
(0.0016336367 6.412475e-10 0)
(0.0016276495 6.5304512e-10 0)
(0.0016215894 6.5825785e-10 0)
(0.0016155085 6.5978918e-10 0)
(0.001609422 6.6056692e-10 0)
(0.0016033284 6.6073448e-10 0)
(0.0015972404 6.6054586e-10 0)
(0.0015911518 6.5827452e-10 0)
(0.0015851071 6.6905008e-10 0)
(0.0015788214 6.6796853e-10 0)
(0.0015727977 7.4216239e-10 0)
(0.0015651471 7.5029718e-10 0)
(0.0015589774 8.2615279e-10 -9.6308774e-24)
(0.0015499087 4.9360028e-10 1.4983331e-24)
(1 2.1937025e-09 0)
(0.99998553 5.7556033e-09 0)
(0.99996476 8.0406648e-09 0)
(0.99994175 1.0300236e-08 0)
(0.99991538 1.345035e-08 0)
(0.9998849 1.7583844e-08 0)
(0.99984982 2.2933366e-08 0)
(0.99980946 2.9930219e-08 0)
(0.99976289 3.916217e-08 0)
(0.99970893 5.1409295e-08 0)
(0.99964613 6.774004e-08 0)
(0.9995726 8.9687427e-08 0)
(0.99948586 1.1941996e-07 0)
(0.99938266 1.6040453e-07 0)
(0.9992581 2.1720781e-07 0)
(0.99910618 3.0010343e-07 0)
(0.99891417 4.1632497e-07 0)
(0.9986735 6.1538358e-07 0)
(0.99833158 8.6565166e-07 0)
(0.99791598 1.5306219e-06 0)
(0.99709433 2.059347e-06 0)
(0.9963296 5.3376639e-06 0)
(0.99322158 1.4863422e-06 0)
(0.99519662 0.0014422062 0)
(0.036805376 0.0014613433 0)
(0.014647889 1.936977e-05 0)
(0.010418679 4.3928464e-06 0)
(0.0085536503 2.1010742e-06 0)
(0.0074766448 1.2843878e-06 0)
(0.0067384244 9.0202351e-07 0)
(0.0061899841 6.8176104e-07 0)
(0.0057567322 5.4146407e-07 0)
(0.0054027711 4.4282409e-07 0)
(0.0051065317 3.7050694e-07 0)
(0.0048532069 3.1595526e-07 0)
(0.0046329841 2.733952e-07 0)
(0.004439055 2.3933438e-07 0)
(0.0042664436 2.1155518e-07 0)
(0.0041114069 1.8855062e-07 0)
(0.0039710511 1.6923951e-07 0)
(0.0038431307 1.5285561e-07 0)
(0.0037258087 1.3880804e-07 8.8552144e-25)
(0.0036176619 1.2663392e-07 0)
(0.0035175006 1.1601731e-07 -9.0492539e-35)
(0.003424335 1.0669204e-07 0)
(0.0033373464 9.8446377e-08 0)
(0.00325584 9.1115688e-08 0)
(0.0031792256 8.4563979e-08 0)
(0.003106998 7.8678379e-08 0)
(0.0030387253 7.3366847e-08 0)
(0.0029740313 6.8556318e-08 0)
(0.0029125852 6.4183608e-08 0)
(0.0028540989 6.0194181e-08 0)
(0.0027983184 5.6542612e-08 0)
(0.0027450196 5.3188806e-08 0)
(0.0026940054 5.0099345e-08 0)
(0.0026450989 4.7247162e-08 0)
(0.0025981404 4.4607497e-08 0)
(0.0025529878 4.215818e-08 0)
(0.0025095132 3.9880472e-08 0)
(0.002467601 3.7757458e-08 0)
(0.0024271477 3.5773172e-08 0)
(0.0023880614 3.3914199e-08 0)
(0.0023502587 3.2170528e-08 0)
(0.0023136611 3.0532673e-08 0)
(0.0022781984 2.8990661e-08 0)
(0.0022438077 2.7535398e-08 0)
(0.0022104331 2.6159232e-08 0)
(0.0021780238 2.4855384e-08 0)
(0.0021465348 2.3616688e-08 0)
(0.002115928 2.2436559e-08 0)
(0.0020861706 2.1309314e-08 0)
(0.0020572357 2.0229536e-08 0)
(0.0020291017 1.9192309e-08 0)
(0.0020017524 1.8193394e-08 0)
(0.0019751763 1.7228934e-08 0)
(0.0019493669 1.6293594e-08 0)
(0.001924328 1.5379086e-08 0)
(0.0019000797 1.4477314e-08 0)
(0.0018766542 1.3583811e-08 0)
(0.001854091 1.26954e-08 0)
(0.0018324395 1.1808682e-08 0)
(0.0018117589 1.0920582e-08 0)
(0.0017921192 1.002346e-08 0)
(0.0017736204 9.1063136e-09 0)
(0.001756391 8.1571917e-09 0)
(0.0017406004 7.1506324e-09 0)
(0.0017265135 6.0740293e-09 0)
(0.0017143912 4.8793704e-09 0)
(0.0017047832 3.5915652e-09 0)
(0.0016978883 2.2482862e-09 0)
(0.001694165 7.9304891e-10 0)
(0.0016941752 -7.6652089e-10 0)
(0.0016984243 -2.4196419e-09 0)
(0.0017075396 -4.1529499e-09 0)
(0.0017220669 -5.8842915e-09 0)
(0.0017422741 -7.491189e-09 0)
(0.0017680417 -8.9338577e-09 0)
(0.0017993951 -1.017971e-08 0)
(0.001835937 -1.0961925e-08 0)
(0.001875722 -1.0934673e-08 0)
(0.0019154938 -1.0158052e-08 -1.0168351e-24)
(0.0019530682 -8.6661549e-09 0)
(0.0019845943 -6.9859643e-09 0)
(0.0020115813 -5.5116625e-09 0)
(0.0020331073 -4.1598025e-09 0)
(0.0020501583 -3.1036623e-09 0)
(0.0020634837 -2.2812303e-09 0)
(0.002073763 -1.6432633e-09 0)
(0.0020814869 -1.1385105e-09 0)
(0.0020869836 -7.365619e-10 0)
(0.0020905573 -4.1192282e-10 0)
(0.0020923445 -1.394503e-10 0)
(0.0020924095 9.1798843e-11 0)
(0.0020909224 2.9165258e-10 0)
(0.0020880642 4.6523949e-10 0)
(0.0020840373 6.0844048e-10 0)
(0.0020790851 7.2360736e-10 0)
(0.0020733751 8.181999e-10 0)
(0.0020670414 8.9187843e-10 0)
(0.002060257 9.4429732e-10 0)
(0.0020531604 9.8219536e-10 0)
(0.0020458253 1.0107973e-09 0)
(0.0020383138 1.0292765e-09 0)
(0.0020307123 1.0373912e-09 0)
(0.002023086 1.0397231e-09 0)
(0.0020154536 1.040879e-09 0)
(0.0020078133 1.0410781e-09 0)
(0.0020001807 1.0407145e-09 0)
(0.0019925485 1.0370768e-09 0)
(0.0019849718 1.0539903e-09 0)
(0.0019770941 1.0522504e-09 0)
(0.0019695447 1.1689969e-09 0)
(0.00195996 1.1817891e-09 0)
(0.0019522286 1.3015366e-09 0)
(0.0019408652 7.7720255e-10 -8.5514501e-25)
(1 2.6907426e-09 0)
(0.99998526 7.0622448e-09 0)
(0.9999641 9.8686864e-09 0)
(0.99994064 1.2642353e-08 0)
(0.99991375 1.6508454e-08 0)
(0.99988268 2.1580779e-08 0)
(0.99984692 2.8144316e-08 0)
(0.99980579 3.6727871e-08 0)
(0.99975833 4.8052029e-08 0)
(0.99970336 6.3072898e-08 0)
(0.99963939 8.3099827e-08 0)
(0.99956452 1.1001132e-07 0)
(0.99947622 1.4646418e-07 0)
(0.99937118 1.9670583e-07 0)
(0.99924443 2.6632922e-07 0)
(0.99908989 3.679197e-07 0)
(0.99889463 5.1032618e-07 0)
(0.99864997 7.5419902e-07 0)
(0.99830251 1.0607242e-06 0)
(0.99788036 1.8750763e-06 0)
(0.99704619 2.5225764e-06 0)
(0.99626983 6.5365815e-06 0)
(0.9931167 1.8271265e-06 0)
(0.99511221 0.0017469335 0)
(0.0446034 0.0017744739 0)
(0.017814873 2.8607693e-05 0)
(0.01267188 6.5128675e-06 0)
(0.010403666 3.1153915e-06 0)
(0.0090936136 1.904571e-06 0)
(0.0081956482 1.3375872e-06 0)
(0.0075285183 1.0109659e-06 0)
(0.0070015134 8.0291771e-07 0)
(0.0065709575 6.5664867e-07 0)
(0.0062106119 5.4941255e-07 0)
(0.0059024679 4.6851921e-07 0)
(0.0056345893 4.0540821e-07 0)
(0.0053986941 3.5490077e-07 0)
(0.0051887292 3.1370821e-07 0)
(0.0050001419 2.7959581e-07 0)
(0.004829412 2.5096019e-07 0)
(0.0046738085 2.2666537e-07 0)
(0.0045310961 2.0583493e-07 0)
(0.0043995446 1.8778246e-07 0)
(0.0042777063 1.7203964e-07 9.76146e-35)
(0.0041643774 1.582116e-07 0)
(0.004058562 1.4598449e-07 0)
(0.0039594151 1.3511413e-07 0)
(0.0038662187 1.2539888e-07 0)
(0.0037783583 1.1667136e-07 0)
(0.0036953087 1.087951e-07 0)
(0.003616612 1.0166175e-07 0)
(0.0035418661 9.5177603e-08 0)
(0.0034707204 8.926181e-08 0)
(0.0034028662 8.3847004e-08 0)
(0.0033380306 7.8873734e-08 0)
(0.003275974 7.4292446e-08 0)
(0.0032164812 7.0063001e-08 0)
(0.003159358 6.6148683e-08 0)
(0.0031044316 6.251662e-08 0)
(0.0030515463 5.9139023e-08 0)
(0.0030005616 5.5990811e-08 0)
(0.0029513515 5.3048309e-08 0)
(0.0029038044 5.0291623e-08 0)
(0.0028578187 4.7705907e-08 0)
(0.0028132991 4.5277093e-08 0)
(0.00277016 4.2990393e-08 0)
(0.0027283251 4.0832319e-08 0)
(0.0026877264 3.8791525e-08 0)
(0.002648302 3.6857958e-08 0)
(0.0026099973 3.5020989e-08 0)
(0.002572766 3.3270853e-08 0)
(0.0025365683 3.1599116e-08 0)
(0.0025013714 2.9997742e-08 0)
(0.0024671493 2.845944e-08 0)
(0.0024338822 2.6977923e-08 0)
(0.0024015562 2.5547462e-08 0)
(0.0023701636 2.4160141e-08 0)
(0.0023397091 2.2803656e-08 0)
(0.0023102174 2.1465998e-08 0)
(0.0022817278 2.0140534e-08 0)
(0.0022542887 1.8822537e-08 0)
(0.0022279606 1.7506958e-08 0)
(0.0022028156 1.6189224e-08 0)
(0.0021789395 1.4857976e-08 0)
(0.0021564544 1.3496863e-08 0)
(0.0021355175 1.2088146e-08 0)
(0.0021163357 1.059397e-08 0)
(0.0020992326 8.9960466e-09 0)
(0.0020845239 7.221487e-09 0)
(0.0020728919 5.3094122e-09 0)
(0.0020645608 3.3154943e-09 0)
(0.002060106 1.1537488e-09 0)
(0.0020602073 -1.1622755e-09 0)
(0.0020654823 -3.6172097e-09 0)
(0.0020766953 -6.1908163e-09 0)
(0.00209451 -8.7607185e-09 0)
(0.0021192485 -1.1145033e-08 0)
(0.0021507623 -1.3285015e-08 0)
(0.0021890805 -1.5131297e-08 0)
(0.0022337051 -1.6286401e-08 0)
(0.0022822464 -1.623765e-08 0)
(0.0023307253 -1.5076452e-08 0)
(0.0023764811 -1.2855642e-08 0)
(0.0024148385 -1.0357955e-08 0)
(0.0024476399 -8.1680814e-09 0)
(0.0024737841 -6.162276e-09 0)
(0.0024944799 -4.5961031e-09 0)
(0.0025106432 -3.3769832e-09 0)
(0.0025231034 -2.4315222e-09 0)
(0.0025324568 -1.6835579e-09 0)
(0.0025391031 -1.0880295e-09 0)
(0.0025434125 -6.0704564e-10 0)
(0.0025455495 -2.0326998e-10 0)
(0.002545592 1.3947629e-10 0)
(0.0025437474 4.3573003e-10 0)