# Wall shear stress
# Time          	patch           	min             	max             
2000            	bottom	(-3.22659705e-02 -1.68951954e-03 -9.97757311e-17)	(-3.99433380e-03 -5.73039872e-08 2.86066490e-17)
