# Region        : all region0
# Cells         : 13056
# Volume        : 2.33333000e+00
# Time          	max(U)
0.000120005     	(1.00027504e+00 2.25365878e-04 2.29836206e-32)
0.000264017     	(1.00049197e+00 4.59645102e-04 8.75174609e-33)
0.000436833     	(1.00065944e+00 8.24010359e-04 9.53300576e-33)
0.000644211     	(1.00079646e+00 1.30899075e-03 9.87955692e-33)
0.000893055     	(1.00091963e+00 1.77956256e-03 1.00303094e-32)
0.00119165      	(1.00103722e+00 2.18275987e-03 1.03033161e-32)
0.0015499       	(1.00114398e+00 3.24194963e-03 1.10303853e-32)
0.00197972      	(1.00124924e+00 3.58568389e-03 1.18459318e-32)
0.00249549      	(1.00136367e+00 3.84508509e-03 1.27250989e-32)
0.00311429      	(1.00152328e+00 4.28898752e-03 1.36644507e-32)
0.00385657      	(1.00207114e+00 4.80835593e-03 1.46522000e-32)
0.00474757      	(1.00259173e+00 5.42234773e-03 1.56708745e-32)
0.00581659      	(1.00306944e+00 6.08670239e-03 1.67164788e-32)
0.00709941      	(1.00352828e+00 6.79554506e-03 1.77606978e-32)
0.00863879      	(1.00392911e+00 7.55049492e-03 1.87874669e-32)
0.0104849       	(1.00438358e+00 8.35255560e-03 1.97770054e-32)
0.0126986       	(1.00480733e+00 9.19986085e-03 2.06940221e-32)
0.0153526       	(1.00530255e+00 1.00967176e-02 2.15129797e-32)
0.0185392       	(1.00580085e+00 1.10267209e-02 2.23443068e-32)
0.0223581       	(1.00626630e+00 1.19867441e-02 2.37955993e-32)
0.026948        	(1.00685374e+00 1.29782010e-02 2.51991039e-32)
0.0324454       	(1.00756370e+00 1.39824356e-02 2.66255275e-32)
0.0390274       	(1.00822750e+00 1.49929056e-02 2.79696951e-32)
0.0467152       	(1.00881273e+00 1.60056650e-02 2.95121053e-32)
0.0554609       	(1.00929786e+00 1.70237014e-02 3.10765049e-32)
0.0652999       	(1.00968537e+00 1.80341234e-02 3.24498578e-32)
0.0753504       	(1.00999123e+00 1.90235415e-02 3.48301991e-32)
0.085401        	(1.01024035e+00 1.99958123e-02 3.65672117e-32)
0.0954515       	(1.01044577e+00 2.09516211e-02 3.79638346e-32)
0.105502        	(1.01061499e+00 2.18896942e-02 3.92484762e-32)
0.115553        	(1.01075374e+00 2.28093710e-02 4.04520271e-32)
0.125603        	(1.01086485e+00 2.37104641e-02 4.15832916e-32)
0.135654        	(1.01094844e+00 2.45948809e-02 4.26478316e-32)
0.145704        	(1.01100382e+00 2.54671663e-02 4.36512652e-32)
0.155755        	(1.01103141e+00 2.63216367e-02 4.45972118e-32)
0.165805        	(1.01103349e+00 2.71586165e-02 4.54872296e-32)
0.175736        	(1.01101157e+00 2.79767248e-02 4.64112521e-32)
0.185667        	(1.01096438e+00 2.87773323e-02 4.70855347e-32)
0.195598        	(1.01089422e+00 2.95592077e-02 4.78048856e-32)
0.205408        	(1.01080293e+00 3.03213390e-02 4.85524561e-32)
0.215218        	(1.01072701e+00 3.10655929e-02 4.90728370e-32)
0.225027        	(1.01068087e+00 3.17916639e-02 4.96478148e-32)
0.234837        	(1.01060853e+00 3.24988544e-02 5.01867557e-32)
0.244523        	(1.01051920e+00 3.31881096e-02 5.07271820e-32)
0.254208        	(1.01041397e+00 3.38611387e-02 5.10649426e-32)
0.263894        	(1.01029359e+00 3.45166065e-02 5.14671049e-32)
0.273579        	(1.01016255e+00 3.51547884e-02 5.18393249e-32)
0.283265        	(1.01003033e+00 3.57759472e-02 5.21791682e-32)
0.292822        	(1.00990516e+00 3.63783453e-02 5.24931619e-32)
0.302378        	(1.00977385e+00 3.69673567e-02 5.26431373e-32)
0.311935        	(1.00963280e+00 3.75499015e-02 5.28680050e-32)
0.321491        	(1.00956811e+00 3.81166199e-02 5.30681058e-32)
0.331047        	(1.00975359e+00 3.86681650e-02 5.32404602e-32)
0.340604        	(1.00991874e+00 3.92061896e-02 5.33864889e-32)
0.35016         	(1.01017748e+00 3.97303342e-02 5.35091591e-32)
0.359717        	(1.01040382e+00 4.02397610e-02 5.36074185e-32)
0.369133        	(1.01058838e+00 4.07332400e-02 5.36307551e-32)
0.378549        	(1.01074580e+00 4.12135563e-02 5.35501059e-32)
0.387965        	(1.01089576e+00 4.16805513e-02 5.35621047e-32)
0.397381        	(1.01104209e+00 4.21356950e-02 5.35610268e-32)
0.406796        	(1.01117397e+00 4.25778668e-02 5.35441043e-32)
0.416212        	(1.01128233e+00 4.30068541e-02 5.35058113e-32)
0.425628        	(1.01138682e+00 4.34235360e-02 5.34556889e-32)
0.435044        	(1.01148930e+00 4.38278266e-02 5.33863990e-32)
0.44446         	(1.01158311e+00 4.42197931e-02 5.33009266e-32)
0.453876        	(1.01166511e+00 4.45999870e-02 5.32971571e-32)
0.463292        	(1.01173645e+00 4.49706624e-02 5.34406674e-32)
0.472708        	(1.01181233e+00 4.53307725e-02 5.35739746e-32)
0.482124        	(1.01186546e+00 4.56793574e-02 5.36988670e-32)
0.491372        	(1.01190627e+00 4.60166337e-02 5.34449132e-32)
0.500619        	(1.01193531e+00 4.63443123e-02 5.33887388e-32)
0.509867        	(1.01195380e+00 4.66620631e-02 5.34722480e-32)
0.519115        	(1.01196152e+00 4.69700866e-02 5.35543578e-32)
0.528363        	(1.01195664e+00 4.72702518e-02 5.36322989e-32)
0.537611        	(1.01193658e+00 4.75610122e-02 5.37031361e-32)
0.546858        	(1.01190419e+00 4.78424264e-02 5.38026998e-32)
0.556106        	(1.01186436e+00 4.81151498e-02 5.39141928e-32)
0.565354        	(1.01182175e+00 4.83795584e-02 5.40198540e-32)
0.574602        	(1.01177754e+00 4.86357402e-02 5.41211909e-32)
0.58385         	(1.01173067e+00 4.88839579e-02 5.42170477e-32)
0.593097        	(1.01168242e+00 4.91252793e-02 5.43059080e-32)
0.602345        	(1.01162873e+00 4.93592779e-02 5.43889055e-32)
0.611593        	(1.01156954e+00 4.95856293e-02 5.44672906e-32)
0.620841        	(1.01150773e+00 4.98048990e-02 5.45423265e-32)
0.630089        	(1.01144717e+00 5.00176113e-02 5.46137423e-32)
0.639336        	(1.01139132e+00 5.02239509e-02 5.46800541e-32)
0.648584        	(1.01133761e+00 5.04241346e-02 5.47412331e-32)
0.657832        	(1.01128824e+00 5.06178068e-02 5.47987053e-32)
0.66708         	(1.01124334e+00 5.08056372e-02 5.48526468e-32)
0.676327        	(1.01119778e+00 5.09874441e-02 5.49044105e-32)
0.685575        	(1.01114837e+00 5.11670024e-02 5.49536243e-32)
0.694823        	(1.01109571e+00 5.13417095e-02 5.49989018e-32)
0.704071        	(1.01104208e+00 5.15116040e-02 5.50405344e-32)
0.713319        	(1.01099009e+00 5.16766282e-02 5.50798858e-32)
0.722566        	(1.01094047e+00 5.18355741e-02 5.51176347e-32)
0.731814        	(1.01089228e+00 5.19892309e-02 5.51535130e-32)
0.741062        	(1.01084474e+00 5.21370227e-02 5.51869996e-32)
0.75031         	(1.01079456e+00 5.22790000e-02 5.52169923e-32)
0.759558        	(1.01074031e+00 5.24158868e-02 5.52443953e-32)
0.768805        	(1.01068155e+00 5.25483082e-02 5.52705708e-32)
0.778053        	(1.01061985e+00 5.26766688e-02 5.52959825e-32)
0.787301        	(1.01055644e+00 5.28010537e-02 5.53206566e-32)
0.796549        	(1.01049389e+00 5.29214212e-02 5.53433906e-32)
0.805796        	(1.01043276e+00 5.30377640e-02 5.53638039e-32)
0.815044        	(1.01037302e+00 5.31500882e-02 5.53822742e-32)
0.824292        	(1.01031329e+00 5.32577287e-02 5.53993544e-32)
0.83354         	(1.01025103e+00 5.33610521e-02 5.54163685e-32)
0.842788        	(1.01018588e+00 5.34606239e-02 5.54331571e-32)
0.852035        	(1.01011867e+00 5.35570038e-02 5.54486919e-32)
0.861283        	(1.01005059e+00 5.36504344e-02 5.54624905e-32)
0.870531        	(1.00998194e+00 5.37409497e-02 5.54750838e-32)
0.879779        	(1.00991346e+00 5.38286021e-02 5.54868756e-32)
0.889027        	(1.00984684e+00 5.39135530e-02 5.54989913e-32)
0.898274        	(1.00978153e+00 5.39957566e-02 5.55115227e-32)
0.907522        	(1.00971721e+00 5.40750878e-02 5.55237352e-32)
0.91677         	(1.00965295e+00 5.41511555e-02 5.55350612e-32)
0.926018        	(1.00958799e+00 5.42241086e-02 5.55455283e-32)
0.935265        	(1.00952238e+00 5.42943211e-02 5.55555503e-32)
0.944513        	(1.00945663e+00 5.43621363e-02 5.55653220e-32)
0.953761        	(1.00939100e+00 5.44277328e-02 5.55744817e-32)
0.963009        	(1.00932561e+00 5.44912486e-02 5.55826941e-32)
0.972257        	(1.00926107e+00 5.45527751e-02 5.55902847e-32)
0.981504        	(1.00919768e+00 5.46123802e-02 5.55986538e-32)
0.990752        	(1.00913545e+00 5.46701166e-02 5.56084051e-32)
1               	(1.00907441e+00 5.47259519e-02 5.56187765e-32)
1.00917         	(1.00901522e+00 5.47797462e-02 5.53833856e-32)
1.01835         	(1.00895722e+00 5.48316567e-02 5.53315390e-32)
1.02752         	(1.00890020e+00 5.48817483e-02 5.53369341e-32)
1.0367          	(1.00884362e+00 5.49298357e-02 5.53450359e-32)
1.04587         	(1.00878664e+00 5.49756535e-02 5.53556462e-32)
1.05505         	(1.00872909e+00 5.50195771e-02 5.53652607e-32)
1.06422         	(1.00867334e+00 5.50619371e-02 5.53686613e-32)
1.07339         	(1.00861747e+00 5.51029174e-02 5.53688235e-32)
1.08257         	(1.00856134e+00 5.51427051e-02 5.53723020e-32)
1.09174         	(1.00850573e+00 5.51814000e-02 5.53828420e-32)
1.10092         	(1.00845130e+00 5.52190068e-02 5.54007255e-32)
1.11009         	(1.00839836e+00 5.52554856e-02 5.54087577e-32)
1.11927         	(1.00834704e+00 5.52908009e-02 5.54154746e-32)
1.12844         	(1.00829709e+00 5.53249311e-02 5.54158823e-32)
1.13761         	(1.00824818e+00 5.53578825e-02 5.54158045e-32)
1.14679         	(1.00820010e+00 5.53896834e-02 5.54245767e-32)
1.15596         	(1.00815268e+00 5.54203387e-02 5.54336859e-32)
1.16514         	(1.00813046e+00 5.54498863e-02 5.54460876e-32)
1.17431         	(1.00813811e+00 5.54784033e-02 5.54543528e-32)
1.18349         	(1.00814550e+00 5.55059157e-02 5.54590202e-32)
1.19266         	(1.00815253e+00 5.55324777e-02 5.54507968e-32)
1.20183         	(1.00815976e+00 5.55581656e-02 5.54602729e-32)
1.21101         	(1.00816705e+00 5.55828973e-02 5.54583021e-32)
1.22018         	(1.00817406e+00 5.56066978e-02 5.54758470e-32)
1.22936         	(1.00818074e+00 5.56295974e-02 5.54887938e-32)
1.23853         	(1.00818754e+00 5.56514796e-02 5.55009470e-32)
1.24771         	(1.00819433e+00 5.56724222e-02 5.54896073e-32)
1.25688         	(1.00820096e+00 5.56925195e-02 5.54991131e-32)
1.26606         	(1.00820739e+00 5.57118623e-02 5.55005935e-32)
1.27523         	(1.00821358e+00 5.57305225e-02 5.55141392e-32)
1.2844          	(1.00822014e+00 5.57485750e-02 5.55297582e-32)
1.29358         	(1.00822646e+00 5.57660734e-02 5.55492775e-32)
1.30275         	(1.00823240e+00 5.57830513e-02 5.55396454e-32)
1.31193         	(1.00823796e+00 5.57995241e-02 5.55533632e-32)
1.3211          	(1.00824362e+00 5.58154921e-02 5.55506995e-32)
1.33028         	(1.00824902e+00 5.58309519e-02 5.55602152e-32)
1.33945         	(1.00825417e+00 5.58459022e-02 5.55774685e-32)
1.34862         	(1.00825919e+00 5.58603438e-02 5.56004754e-32)
1.3578          	(1.00826441e+00 5.58742816e-02 5.55953290e-32)
1.36697         	(1.00826940e+00 5.58877263e-02 5.56128633e-32)
1.37615         	(1.00827399e+00 5.59006919e-02 5.56052423e-32)
1.38532         	(1.00827826e+00 5.59131967e-02 5.56135183e-32)
1.3945          	(1.00828503e+00 5.59252619e-02 5.56361562e-32)
1.40367         	(1.00829155e+00 5.59369300e-02 5.56480272e-32)
1.41284         	(1.00829842e+00 5.59482149e-02 5.56616535e-32)
1.42202         	(1.00830518e+00 5.59591197e-02 5.56653044e-32)
1.43119         	(1.00831175e+00 5.59696386e-02 5.56664584e-32)
1.44037         	(1.00831812e+00 5.59797834e-02 5.56768281e-32)
1.44954         	(1.00832481e+00 5.59895644e-02 5.57038439e-32)
1.45872         	(1.00833139e+00 5.59989957e-02 5.57036537e-32)
1.46789         	(1.00833782e+00 5.60080879e-02 5.57267595e-32)
1.47706         	(1.00834410e+00 5.60168585e-02 5.57254073e-32)
1.48624         	(1.00835025e+00 5.60253166e-02 5.57300246e-32)
1.49541         	(1.00835644e+00 5.60334751e-02 5.57505887e-32)
1.50459         	(1.00836238e+00 5.60413446e-02 5.57652803e-32)
1.51376         	(1.00836810e+00 5.60489360e-02 5.57804959e-32)
1.52294         	(1.00837344e+00 5.60562631e-02 5.57910813e-32)
1.53211         	(1.00837894e+00 5.60633282e-02 5.57949917e-32)
1.54128         	(1.00838412e+00 5.60701439e-02 5.58068943e-32)
1.55046         	(1.00838906e+00 5.60767176e-02 5.58334728e-32)
1.55963         	(1.00839378e+00 5.60830562e-02 5.58381248e-32)
1.56881         	(1.00839887e+00 5.60891668e-02 5.58616634e-32)
1.57798         	(1.00840376e+00 5.60950583e-02 5.58640024e-32)
1.58716         	(1.00841029e+00 5.61007363e-02 5.58705808e-32)
1.59633         	(1.00841704e+00 5.61062110e-02 5.58922564e-32)
1.6055          	(1.00842388e+00 5.61114898e-02 5.59086878e-32)
1.61468         	(1.00843063e+00 5.61165965e-02 5.59318719e-32)
1.62385         	(1.00843725e+00 5.61215432e-02 5.59374670e-32)
1.63303         	(1.00844369e+00 5.61263182e-02 5.59442838e-32)
1.6422          	(1.00845025e+00 5.61309174e-02 5.59620319e-32)
1.65138         	(1.00845690e+00 5.61353415e-02 5.59881714e-32)
1.66055         	(1.00846348e+00 5.61395933e-02 5.59965192e-32)
1.66972         	(1.00846983e+00 5.61436806e-02 5.60175733e-32)
1.6789          	(1.00847575e+00 5.61476089e-02 5.60235147e-32)
1.68807         	(1.00848188e+00 5.61513859e-02 5.60349518e-32)
1.69725         	(1.00848771e+00 5.61550179e-02 5.60610797e-32)
1.70642         	(1.00849330e+00 5.61585102e-02 5.60747349e-32)
1.7156          	(1.00849875e+00 5.61618683e-02 5.61029162e-32)
1.72477         	(1.00850448e+00 5.61651018e-02 5.61061524e-32)
1.73394         	(1.00851001e+00 5.61682097e-02 5.61158872e-32)
1.74312         	(1.00851532e+00 5.61711999e-02 5.61396685e-32)
1.75229         	(1.00852037e+00 5.61740746e-02 5.61608260e-32)
1.76147         	(1.00852533e+00 5.61768373e-02 5.61836870e-32)
1.77064         	(1.00853142e+00 5.61794952e-02 5.61977118e-32)
1.77982         	(1.00853836e+00 5.61820469e-02 5.62068413e-32)
1.78899         	(1.00854512e+00 5.61844986e-02 5.62259625e-32)
1.79817         	(1.00855205e+00 5.61868535e-02 5.62543367e-32)
1.80734         	(1.00855890e+00 5.61891139e-02 5.62671884e-32)
1.81651         	(1.00856565e+00 5.61912829e-02 5.62941143e-32)
1.82569         	(1.00857228e+00 5.61933645e-02 5.63010163e-32)
1.83486         	(1.00857884e+00 5.61953629e-02 5.63147032e-32)
1.84404         	(1.00858563e+00 5.61972806e-02 5.63444941e-32)
1.85321         	(1.00859229e+00 5.61991181e-02 5.63596166e-32)
1.86239         	(1.00859880e+00 5.62008783e-02 5.63928400e-32)
1.87156         	(1.00860503e+00 5.62025676e-02 5.64005592e-32)
1.88073         	(1.00861125e+00 5.62041821e-02 5.64162617e-32)
1.88991         	(1.00861740e+00 5.62057268e-02 5.64373386e-32)
1.89908         	(1.00862331e+00 5.62072043e-02 5.64673372e-32)
1.90826         	(1.00862902e+00 5.62086158e-02 5.64904336e-32)
1.91743         	(1.00863483e+00 5.62099653e-02 5.65095008e-32)
1.92661         	(1.00864070e+00 5.62112515e-02 5.65223491e-32)
1.93578         	(1.00864641e+00 5.62124796e-02 5.65438205e-32)
1.94495         	(1.00865196e+00 5.62136509e-02 5.65762663e-32)
1.95413         	(1.00865734e+00 5.62147659e-02 5.65948091e-32)
1.9633          	(1.00866271e+00 5.62158261e-02 5.66222445e-32)
1.97248         	(1.00866835e+00 5.62168354e-02 5.66358414e-32)
1.98165         	(1.00867538e+00 5.62177956e-02 5.66540845e-32)
1.99083         	(1.00868231e+00 5.62187076e-02 5.66846765e-32)
2               	(1.00868911e+00 5.62195727e-02 5.67039015e-32)
2.00917         	(1.00869596e+00 5.62203920e-02 5.67410494e-32)
2.01835         	(1.00870285e+00 5.62211709e-02 5.67535573e-32)
2.02752         	(1.00870968e+00 5.62219050e-02 5.67740374e-32)
2.0367          	(1.00871644e+00 5.62226004e-02 5.67977996e-32)
2.04587         	(1.00872314e+00 5.62232556e-02 5.68320594e-32)
2.05505         	(1.00872977e+00 5.62238711e-02 5.68596289e-32)
2.06422         	(1.00873654e+00 5.62244517e-02 5.68834114e-32)
2.07339         	(1.00874320e+00 5.62249942e-02 5.69013986e-32)
2.08257         	(1.00874975e+00 5.62255023e-02 5.69271093e-32)
2.09174         	(1.00875615e+00 5.62259766e-02 5.69644994e-32)
2.10092         	(1.00876226e+00 5.62264170e-02 5.69871535e-32)
2.11009         	(1.00876859e+00 5.62268263e-02 5.70204675e-32)
2.11927         	(1.00877473e+00 5.62272040e-02 5.70403254e-32)
2.12844         	(1.00878071e+00 5.62275528e-02 5.70628402e-32)
2.13761         	(1.00878655e+00 5.62278741e-02 5.71005737e-32)
2.14679         	(1.00879235e+00 5.62281678e-02 5.71238551e-32)
2.15596         	(1.00879839e+00 5.62284349e-02 5.71672857e-32)
2.16514         	(1.00880433e+00 5.62286794e-02 5.71861106e-32)
2.17431         	(1.00881015e+00 5.62288972e-02 5.72121655e-32)
2.18349         	(1.00881586e+00 5.62290914e-02 5.72464550e-32)
2.19266         	(1.00882143e+00 5.62292620e-02 5.72826583e-32)
2.20183         	(1.00882683e+00 5.62294092e-02 5.73189187e-32)
2.21101         	(1.00883252e+00 5.62295357e-02 5.73511120e-32)
2.22018         	(1.00883809e+00 5.62296387e-02 5.73737757e-32)
2.22936         	(1.00884352e+00 5.62297219e-02 5.74073814e-32)
2.23853         	(1.00884884e+00 5.62297844e-02 5.74569897e-32)
2.24771         	(1.00885518e+00 5.62298269e-02 5.74800967e-32)
2.25688         	(1.00886171e+00 5.62298503e-02 5.75281634e-32)
2.26606         	(1.00886818e+00 5.62298550e-02 5.75520786e-32)
2.27523         	(1.00887457e+00 5.62298427e-02 5.75836979e-32)
2.2844          	(1.00888090e+00 5.62298131e-02 5.76335096e-32)
2.29358         	(1.00888713e+00 5.62297659e-02 5.76639599e-32)
2.30275         	(1.00889329e+00 5.62297020e-02 5.77170668e-32)
2.31193         	(1.00889943e+00 5.62296248e-02 5.77473864e-32)
2.3211          	(1.00890566e+00 5.62295300e-02 5.77794142e-32)
2.33028         	(1.00891187e+00 5.62294214e-02 5.78274885e-32)
2.33945         	(1.00891808e+00 5.62292986e-02 5.78723398e-32)
2.34862         	(1.00892423e+00 5.62291616e-02 5.79184412e-32)
2.3578          	(1.00893032e+00 5.62290124e-02 5.79611923e-32)
2.36697         	(1.00893631e+00 5.62288488e-02 5.79994931e-32)
2.37615         	(1.00894197e+00 5.62286747e-02 5.80417374e-32)
2.38532         	(1.00894738e+00 5.62284898e-02 5.81003800e-32)
2.3945          	(1.00895301e+00 5.62282934e-02 5.81349349e-32)
2.40367         	(1.00895866e+00 5.62280858e-02 5.81983438e-32)
2.41284         	(1.00896431e+00 5.62278682e-02 5.82342812e-32)
2.42202         	(1.00896995e+00 5.62276399e-02 5.82760852e-32)
2.43119         	(1.00897557e+00 5.62274019e-02 5.83361765e-32)
2.44037         	(1.00898098e+00 5.62271531e-02 5.83815857e-32)
2.44954         	(1.00898622e+00 5.62268938e-02 5.84459644e-32)
2.45872         	(1.00899136e+00 5.62266279e-02 5.84887581e-32)
2.46789         	(1.00899644e+00 5.62263506e-02 5.85357350e-32)
2.47706         	(1.00900147e+00 5.62260649e-02 5.85952853e-32)
2.48624         	(1.00900647e+00 5.62257700e-02 5.86542318e-32)
2.49541         	(1.00901163e+00 5.62254666e-02 5.87093893e-32)
2.50459         	(1.00901681e+00 5.62251569e-02 5.87688085e-32)
2.51376         	(1.00902196e+00 5.62248374e-02 5.88171032e-32)
2.52294         	(1.00902707e+00 5.62245111e-02 5.88721204e-32)
2.53211         	(1.00903214e+00 5.62241772e-02 5.89416161e-32)
2.54128         	(1.00903715e+00 5.62238374e-02 5.89891073e-32)
2.55046         	(1.00904212e+00 5.62234903e-02 5.90640555e-32)
2.55963         	(1.00904703e+00 5.62231381e-02 5.91106085e-32)
2.56881         	(1.00905190e+00 5.62227795e-02 5.91662697e-32)
2.57798         	(1.00905673e+00 5.62224156e-02 5.92325913e-32)
2.58716         	(1.00906152e+00 5.62220452e-02 5.92947995e-32)
2.59633         	(1.00906627e+00 5.62216685e-02 5.93600027e-32)
2.6055          	(1.00907090e+00 5.62212890e-02 5.94176782e-32)
2.61468         	(1.00907536e+00 5.62209013e-02 5.94753542e-32)
2.62385         	(1.00907972e+00 5.62205092e-02 5.95394618e-32)
2.63303         	(1.00908403e+00 5.62201121e-02 5.96097370e-32)
2.6422          	(1.00908831e+00 5.62197095e-02 5.96635032e-32)
2.65138         	(1.00909263e+00 5.62193030e-02 5.97360069e-32)
2.66055         	(1.00909709e+00 5.62188919e-02 5.97872417e-32)
2.66972         	(1.00910152e+00 5.62184765e-02 5.98478152e-32)
2.6789          	(1.00910593e+00 5.62180576e-02 5.99187338e-32)
2.68807         	(1.00911030e+00 5.62176343e-02 5.99743831e-32)
2.69725         	(1.00911463e+00 5.62172064e-02 6.00505018e-32)
2.70642         	(1.00911890e+00 5.62167777e-02 6.01008085e-32)
2.7156          	(1.00912313e+00 5.62163426e-02 6.01600733e-32)
2.72477         	(1.00912730e+00 5.62159047e-02 6.02246009e-32)
2.73394         	(1.00913141e+00 5.62154644e-02 6.02896532e-32)
2.74312         	(1.00913548e+00 5.62150202e-02 6.03520026e-32)
2.75229         	(1.00913950e+00 5.62145750e-02 6.04159749e-32)
2.76147         	(1.00914348e+00 5.62141259e-02 6.04673115e-32)
2.77064         	(1.00914741e+00 5.62136746e-02 6.05258656e-32)
2.77982         	(1.00915131e+00 5.62132211e-02 6.05951335e-32)
2.78899         	(1.00915517e+00 5.62127647e-02 6.06443829e-32)
2.79817         	(1.00915900e+00 5.62123055e-02 6.07157903e-32)
2.80734         	(1.00916279e+00 5.62118456e-02 6.07612314e-32)
2.81651         	(1.00916656e+00 5.62113813e-02 6.08133536e-32)
2.82569         	(1.00918096e+00 5.62109144e-02 6.08739081e-32)
2.83486         	(1.00919896e+00 5.62104453e-02 6.09318939e-32)
2.84404         	(1.00921695e+00 5.62099732e-02 6.09878210e-32)
2.85321         	(1.00923491e+00 5.62095001e-02 6.10415732e-32)
2.86239         	(1.00925281e+00 5.62090228e-02 6.10906997e-32)
2.87156         	(1.00927065e+00 5.62085434e-02 6.11405992e-32)
2.88073         	(1.00928807e+00 5.62080618e-02 6.12028037e-32)
2.88991         	(1.00930560e+00 5.62075778e-02 6.12409599e-32)
2.89908         	(1.00932379e+00 5.62070915e-02 6.13063725e-32)
2.90826         	(1.00934192e+00 5.62066038e-02 6.13428506e-32)
2.91743         	(1.00936000e+00 5.62061127e-02 6.13841828e-32)
2.92661         	(1.00937803e+00 5.62056203e-02 6.14379318e-32)
2.93578         	(1.00939600e+00 5.62051252e-02 6.14864569e-32)
2.94495         	(1.00941389e+00 5.62046276e-02 6.15319696e-32)
2.95413         	(1.00943136e+00 5.62041306e-02 6.15774326e-32)
2.9633          	(1.00944880e+00 5.62036294e-02 6.16147543e-32)
2.97248         	(1.00946711e+00 5.62031272e-02 6.16552484e-32)
2.98165         	(1.00948532e+00 5.62026236e-02 6.17084926e-32)
2.99083         	(1.00950350e+00 5.62021179e-02 6.17366599e-32)
3               	(1.00952166e+00 5.62016105e-02 6.17926251e-32)
3.00917         	(1.00953975e+00 5.62011023e-02 6.18200331e-32)
3.01835         	(1.00955774e+00 5.62005919e-02 6.18489493e-32)
3.02752         	(1.00957524e+00 5.62000805e-02 6.18954887e-32)
3.0367          	(1.00959204e+00 5.61995668e-02 6.19291783e-32)
3.04587         	(1.00960870e+00 5.61990516e-02 6.19731910e-32)
3.05505         	(1.00962675e+00 5.61985379e-02 6.20027798e-32)
3.06422         	(1.00964454e+00 5.61980201e-02 6.20324699e-32)
3.07339         	(1.00966211e+00 5.61975017e-02 6.20613723e-32)
3.08257         	(1.00968024e+00 5.61969827e-02 6.21084877e-32)
3.09174         	(1.00969861e+00 5.61964621e-02 6.21277338e-32)
3.10092         	(1.00971700e+00 5.61959402e-02 6.21747579e-32)
3.11009         	(1.00973542e+00 5.61954180e-02 6.21927061e-32)
3.11927         	(1.00975384e+00 5.61948941e-02 6.22187027e-32)
3.12844         	(1.00977226e+00 5.61943696e-02 6.22543580e-32)
3.13761         	(1.00979067e+00 5.61938434e-02 6.22810748e-32)
3.14679         	(1.00980886e+00 5.61933159e-02 6.23189977e-32)
3.15596         	(1.00982658e+00 5.61927902e-02 6.23404374e-32)
3.16514         	(1.00984378e+00 5.61922613e-02 6.23609781e-32)
3.17431         	(1.00986047e+00 5.61917320e-02 6.23872661e-32)
3.18349         	(1.00987725e+00 5.61912020e-02 6.24259618e-32)
3.19266         	(1.00989477e+00 5.61906714e-02 6.24406397e-32)
3.20183         	(1.00991224e+00 5.61901401e-02 6.24806510e-32)
3.21101         	(1.00992970e+00 5.61896083e-02 6.24937578e-32)
3.22018         	(1.00994714e+00 5.61890754e-02 6.25154929e-32)
3.22936         	(1.00996458e+00 5.61885419e-02 6.25445280e-32)
3.23853         	(1.00998199e+00 5.61880073e-02 6.25684092e-32)
3.24771         	(1.00999937e+00 5.61874719e-02 6.26019530e-32)
3.25688         	(1.01001654e+00 5.61869382e-02 6.26191811e-32)
3.26606         	(1.01003315e+00 5.61864015e-02 6.26351758e-32)
3.27523         	(1.01004915e+00 5.61858653e-02 6.26585237e-32)
3.2844          	(1.01006456e+00 5.61853283e-02 6.26913611e-32)
3.29358         	(1.01007943e+00 5.61847909e-02 6.27048059e-32)
3.30275         	(1.01009474e+00 5.61842531e-02 6.27415106e-32)
3.31193         	(1.01011085e+00 5.61837151e-02 6.27522967e-32)
3.3211          	(1.01012691e+00 5.61831765e-02 6.27712817e-32)
3.33028         	(1.01014294e+00 5.61826371e-02 6.27968767e-32)
3.33945         	(1.01015895e+00 5.61820969e-02 6.28196813e-32)
3.34862         	(1.01017494e+00 5.61815561e-02 6.28510713e-32)
3.3578          	(1.01019090e+00 5.61810176e-02 6.28667357e-32)
3.36697         	(1.01020680e+00 5.61804760e-02 6.28813595e-32)
3.37615         	(1.01022235e+00 5.61799349e-02 6.29030321e-32)
3.38532         	(1.01023728e+00 5.61793936e-02 6.29345836e-32)
3.3945          	(1.01025157e+00 5.61788521e-02 6.29474640e-32)
3.40367         	(1.01026527e+00 5.61783102e-02 6.29831051e-32)
3.41284         	(1.01027842e+00 5.61777683e-02 6.29933269e-32)
3.42202         	(1.01029139e+00 5.61772258e-02 6.30109211e-32)
3.43119         	(1.01030603e+00 5.61766831e-02 6.30340999e-32)
3.44037         	(1.01032058e+00 5.61761397e-02 6.30598900e-32)
3.44954         	(1.01033510e+00 5.61755961e-02 6.30888503e-32)
3.45872         	(1.01034957e+00 5.61750543e-02 6.31048992e-32)
3.46789         	(1.01036400e+00 5.61745101e-02 6.31187903e-32)
3.47706         	(1.01037838e+00 5.61739662e-02 6.31399461e-32)
3.48624         	(1.01039270e+00 5.61734223e-02 6.31709336e-32)
3.49541         	(1.01040667e+00 5.61728785e-02 6.31840153e-32)
3.50459         	(1.01042001e+00 5.61723341e-02 6.32199146e-32)
3.51376         	(1.01043266e+00 5.61717900e-02 6.32300083e-32)
3.52294         	(1.01044469e+00 5.61712455e-02 6.32468283e-32)
3.53211         	(1.01045615e+00 5.61707011e-02 6.32729740e-32)
3.54128         	(1.01046712e+00 5.61701561e-02 6.32950534e-32)
3.55046         	(1.01047924e+00 5.61696104e-02 6.33257816e-32)
3.55963         	(1.01049194e+00 5.61690673e-02 6.33423283e-32)
3.56881         	(1.01050440e+00 5.61685220e-02 6.33564126e-32)
3.57798         	(1.01051662e+00 5.61679767e-02 6.33771152e-32)
3.58716         	(1.01052861e+00 5.61674316e-02 6.34098615e-32)
3.59633         	(1.01054038e+00 5.61668867e-02 6.34227241e-32)
3.6055          	(1.01055193e+00 5.61663417e-02 6.34599185e-32)
3.61468         	(1.01056326e+00 5.61657967e-02 6.34706578e-32)
3.62385         	(1.01057435e+00 5.61652512e-02 6.34881695e-32)
3.63303         	(1.01058577e+00 5.61647061e-02 6.35145259e-32)
3.6422          	(1.01059848e+00 5.61641606e-02 6.35378987e-32)
3.65138         	(1.01061096e+00 5.61636151e-02 6.35690787e-32)
3.66055         	(1.01062320e+00 5.61630713e-02 6.35869420e-32)
3.66972         	(1.01063519e+00 5.61625256e-02 6.36015104e-32)
3.6789          	(1.01064692e+00 5.61619799e-02 6.36224729e-32)
3.68807         	(1.01065840e+00 5.61614344e-02 6.36554120e-32)
3.69725         	(1.01066964e+00 5.61608902e-02 6.36693375e-32)
3.70642         	(1.01068077e+00 5.61603451e-02 6.37070367e-32)
3.7156          	(1.01069258e+00 5.61598001e-02 6.37183738e-32)
3.72477         	(1.01070436e+00 5.61592550e-02 6.37362403e-32)
3.73394         	(1.01071616e+00 5.61587098e-02 6.37618412e-32)
3.74312         	(1.01072798e+00 5.61581649e-02 6.37863428e-32)
3.75229         	(1.01073982e+00 5.61576195e-02 6.38168188e-32)
3.76147         	(1.01075167e+00 5.61570762e-02 6.38353902e-32)
3.77064         	(1.01076350e+00 5.61565310e-02 6.38492555e-32)
3.77982         	(1.01077532e+00 5.61559859e-02 6.38699408e-32)
3.78899         	(1.01078709e+00 5.61554413e-02 6.39016201e-32)
3.79817         	(1.01079847e+00 5.61548978e-02 6.39161171e-32)
3.80734         	(1.01080937e+00 5.61543532e-02 6.39526479e-32)
3.81651         	(1.01081980e+00 5.61538093e-02 6.39640811e-32)
3.82569         	(1.01082981e+00 5.61532650e-02 6.39810297e-32)
3.83486         	(1.01083944e+00 5.61527207e-02 6.40052203e-32)
3.84404         	(1.01084989e+00 5.61521769e-02 6.40310144e-32)
3.85321         	(1.01086065e+00 5.61516328e-02 6.40600574e-32)
3.86239         	(1.01087138e+00 5.61510905e-02 6.40797068e-32)
3.87156         	(1.01088210e+00 5.61505460e-02 6.40931697e-32)
3.88073         	(1.01089282e+00 5.61500025e-02 6.41135878e-32)
3.88991         	(1.01090353e+00 5.61494595e-02 6.41452293e-32)
3.89908         	(1.01091422e+00 5.61489167e-02 6.41606417e-32)
3.90826         	(1.01092490e+00 5.61483737e-02 6.41959056e-32)
3.91743         	(1.01093523e+00 5.61478312e-02 6.42084063e-32)
3.92661         	(1.01094508e+00 5.61472879e-02 6.42246911e-32)
3.93578         	(1.01095446e+00 5.61467454e-02 6.42465179e-32)
3.94495         	(1.01096341e+00 5.61462032e-02 6.42765209e-32)
3.95413         	(1.01097198e+00 5.61456606e-02 6.43026935e-32)
3.9633          	(1.01098077e+00 5.61451197e-02 6.43255957e-32)
3.97248         	(1.01099056e+00 5.61445770e-02 6.43350278e-32)
3.98165         	(1.01100026e+00 5.61440350e-02 6.43571754e-32)
3.99083         	(1.01100993e+00 5.61434936e-02 6.43888702e-32)
4               	(1.01101960e+00 5.61429526e-02 6.44048922e-32)
4.00926         	(1.01102937e+00 5.61424237e-02 6.48342759e-32)
4.01852         	(1.01103914e+00 5.61418845e-02 6.49242303e-32)
4.02778         	(1.01104890e+00 5.61413274e-02 6.49387411e-32)
4.03704         	(1.01105838e+00 5.61407645e-02 6.49600022e-32)
4.0463          	(1.01106740e+00 5.61402056e-02 6.49906450e-32)
4.05556         	(1.01107595e+00 5.61396542e-02 6.50172528e-32)
4.06481         	(1.01108407e+00 5.61391115e-02 6.50392109e-32)
4.07407         	(1.01109181e+00 5.61385724e-02 6.50500903e-32)
4.08333         	(1.01109922e+00 5.61380378e-02 6.50722273e-32)
4.09259         	(1.01110720e+00 5.61375054e-02 6.51041738e-32)
4.10185         	(1.01111589e+00 5.61369740e-02 6.51205837e-32)
4.11111         	(1.01112440e+00 5.61364422e-02 6.51548157e-32)
4.12037         	(1.01113276e+00 5.61359107e-02 6.51670600e-32)
4.12963         	(1.01114095e+00 5.61353778e-02 6.51837898e-32)
4.13889         	(1.01114900e+00 5.61348447e-02 6.52053286e-32)