/*--------------------------------*- C++ -*----------------------------------*\
| =========                 |                                                 |
| \\      /  F ield         | OpenFOAM: The Open Source CFD Toolbox           |
|  \\    /   O peration     | Version:  2206                                  |
|   \\  /    A nd           | Website:  www.openfoam.com                      |
|    \\/     M anipulation  |                                                 |
\*---------------------------------------------------------------------------*/
FoamFile
{
    version     2.0;
    format      ascii;
    arch        "LSB;label=32;scalar=64";
    class       volScalarField;
    location    "900";
    object      p;
}
// * * * * * * * * * * * * * * * * * * * * * * * * * * * * * * * * * * * * * //

dimensions      [0 2 -2 0 0 0 0];

internalField   nonuniform List<scalar> 
3000
(
0.307111928773
0.307255992644
0.307540336311
0.307928284498
0.308395075301
0.3089210546
0.309490151146
0.310089063203
0.310706733959
0.31133397235
0.311963163045
0.312588036003
0.313203477536
0.313805371362
0.314390462164
0.314956236735
0.315500819426
0.316022879788
0.316521550995
0.316996356155
0.31744713416
0.317873964955
0.318277162774
0.31865744319
0.319015955558
0.319353378624
0.319669692226
0.319969703436
0.320261701545
0.320504010731
0.280209345565
0.280126042337
0.279957789859
0.27972570957
0.279442393021
0.279118156419
0.278761647282
0.278380339817
0.277980813491
0.277568902964
0.277149782783
0.276728017888
0.276307597692
0.275891964124
0.275484039305
0.275086255554
0.274700588651
0.274328594603
0.273971450299
0.273629994551
0.27330474851
0.272995891897
0.27270330298
0.272427017563
0.272168281886
0.271930696298
0.27172173345
0.271555530052
0.271449149499
0.271402417983
0.257730258619
0.257697751402
0.257632516256
0.257546577211
0.257447068616
0.257340007752
0.257230028106
0.257120636609
0.257014375101
0.256912977118
0.256817521173
0.256728571129
0.25664630012
0.256570596741
0.256501153489
0.256437538429
0.256379251577
0.256325767517
0.256276565952
0.256231153579
0.256189079258
0.256149941564
0.256113426624
0.256079489885
0.256048679284
0.256022240743
0.256001659719
0.25598755006
0.255978260537
0.255971619408
0.251474617083
0.251482031317
0.251496218152
0.251515705212
0.251537747666
0.251560709291
0.251583182674
0.251604112975
0.251622740224
0.251638560661
0.251651290165
0.251660826544
0.251667213023
0.251670604084
0.251671234524
0.251669392325
0.251665395789
0.251659574646
0.251652253682
0.251643739356
0.251634317242
0.251624274515
0.251613962844
0.251603904425
0.251594870152
0.251587731285
0.25158291992
0.251579815134
0.251577146042
0.251574834846
0.247152251411
0.24714498926
0.247129740773
0.247109254202
0.247084263879
0.247056079104
0.247025610748
0.246993688119
0.246961024064
0.246928225875
0.246895801155
0.24686416253
0.246833633955
0.246804458473
0.246776807075
0.246750788234
0.246726457713
0.246703827944
0.246682875471
0.246663547728
0.246645781216
0.246629551729
0.246614960752
0.246602310332
0.246592049117
0.246584486398
0.246579422649
0.246576114117
0.246573729461
0.246572011915
0.240224632988
0.24021924629
0.240207435298
0.240192020751
0.240173901375
0.240154371182
0.240134173399
0.240113928923
0.240094077361
0.240074923571
0.240056666654
0.240039424494
0.240023254636
0.240008171087
0.239994157538
0.239981177482
0.239969181767
0.239958114024
0.239947914393
0.239938524273
0.239929900427
0.239922047251
0.23991505997
0.23990913564
0.239904477232
0.239901101707
0.239898749886
0.239897011341
0.23989552928
0.239894329325
0.233574424596
0.233573793162
0.233571588744
0.233569019017
0.233565759233
0.233562135726
0.233558146245
0.233553887323
0.233549418636
0.233544795759
0.233540068546
0.233535281789
0.233530475854
0.233525686845
0.233520946688
0.233516283157
0.233511719856
0.233507276298
0.233502969173
0.233498817649
0.233494855947
0.233491151648
0.233487818805
0.233484996795
0.233482767639
0.233481074841
0.233479747761
0.233478583823
0.233477435478
0.23347644451
0.228035478669
0.228034435742
0.228031668224
0.228028323518
0.228024111907
0.228019418954
0.228014289821
0.228008876895
0.228003275265
0.227997572718
0.22799184234
0.22798614449
0.227980528315
0.227975033014
0.227969689127
0.227964519748
0.227959541509
0.227954765681
0.227950201266
0.227945863615
0.227941789601
0.227938053218
0.22793476617
0.227932037774
0.22792989957
0.227928270674
0.227926999418
0.227925918568
0.227924902325
0.227924052494
0.222931021427
0.222929556382
0.222925985901
0.222921532133
0.22291606236
0.222910066739
0.222903653243
0.222897025599
0.222890303473
0.22288359143
0.222876968369
0.222870494262
0.222864213738
0.222858158991
0.222852352254
0.222846807778
0.222841533378
0.222836532201
0.222831807172
0.222827371377
0.222823263668
0.222819561061
0.222816369117
0.222813771308
0.222811766347
0.222810258314
0.222809101356
0.222808146151
0.222807278357
0.222806567023
0.217970562182
0.217969459624
0.217966610072
0.217963090688
0.217958729532
0.217953955179
0.217948823275
0.21794350601
0.217938092806
0.217932669725
0.217927300925
0.217922036608
0.217916915035
0.217911964631
0.217907205783
0.217902652283
0.217898312592
0.217894191902
0.217890297338
0.217886648114
0.217883288124
0.217880292033
0.217877747197
0.217875704687
0.217874138024
0.2178729514
0.21787202323
0.217871239287
0.217870514347
0.217869914361
0.213214408285
0.213213581102
0.21321132119
0.213208582487
0.213205153589
0.213201407497
0.213197360036
0.213193158315
0.21318886672
0.213184555564
0.21318027551
0.213176067303
0.213171962285
0.213167984087
0.213164149992
0.213160472016
0.213156958086
0.213153614537
0.21315045184
0.213147493763
0.213144786337
0.213142397743
0.21314039495
0.213138802164
0.213137578429
0.213136636041
0.213135878556
0.213135220298
0.213134598404
0.213134078229
0.208688935939
0.208688208362
0.208686187854
0.208683759598
0.208680709466
0.208677386825
0.208673794051
0.208670069868
0.208666267117
0.208662449783
0.208658661745
0.208654938925
0.208651308668
0.208647791534
0.208644402486
0.208641151883
0.208638046804
0.208635094085
0.208632306438
0.208629710661
0.20862735375
0.208625297696
0.208623593276
0.2086222465
0.208621209206
0.208620401824
0.208619744474
0.208619167652
0.208618620146
0.208618161631
0.204353672628
0.20435301653
0.204351165115
0.204348949412
0.204346159215
0.20434312593
0.204339843746
0.204336445502
0.204332976059
0.20432949563
0.20432604355
0.204322652792
0.204319348163
0.204316148313
0.204313066754
0.204310112839
0.204307293328
0.204304615889
0.204302095309
0.204299760652
0.204297658779
0.20429584502
0.204294356411
0.204293186114
0.204292282954
0.204291575054
0.204290994409
0.204290482554
0.204289996268
0.204289589198
0.200174227028
0.200173651586
0.200171982554
0.200169999361
0.2001674921
0.200164772252
0.200161825049
0.20015877579
0.200155661209
0.200152537193
0.200149438319
0.200146394507
0.20014342799
0.200140555557
0.200137789366
0.200135137941
0.200132607984
0.200130208205
0.200127955247
0.200125879575
0.200124026414
0.200122443324
0.20012115503
0.20012014552
0.200119363621
0.200118745392
0.200118233134
0.200117777915
0.200117343619
0.200116979512
0.196135340484
0.196134837102
0.196133332412
0.196131559763
0.196129309057
0.196126873018
0.196124229285
0.196121495818
0.196118702184
0.196115900212
0.196113120117
0.196110389044
0.196107726854
0.196105148655
0.196102665388
0.196100284903
0.196098014016
0.196095862508
0.196093848574
0.196092003352
0.196090369426
0.196088986395
0.196087868615
0.196086993972
0.196086313114
0.196085769574
0.196085314366
0.19608490641
0.196084515377
0.196084186931
0.192225769627
0.192225322631
0.192223949276
0.192222343765
0.192220297491
0.192218087275
0.192215685474
0.192213203918
0.192210666588
0.192208122098
0.192205597134
0.192203116657
0.192200698598
0.19219835671
0.192196100952
0.192193938698
0.192191877017
0.192189926721
0.192188107247
0.192186449884
0.192184994058
0.192183771919
0.192182789536
0.192182021019
0.192181419633
0.192180935379
0.19218052624
0.192180157208
0.192179802345
0.192179503941
0.188433312636
0.188432911946
0.18843164763
0.188430179977
0.188428302851
0.188426279213
0.188424077622
0.18842180455
0.188419479509
0.188417148428
0.188414835064
0.188412562593
0.188410347324
0.188408201889
0.188406135449
0.188404155058
0.188402268137
0.18840048645
0.18839883038
0.188397330887
0.188396023897
0.188394934766
0.188394063058
0.188393380752
0.188392844048
0.188392408523
0.188392037798
0.188391701674
0.188391377671
0.188391104999
0.184747007219
0.184746647061
0.184745478546
0.18474413174
0.184742403127
0.184740543078
0.184738517159
0.184736426872
0.184734287956
0.184732143919
0.184730015964
0.184727925708
0.184725888032
0.184723914601
0.184722013902
0.184720192797
0.184718459117
0.184716825477
0.184715312921
0.184713951637
0.184712773821
0.184711798723
0.18471102087
0.184710411279
0.184709929208
0.184709535104
0.184709197295
0.184708889536
0.184708592194
0.184708341763
0.18115793992
0.181157615258
0.181156531193
0.181155290701
0.181153692949
0.181151976848
0.181150105622
0.181148176173
0.181146201049
0.181144221563
0.181142256689
0.181140326671
0.181138445134
0.181136622899
0.181134867895
0.181133186894
0.181131588166
0.181130085066
0.18112869904
0.181127459136
0.181126393752
0.18112551677
0.181124818899
0.181124271001
0.181123835356
0.181123476668
0.181123167219
0.181122884046
0.181122609881
0.181122378798
0.177658521718
0.177658227842
0.1776572177
0.17765606997
0.177654586627
0.177652996215
0.177651260195
0.177649471257
0.177647639279
0.177645803599
0.177643981265
0.177642191317
0.177640446275
0.177638756237
0.177637128678
0.177635570359
0.177634089999
0.177632701577
0.177631426707
0.177630293019
0.177629325183
0.177628532449
0.177627902696
0.177627407181
0.177627011058
0.177626682736
0.177626397818
0.177626136069
0.177625882183
0.177625668057
0.17424200964
0.174241742666
0.174240797677
0.174239731437
0.174238348796
0.174236868879
0.174235251836
0.174233586484
0.174231880461
0.174230171312
0.17422847441
0.174226807733
0.174225182828
0.174223609168
0.174222093862
0.174220643728
0.17421926792
0.174217980929
0.174216804324
0.174215764106
0.174214881376
0.174214161445
0.174213590152
0.174213139499
0.174212777333
0.174212475286
0.17421221177
0.174211968838
0.174211732826
0.174211533667
0.170902422972
0.170902179766
0.170901292785
0.170900298893
0.170899005807
0.17089762404
0.170896112771
0.170894557232
0.17089296316
0.170891366459
0.170889781035
0.170888223914
0.170886705781
0.170885235568
0.170883820095
0.170882466286
0.170881183701
0.170879987236
0.170878898221
0.17087794088
0.170877132962
0.17087647646
0.170875955795
0.170875543941
0.170875211243
0.170874932149
0.170874687464
0.170874461178
0.170874241024
0.170874055156
0.167634478385
0.167634256298
0.167633421259
0.167632491977
0.167631278994
0.167629984923
0.167628568234
0.167627110835
0.167625616847
0.167624120656
0.167622634881
0.16762117569
0.167619753
0.167618375273
0.167617049109
0.16761578157
0.167614582592
0.167613467365
0.167612456814
0.167611573291
0.167610831446
0.167610230508
0.167609753966
0.167609375903
0.167609068958
0.167608810051
0.167608582038
0.167608370564
0.167608164556
0.167607990553
0.164433476059
0.164433272803
0.164432484459
0.164431613101
0.164430472044
0.164429256635
0.164427924849
0.164426555506
0.164425151345
0.164423745352
0.164422349011
0.164420977708
0.16441964068
0.164418345982
0.164417100051
0.164415910109
0.164414786428
0.164413744397
0.164412804379
0.164411986821
0.164411303541
0.164410751489
0.164410313598
0.164409965128
0.164409680823
0.164409439771
0.164409226599
0.164409028372
0.164408835045
0.164408671689
0.161295202614
0.161295016226
0.161294270046
0.161293450849
0.161292374663
0.161291230127
0.161289974896
0.161288684911
0.161287361733
0.161286037043
0.161284721324
0.161283429251
0.161282169451
0.161280949631
0.161279776112
0.161278656287
0.161277600725
0.161276624917
0.161275748543
0.161274990143
0.161274358975
0.161273850129
0.161273446274
0.16127312387
0.161272859584
0.161272634415
0.161272434523
0.161272248202
0.161272066296
0.161271912536
0.158215864024
0.158215692814
0.158214984876
0.158214212867
0.15821319545
0.158212115061
0.158210929166
0.158209711026
0.158208461183
0.158207210109
0.158205967395
0.158204747064
0.158203557202
0.158202405215
0.158201297347
0.15820024117
0.158199247508
0.15819833186
0.158197513124
0.158196807963
0.158196223348
0.158195752862
0.158195379133
0.158195079816
0.15819483333
0.158194622364
0.158194434415
0.158194258842
0.158194087267
0.158193942193
0.155192031806
0.155191874306
0.155191201193
0.15519047204
0.155189508075
0.155188485977
0.155187363129
0.155186210287
0.155185027119
0.155183842962
0.155182666618
0.155181511507
0.155180385232
0.155179294942
0.15517824684
0.155177248673
0.155176311476
0.155175450676
0.155174684304
0.155174027211
0.155173484329
0.155173048043
0.155172701103
0.155172422336
0.155172191757
0.155171993553
0.15517181639
0.155171650561
0.155171488368
0.155171351186
0.152220595671
0.152220450598
0.152219809308
0.152219119218
0.15221820404
0.152217235098
0.152216169781
0.152215076499
0.152213954163
0.152212831051
0.152211715257
0.152210619646
0.152209551392
0.152208517423
0.152207523929
0.152206578824
0.152205693314
0.152204882677
0.152204164015
0.152203550445
0.152203045099
0.152202639418
0.152202316403
0.152202056011
0.152201839711
0.152201653025
0.152201485643
0.15220132868
0.152201175037
0.152201045053
0.149298723261
0.14929858949
0.149297977376
0.149297323011
0.149296452507
0.149295532203
0.149294519556
0.149293480781
0.149292414132
0.149291346892
0.149290286522
0.149289245376
0.149288230239
0.14928724786
0.149286304431
0.149285408027
0.149284569984
0.149283805356
0.149283130279
0.149282556224
0.149282084746
0.149281706553
0.149281404991
0.149281161099
0.149280957673
0.149280781422
0.149280622944
0.149280474077
0.149280328254
0.149280204855
0.146423826606
0.146423703146
0.146423117865
0.146422496274
0.146421666807
0.146420791146
0.146419826869
0.146418838132
0.146417822618
0.146416806676
0.146415797198
0.146414806061
0.146413839709
0.146412904736
0.146412007356
0.146411155791
0.146410361467
0.146409639154
0.146409003993
0.146408465909
0.146408025077
0.146407671659
0.146407389406
0.146407160391
0.146406968617
0.146406801857
0.146406651512
0.146406510062
0.146406371411
0.146406254056
0.143593533742
0.143593419714
0.143592859182
0.143592267746
0.143591476084
0.143590641518
0.143589721792
0.143588779125
0.143587810702
0.143586841994
0.143585879381
0.143584934297
0.143584012882
0.1435831216
0.143582266702
0.143581456542
0.143580702597
0.143580019295
0.143579420773
0.143578915513
0.143578502494
0.143578171476
0.143577906665
0.143577691112
0.143577509923
0.143577351826
0.143577208934
0.143577074298
0.143576942247
0.143576830455
0.140805664339
0.140805558963
0.14080502132
0.140804457704
0.140803700963
0.140802904328
0.140802025745
0.14080112561
0.140800200671
0.140799275574
0.140798356235
0.140797453675
0.140796573766
0.140795722866
0.140794907267
0.140794135444
0.140793418887
0.140792771632
0.140792206813
0.140791731577
0.140791343864
0.140791033163
0.14079078416
0.140790580831
0.140790409291
0.140790259125
0.140790123084
0.140789994728
0.140789868764
0.140789762106
0.138058208731
0.138058111311
0.138057594891
0.138057057006
0.138056332603
0.138055571071
0.138054730579
0.138053869808
0.138052985125
0.138052100394
0.138051221114
0.138050357922
0.138049516448
0.138048702967
0.138047923819
0.138047187582
0.138046505724
0.138045891846
0.138045358094
0.138044910379
0.138044545753
0.13804425353
0.1380440189
0.138043826708
0.138043663991
0.13804352111
0.138043391383
0.138043268828
0.138043148496
0.138043046588
0.135349309818
0.135349219732
0.135348723035
0.135348209008
0.135347514621
0.13534678565
0.135345980508
0.135345156257
0.135344308929
0.135343461651
0.135342619542
0.135341792881
0.135340987087
0.135340208366
0.135339463109
0.135338759983
0.135338110396
0.135337527485
0.135337022423
0.135336599989
0.135336256474
0.135335981105
0.135335759581
0.135335577566
0.135335422943
0.13533528677
0.135335162878
0.135335045697
0.135334930586
0.135334833084
0.132677247365
0.132677164053
0.132676685727
0.132676193869
0.132675527406
0.132674828708
0.132674056444
0.132673266151
0.132672453563
0.132671641113
0.132670833573
0.132670040888
0.132669268291
0.132668521934
0.13266780826
0.132667136008
0.132666516496
0.132665962366
0.132665483849
0.132665084685
0.132664760519
0.132664500562
0.132664291024
0.132664118336
0.132663971157
0.132663841179
0.132663722693
0.1326636105
0.13266350024
0.132663406833
0.130040424315
0.130040347273
0.130039886094
0.130039414881
0.13003877445
0.130038103955
0.130037362335
0.130036603684
0.130035823473
0.130035043478
0.130034268154
0.130033507136
0.130032765494
0.130032049335
0.130031365157
0.130030721754
0.130030130322
0.130029602987
0.13002914907
0.130028771367
0.130028464975
0.130028219146
0.130028020598
0.130027856481
0.130027716167
0.130027591924
0.130027478458
0.130027370906
0.130027265163
0.130027175571
0.127437354813
0.127437283585
0.127436838445
0.127436386494
0.127435770378
0.127435126212
0.127434413211
0.127433684102
0.127432934125
0.127432184433
0.127431439193
0.127430707751
0.127429995031
0.127429307108
0.127428650533
0.127428034136
0.127427468966
0.127426966617
0.127426535537
0.127426177661
0.127425887631
0.127425654784
0.127425466337
0.127425310117
0.12742517615
0.127425057229
0.127424948434
0.127424845209
0.127424743681
0.127424657649
0.124866653683
0.124866587858
0.124866157744
0.124865723801
0.12486513044
0.124864510899
0.124863824675
0.1248631232
0.12486240151
0.124861680166
0.124860963072
0.124860259302
0.124859573658
0.124858912188
0.124858281492
0.124857690424
0.124857149856
0.124856670842
0.124856260993
0.124855921467
0.124855646529
0.124855425639
0.124855246499
0.124855097572
0.124854969487
0.124854855514
0.124854751075
0.124854651892
0.124854554304
0.124854471602
0.122327027152
0.122326966355
0.122326550347
0.122326133268
0.12232556124
0.122324964772
0.122324303646
0.122323628066
0.122322932886
0.122322238109
0.122321547394
0.122320869566
0.122320209314
0.122319572672
0.122318966284
0.12231839901
0.122317881524
0.122317424332
0.122317034253
0.12231671174
0.122316450749
0.122316240893
0.122316070349
0.122315928173
0.12231580555
0.122315696188
0.122315595819
0.122315500418
0.122315406521
0.122315326937
0.119817264646
0.119817208537
0.119816805791
0.119816404531
0.119815852536
0.119815277724
0.119814640161
0.119813988889
0.119813318597
0.119812648758
0.119811982809
0.11981132934
0.119810692945
0.119810079647
0.119809496128
0.119808951242
0.119808455442
0.119808018686
0.119807647041
0.119807340327
0.119807092249
0.119806892597
0.119806730009
0.119806594095
0.119806476556
0.119806371499
0.119806274939
0.119806183085
0.11980609265
0.119806015992
0.117336231502
0.117336179769
0.117335789514
0.117335403118
0.117334869965
0.117334315511
0.117333700105
0.117333071687
0.117332424797
0.117331778406
0.117331135746
0.117330505188
0.117329891244
0.117329299928
0.117328737961
0.117328214171
0.117327738774
0.11732732118
0.117326966747
0.117326674726
0.117326438626
0.11732624843
0.117326093218
0.117325963126
0.117325850327
0.117325749298
0.11732565631
0.117325567786
0.117325480604
0.117325406696
0.114882862486
0.114882814846
0.114882436371
0.114882063963
0.114881548558
0.114881013271
0.114880418734
0.114879811834
0.114879186983
0.114878562673
0.114877941946
0.11487733297
0.114876740187
0.114876169606
0.114875627979
0.114875124096
0.114874667916
0.114874268313
0.114873929972
0.114873651637
0.114873426666
0.114873245246
0.11487309689
0.114872972219
0.11487286385
0.114872766594
0.114872676962
0.11487259157
0.114872507448
0.114872436129
0.112456156003
0.112456112195
0.112455744847
0.112455385621
0.112454886959
0.112454369744
0.112453794889
0.112453208281
0.112452604215
0.112452000727
0.112451400687
0.112450812073
0.112450239264
0.112449688271
0.112449165868
0.112448680793
0.112448242737
0.112447860043
0.112447536767
0.112447271198
0.112447056582
0.112446883326
0.112446741351
0.11244662174
0.112446517516
0.112446423803
0.112446337326
0.112446254884
0.112446173647
0.112446104768
0.110055168911
0.110055128697
0.110054771872
0.110054425087
0.110053942241
0.11005344209
0.110052885822
0.110052318376
0.110051733939
0.110051150115
0.110050569613
0.110050000235
0.110049446309
0.110048913845
0.110048409635
0.110047942353
0.11004752141
0.110047154626
0.11004684547
0.110046591825
0.110046386863
0.110046221211
0.110046085186
0.110045970305
0.110045869968
0.110045779584
0.110045696081
0.110045616421
0.110045537907
0.110045471332
0.107679011869
0.107678975028
0.107678628171
0.107678293141
0.107677825255
0.107677341236
0.107676802548
0.10767625322
0.107675687344
0.107675122114
0.107674560091
0.107674008911
0.107673472859
0.107672957945
0.107672470977
0.107672020547
0.107671615778
0.107671263981
0.107670968074
0.107670725583
0.107670529631
0.107670371074
0.107670240609
0.107670130156
0.107670033468
0.107669946221
0.107669865522
0.10766978849
0.10766971255
0.107669648151
0.105326845146
0.105326811476
0.10532647407
0.105326150162
0.105325696444
0.105325227697
0.105324705654
0.105324173478
0.105323625178
0.105323077553
0.105322533027
0.105321999086
0.105321479976
0.105320981709
0.105320511099
0.105320076647
0.10531968718
0.105319349514
0.105319066055
0.105318834009
0.10531864648
0.105318494555
0.105318369291
0.105318262991
0.105318169736
0.105318085445
0.105318007396
0.10531793285
0.105317859344
0.105317797005
0.102997874843
0.102997844157
0.102997515724
0.102997202353
0.102996762068
0.102996307796
0.102995801531
0.102995285615
0.102994753974
0.102994223038
0.102993695102
0.102993177511
0.102992674479
0.102992192019
0.102991736947
0.102991317662
0.102990942686
0.102990618358
0.102990346605
0.102990124354
0.10298994471
0.102989798991
0.102989678602
0.102989576203
0.102989486181
0.102989404682
0.102989329139
0.102989256947
0.102989185747
0.102989125361
0.100691349475
0.1006913216
0.100691001696
0.100690698317
0.100690270785
0.100689830247
0.100689338958
0.100688838471
0.100688322642
0.100687807543
0.100687295356
0.10068679329
0.100686305534
0.100685838102
0.100685397806
0.10068499293
0.10068463169
0.100684319963
0.100684059231
0.100683846177
0.100683673924
0.100683534023
0.100683418209
0.100683319479
0.100683232506
0.100683153646
0.100683080477
0.100683010516
0.100682941504
0.10068288297
0.0984065568756
0.0984065316509
0.0984062198622
0.0984059259708
0.0984055105581
0.0984050830659
0.0984046060071
0.0984041201775
0.0984036193708
0.0984031193199
0.0984026220972
0.0984021347904
0.0984016615652
0.0984012084377
0.0984007822066
0.0984003910331
0.0984000428258
0.0983997430142
0.0983994926687
0.0983992882583
0.0983991229435
0.0983989885021
0.098398876988
0.098398781715
0.098398697622
0.09839862126
0.0983985503423
0.0983984824994
0.0983984155646
0.0983983587885
0.0961428213815
0.0961427986592
0.0961424946008
0.0961422097266
0.096141805843
0.0961413907571
0.0961409272324
0.0961404553428
0.096139968824
0.096139483085
0.0961390000987
0.0961385268381
0.0961380674504
0.0961376279516
0.0961372151222
0.0961368369917
0.096136501159
0.0961362126247
0.0961359720775
0.096135775801
0.0961356170062
0.0961354876966
0.0961353802291
0.0961352882166
0.0961352068469
0.0961351328528
0.0961350640719
0.0961349982414
0.0961349332809
0.0961348781766
0.0938995012766
0.0938994809189
0.0938991842313
0.0938989079362
0.0938985150317
0.0938981117554
0.0938976611165
0.0938972024977
0.0938967295818
0.0938962574691
0.0938957880401
0.0938953281612
0.0938948819644
0.093894455464
0.0938940554167
0.0938936897114
0.0938933656384
0.0938930877865
0.0938928564916
0.0938926678774
0.0938925152174
0.0938923907371
0.0938922870831
0.0938921981502
0.0938921193588
0.0938920476115
0.0938919808611
0.0938919169448
0.0938918538629
0.0938918003495
0.0916759864568
0.0916759683354
0.0916756786826
0.0916754105579
0.0916750281188
0.0916746360951
0.0916741977367
0.091673751764
0.0916732918116
0.091672832685
0.0916723761796
0.0916719290623
0.0916714954526
0.0916710813617
0.091670693516
0.0916703396573
0.0916700267683
0.0916697590438
0.0916695364936
0.0916693551052
0.0916692082241
0.0916690882943
0.0916689882385
0.0916689022176
0.0916688258704
0.0916687562573
0.0916686914386
0.0916686293447
0.0916685680521
0.0916685160541
0.0894716962985
0.0894716802942
0.0894713973618
0.0894711370253
0.0894707645713
0.0894703832796
0.0894699566357
0.0894695227252
0.0894690751385
0.0894686283998
0.0894681842257
0.0894677492904
0.0894673277031
0.0894669254704
0.0894665492826
0.0894662067272
0.0894659044827
0.089465646367
0.0894654320895
0.089465257522
0.089465116091
0.0894650004538
0.0894649037973
0.0894648205334
0.0894647465056
0.0894646789219
0.0894646159426
0.0894645555856
0.0894644959988
0.0894644454456
0.0872860777087
0.0872860637101
0.0872857872037
0.087285534298
0.0872851713793
0.0872848003322
0.0872843848732
0.0872839624781
0.0872835266977
0.0872830917869
0.0872826593898
0.0872822360941
0.0872818260007
0.0872814351094
0.0872810700688
0.0872807383067
0.0872804462005
0.0872801972086
0.087279990764
0.0872798226418
0.0872796863562
0.0872795747731
0.0872794813316
0.087279400681
0.0872793288566
0.0872792632046
0.0872792019786
0.0872791432783
0.0872790853193
0.0872790361449
0.085118603337
0.0851185912403
0.0851183208833
0.0851180750736
0.0851177212687
0.0851173600096
0.0851169552387
0.0851165438468
0.0851161193482
0.0851156957407
0.0851152746013
0.0851148624371
0.0851144633419
0.0851140833071
0.0851137289337
0.085113407485
0.0851131250418
0.0851128847198
0.0851126856979
0.085112523672
0.0851123922491
0.0851122844991
0.0851121941019
0.0851121159308
0.0851120462019
0.0851119823904
0.085111922837
0.0851118657186
0.0851118093141
0.0851117614567
0.082968769934
0.0829687596421
0.0829684951751
0.0829682561471
0.0829679110603
0.0829675591608
0.082967164612
0.0829667637426
0.0829663500337
0.0829659372373
0.0829655268684
0.082965125359
0.0829647367967
0.0829643671626
0.0829640230048
0.0829637114177
0.0829634381906
0.0829632061132
0.0829630141313
0.0829628578766
0.0829627310542
0.0829626269323
0.0829625394206
0.0829624636047
0.0829623958706
0.0829623338144
0.0829622758582
0.0829622202513
0.0829621653327
0.0829621187342
0.0808360968421
0.0808360882641
0.0808358294429
0.0808355969018
0.0808352601614
0.0808349172188
0.0808345324543
0.0808341416559
0.0808337382743
0.0808333358268
0.080832935771
0.0808325444684
0.0808321660019
0.0808318063397
0.0808314719719
0.0808311698205
0.080830905389
0.0808306811572
0.0808304958576
0.0808303450717
0.0808302226058
0.0808301219213
0.0808300371477
0.0808299635713
0.0808298977378
0.0808298373571
0.0808297809273
0.0808297267661
0.0808296732689
0.0808296278748
0.078720124605
0.0787201176559
0.0787198642507
0.0787196379192
0.0787193091753
0.0787189748113
0.0787185994192
0.0787182182671
0.0787178247782
0.0787174322448
0.0787170420719
0.0787166605551
0.0787162917729
0.0787159416786
0.0787156166993
0.0787153235818
0.0787150675499
0.0787148507894
0.0787146718376
0.0787145262382
0.0787144079017
0.0787143104774
0.0787142283044
0.0787141568594
0.0787140928387
0.0787140340586
0.0787139790889
0.0787139263112
0.0787138741749
0.0787138299341
0.0766204136856
0.0766204082856
0.07662016008
0.0766199396969
0.0766196186202
0.0766192924785
0.0766189260711
0.0766185541654
0.0766181701599
0.0766177871314
0.0766174064366
0.0766170343093
0.0766166748238
0.0766163339163
0.0766160179464
0.0766157334834
0.0766154854778
0.0766152758368
0.0766151029195
0.0766149622432
0.0766148478246
0.0766147534951
0.0766146737947
0.0766146043802
0.0766145420899
0.0766144848403
0.0766144312683
0.0766143798159
0.0766143289834
0.0766142858475
0.0745365432815
0.0745365393558
0.0745362961453
0.074536081465
0.074535767745
0.0745354494897
0.0745350917015
0.0745347286655
0.0745343537576
0.0745339798486
0.0745336082504
0.0745332451389
0.0745328945846
0.0745325625043
0.0745322551853
0.074531979018
0.0745317386867
0.0745315358344
0.0745313686581
0.0745312326587
0.0745311219605
0.0745310305718
0.0745309532244
0.074530885746
0.0745308251089
0.0745307693239
0.0745307170908
0.0745306669088
0.0745306173264
0.07453057525
0.0724681102297
0.0724681077078
0.0724678692996
0.07246766009
0.0724673534339
0.0724670427482
0.0724666932343
0.0724663387126
0.0724659725384
0.0724656073852
0.0724652445239
0.0724648900758
0.0724645481076
0.0724642245144
0.0724639255071
0.0724636572963
0.0724634243067
0.0724632279318
0.0724630662214
0.0724629346684
0.0724628275062
0.0724627389145
0.0724626638083
0.0724625981775
0.0724625391213
0.0724624847388
0.0724624337893
0.0724623848259
0.072462336443
0.0724622953833
0.0704147279914
0.0704147268072
0.0704144930189
0.0704142890612
0.0704139891922
0.0704136857771
0.0704133442117
0.0704129978687
0.0704126400846
0.0704122833439
0.0704119288798
0.0704115827623
0.0704112490542
0.0704109336263
0.0704106426095
0.0704103820337
0.0704101560717
0.0704099658811
0.070409809378
0.0704096820559
0.0704095782572
0.0704094923279
0.0704094193583
0.0704093554923
0.0704092979488
0.0704092449106
0.0704091951925
0.0704091473989
0.0704091001676
0.0704090600842
0.0683760257117
0.068376025803
0.068375796462
0.0683755975492
0.0683753042058
0.0683750077785
0.068374673854
0.0683743353723
0.0683739856535
0.068373637001
0.0683732906132
0.0683729525116
0.0683726267551
0.0683723191878
0.0683720358567
0.0683717826114
0.0683715633801
0.0683713790975
0.0683712275589
0.0683711042655
0.0683710036689
0.0683709202761
0.068370849345
0.068370787166
0.0683707310712
0.0683706793223
0.0683706307864
0.0683705841165
0.0683705379916
0.0683704988462
0.0663516473455
0.0663516486536
0.0663514235965
0.0663512295332
0.0663509424677
0.0663506527608
0.0663503261858
0.0663499952654
0.0663496533047
0.0663493124335
0.0663489738184
0.0663486434352
0.0663483253381
0.0663480253424
0.0663477494082
0.0663475032045
0.0663472904228
0.0663471117875
0.0663469649851
0.0663468455307
0.0663467479849
0.0663466670106
0.0663465980262
0.0663465374611
0.0663464827547
0.0663464322432
0.0663463848431
0.0663463392532
0.066346294192
0.0663462559484