/*--------------------------------*- C++ -*----------------------------------*\
| =========                 |                                                 |
| \\      /  F ield         | OpenFOAM: The Open Source CFD Toolbox           |
|  \\    /   O peration     | Version:  2206                                  |
|   \\  /    A nd           | Website:  www.openfoam.com                      |
|    \\/     M anipulation  |                                                 |
\*---------------------------------------------------------------------------*/
FoamFile
{
    version     2.0;
    format      ascii;
    arch        "LSB;label=32;scalar=64";
    class       surfaceScalarField;
    location    "900";
    object      phi;
}
// * * * * * * * * * * * * * * * * * * * * * * * * * * * * * * * * * * * * * //

dimensions      [0 3 -1 0 0 0 0];

oriented        oriented;

internalField   nonuniform List<scalar> 
5870
(
-2.62252904234e-08
1.26032276796e-06
-9.82008270421e-08
3.40466758524e-06
-2.06755104001e-07
5.05768458988e-06
-3.44779463859e-07
6.30551510004e-06
-5.06519892124e-07
7.22023297579e-06
-6.8713679006e-07
7.86215154269e-06
-8.82446097969e-07
8.28173860808e-06
-1.08876476132e-06
8.52119445342e-06
-1.30281979643e-06
8.61576766309e-06
-1.5216956603e-06
8.59485714187e-06
-1.74280373195e-06
8.48293744083e-06
-1.96386357612e-06
8.3003371796e-06
-2.18288952321e-06
8.06389474887e-06
-2.39817872513e-06
7.7875112978e-06
-2.60829863143e-06
7.48261755732e-06
-2.81207261116e-06
7.15856785464e-06
-3.00856106328e-06
6.8229706947e-06
-3.19703497037e-06
6.48196461242e-06
-3.3769590824e-06
6.14046732403e-06
-3.54806471049e-06
5.80246758829e-06
-3.71061045176e-06
5.4713837463e-06
-3.86556114569e-06
5.15012571275e-06
-4.01326842711e-06
4.83971756552e-06
-4.1477316833e-06
4.53497965485e-06
-4.24361468453e-06
4.21736962444e-06
-4.23711307442e-06
3.84890477842e-06
-4.00863520406e-06
3.37403523324e-06
-3.37945719054e-06
2.73366805225e-06
-2.12810320572e-06
1.88493402358e-06
7.94496394838e-07
-2.05617407394e-08
1.28088450874e-06
-7.55378139019e-08
3.45964365829e-06
-1.56661928042e-07
5.138808704e-06
-2.56916913376e-07
6.40577008544e-06
-3.70494889433e-07
7.33381095189e-06
-4.92698881033e-07
7.9843555345e-06
-6.19812970836e-07
8.40885269799e-06
-7.48966308558e-07
8.65034779126e-06
-8.78001189601e-07
8.74480254415e-06
-1.0053499171e-06
8.72220586909e-06
-1.12992284885e-06
8.60751037299e-06
-1.25100880896e-06
8.42142313899e-06
-1.36818825143e-06
8.18107419216e-06
-1.48125912597e-06
7.90058217167e-06
-1.59017482672e-06
7.591533258e-06
-1.69499222054e-06
7.26338524848e-06
-1.79582647345e-06
6.92380494745e-06
-1.89282203001e-06
6.57896016898e-06
-1.98619323999e-06
6.23383853491e-06
-2.07638702451e-06
5.89266137269e-06
-2.16406055695e-06
5.55905727808e-06
-2.2485513877e-06
5.23461654378e-06
-2.32258721586e-06
4.91375339417e-06
-2.36258383644e-06
4.57497627476e-06
-2.31989669081e-06
4.17468247878e-06
-2.12553787338e-06
3.65454596103e-06
-1.72072290206e-06
2.96922026216e-06
-1.1127833881e-06
2.12572853834e-06
-4.36108570958e-07
1.20825920661e-06
3.58387823843e-07
-1.06067004413e-08
1.2914912092e-06
-3.88679271068e-08
3.48790488491e-06
-8.11528150698e-08
5.18109359196e-06
-1.34501987074e-07
6.45911925747e-06
-1.9649717449e-07
7.39580613933e-06
-2.6515749953e-07
8.05301585964e-06
-3.38848302857e-07
8.48254350136e-06
-4.16207012037e-07
8.7277065005e-06
-4.9608482947e-07
8.82468036159e-06
-5.77502080572e-07
8.80362312008e-06
-6.59615045854e-07
8.68962333844e-06
-7.41692086607e-07
8.50350017943e-06
-8.23096982548e-07
8.26247908845e-06
-9.03277639185e-07
7.98076282803e-06
-9.81758076593e-07
7.67001369537e-06
-1.05813070991e-06
7.3397578818e-06
-1.13205091106e-06
6.99772514854e-06
-1.20326372434e-06
6.65017298226e-06
-1.27171065736e-06
6.30228546832e-06
-1.33754691943e-06
5.95849763472e-06
-1.40013275458e-06
5.62164311292e-06
-1.454235523e-06
5.28871931233e-06
-1.48298233021e-06
4.94250020161e-06
-1.45246081753e-06
4.54445476178e-06
-1.31874231078e-06
4.04096397201e-06
-1.05496436043e-06
3.3907680107e-06
-6.88714441857e-07
2.60297034366e-06
-3.17668904386e-07
1.75468300089e-06
-6.78711301673e-08
9.58461432423e-07
2.90516693672e-07
-1.03183865082e-08
1.30180959572e-06
-3.84009433481e-08
3.51598744172e-06
-8.01948314303e-08
5.22288748004e-06
-1.32376615277e-07
6.51130104133e-06
-1.92197532953e-07
7.45562705701e-06
-2.57371946804e-07
8.11819027355e-06
-3.26000001138e-07
8.55117155572e-06
-3.96509400982e-07
8.79821590038e-06
-4.67609978475e-07
8.89578093909e-06
-5.38256394535e-07
8.87426953606e-06
-6.0761617206e-07
8.75898311608e-06
-6.750413873e-07
8.57092539446e-06
-7.40043121317e-07
8.32748082271e-06
-8.02268149256e-07
8.04298785576e-06
-8.61476805501e-07
7.7292223516e-06
-9.17521542749e-07
7.39580261905e-06
-9.70338851513e-07
7.05054245726e-06
-1.01999291028e-06
6.69982704103e-06
-1.06672526705e-06
6.34901782538e-06
-1.11047710264e-06
6.00224947027e-06
-1.14855525854e-06
5.6597212686e-06
-1.17056797226e-06
5.31073202615e-06
-1.1536274153e-06
4.92555964483e-06
-1.0661412602e-06
4.45696860645e-06
-8.8680265762e-07
3.86162536942e-06
-6.30974236343e-07
3.13493958944e-06
-3.59432534776e-07
2.33142864214e-06
-1.47594432081e-07
1.5428448982e-06
-3.2757467899e-08
8.43624468254e-07
2.57759225772e-07
-8.83849323944e-09
1.31064808897e-06
-3.27950774101e-08
3.53994402586e-06
-6.82288655046e-08
5.25832126812e-06
-1.12120198748e-07
6.5551923746e-06
-1.61993983943e-07
7.50550084222e-06
-2.15844018188e-07
8.17204030786e-06
-2.72063853378e-07
8.60739139094e-06
-3.29383115042e-07
8.85553516208e-06
-3.86810808708e-07
8.95320863276e-06
-4.43585657199e-07
8.93104438448e-06
-4.99133412236e-07
8.81453087124e-06
-5.5303074063e-07
8.62482272265e-06
-6.04975108183e-07
8.3794251905e-06
-6.54759739587e-07
8.09277248698e-06
-7.02252077661e-07
7.77671468965e-06
-7.47377992631e-07
7.44092853403e-06
-7.90131954291e-07
7.09329641887e-06
-8.30624693449e-07
6.74031978019e-06
-8.68943375045e-07
6.38733650724e-06
-9.03970729106e-07
6.0372768243e-06
-9.30067925084e-07
5.68581846438e-06
-9.32683908766e-07
5.31334800992e-06
-8.88562405765e-07
4.88143814197e-06
-7.77203501443e-07
4.34560970196e-06
-6.00654697118e-07
3.68507656509e-06
-3.94210354742e-07
2.92849524707e-06
-2.10343565854e-07
2.14756185327e-06
-8.43731614506e-08
1.4168744938e-06
-1.86645939932e-08
7.77915900803e-07
2.39094631777e-07
-7.19040534971e-09
1.31783849433e-06
-2.65688811509e-08
3.55932250163e-06
-5.53389244336e-08
5.2870913114e-06
-9.11880933325e-08
6.59104154351e-06
-1.32215091053e-07
7.54652783995e-06
-1.76865966941e-07
8.2166911838e-06
-2.23878021654e-07
8.65440344568e-06
-2.72231516976e-07
8.90388865743e-06
-3.21108903855e-07
9.00208601964e-06
-3.6986042132e-07
8.97979590188e-06
-4.17975294974e-07
8.86264574498e-06
-4.65057693644e-07
8.67190512116e-06
-5.10806655545e-07
8.42517415258e-06
-5.54998930042e-07
8.13696476133e-06
-5.97474011447e-07
7.81918977104e-06
-6.38128416869e-07
7.48158293945e-06
-6.76939099036e-07
7.132107101e-06
-7.13958553318e-07
6.77733923447e-06
-7.48841160045e-07
6.42221911418e-06
-7.78942172133e-07
6.06737783636e-06
-7.95761134953e-07
5.70263742704e-06
-7.82819359185e-07
5.30040623422e-06
-7.20966775388e-07
4.81958555828e-06
-6.02573371723e-07
4.22721629816e-06
-4.44194935316e-07
3.52669812868e-06
-2.82146331254e-07
2.76644664301e-06
-1.5025608462e-07
2.01567160666e-06
-6.19837972178e-08
1.3286022064e-06
-1.43156317198e-08
7.3024773531e-07
2.24779000055e-07
-6.62945867503e-09
1.32446795301e-06
-2.45091634894e-08
3.57720220643e-06
-5.10700048236e-08
5.31365215273e-06
-8.41898454348e-08
6.62416138413e-06
-1.22120815399e-07
7.58445880992e-06
-1.63429417353e-07
8.25799978579e-06
-2.06945938949e-07
8.6979199673e-06
-2.51721888531e-07
8.94866460703e-06
-2.96994254961e-07
9.04735838608e-06
-3.42155211266e-07
9.02495685813e-06
-3.86726469267e-07
8.90721700306e-06
-4.30337532916e-07
8.71551618466e-06
-4.72707175494e-07
8.46754379532e-06
-5.13627243803e-07
8.1778848295e-06
-5.52949746883e-07
7.8585122741e-06
-5.90588278355e-07
7.51922147093e-06
-6.26536998623e-07
7.16805582124e-06
-6.6074067253e-07
6.81154290838e-06
-6.92193272171e-07
6.45367171401e-06
-7.1651934333e-07
6.0917039075e-06
-7.23046160809e-07
5.70916424438e-06
-6.95675145895e-07
5.27303521936e-06
-6.2152931184e-07
4.74543972432e-06
-5.033074644e-07
4.10899445061e-06
-3.63036141477e-07
3.38642680575e-06
-2.30197942068e-07
2.6336084436e-06
-1.24895306531e-07
1.91036897114e-06
-5.30123027563e-08
1.25671920263e-06
-1.268893417e-08
6.8992436673e-07
2.12090065884e-07
-6.27924084623e-09
1.33074719386e-06
-2.32414254608e-08
3.59416439102e-06
-4.84227495485e-08
5.33883347682e-06
-7.97885694201e-08
6.65552720401e-06
-1.15666088349e-07
7.62033632886e-06
-1.54687324656e-07
8.29702102214e-06
-1.95740233862e-07
8.73897287652e-06
-2.37927021704e-07
8.9908513949e-06
-2.80528791975e-07
9.08996015635e-06
-3.22975522728e-07
9.06740358883e-06
-3.64820729757e-07
8.94906221017e-06
-4.05720109161e-07
8.75641556393e-06
-4.45413428891e-07
8.50723711521e-06
-4.83708981573e-07
8.21618038206e-06
-5.20473647003e-07
7.89527693952e-06
-5.55639568354e-07
7.55438739228e-06
-5.89192333868e-07
7.20160858673e-06
-6.20845334639e-07
6.84319590915e-06
-6.48709555189e-07
6.48153593474e-06
-6.6674224651e-07
6.1097365988e-06
-6.63167158754e-07
5.70558915649e-06
-6.24125744528e-07
5.23399380519e-06
-5.43285917606e-07
4.66459989749e-06
-4.2991871721e-07
3.99562725012e-06
-3.05980145626e-07
3.26248823416e-06
-1.93550500924e-07
2.5211787989e-06
-1.05262880184e-07
1.82208135041e-06
-4.46804943809e-08
1.19613681683e-06
-1.06296240235e-08
6.55873496377e-07
2.0146044186e-07
-5.87410377434e-09
1.33662129765e-06
-2.17428111525e-08
3.61003309838e-06
-4.53044648725e-08
5.36239513053e-06
-7.46589139602e-08
6.68488165311e-06
-1.08243910489e-07
7.6539213254e-06
-1.4478144589e-07
8.33355855758e-06
-1.83231882044e-07
8.77742331269e-06
-2.22755064022e-07
9.0303745769e-06
-2.62677418822e-07
9.12988251115e-06
-3.02464090572e-07
9.10719026054e-06
-3.41695460326e-07
8.98829357999e-06
-3.80047340165e-07
8.79476744364e-06
-4.17274109415e-07
8.5444638846e-06
-4.53194705094e-07
8.25210097762e-06
-4.87686526832e-07
7.92976876124e-06
-5.20690924263e-07
7.58739178972e-06
-5.52136196503e-07
7.23305385894e-06
-5.81368039414e-07
6.87242775206e-06
-6.05492230035e-07
6.50566012553e-06
-6.17131585576e-07
6.12137595432e-06
-6.04539469354e-07
5.69299704014e-06
-5.57153107029e-07
5.18660744292e-06
-4.74206832796e-07
4.58165362333e-06
-3.68250767002e-07
3.88967118424e-06
-2.58851180449e-07
3.15308864761e-06
-1.62456791748e-07
2.42478441021e-06
-8.77168652156e-08
1.74734142388e-06
-3.69117578849e-08
1.1453317095e-06
-8.6796594367e-09
6.27641397933e-07
1.92780782422e-07
-5.52492785951e-09
1.34214622551e-06
-2.04447904542e-08
3.62495296095e-06
-4.26004203649e-08
5.38455076044e-06
-7.02091777451e-08
6.7124904105e-06
-1.01804953936e-07
7.68551710159e-06
-1.36187824127e-07
8.36794142781e-06
-1.72381040356e-07
8.81361652894e-06
-2.09594707243e-07
9.06758824381e-06
-2.47195050762e-07
9.16748285467e-06
-2.84678408302e-07
9.14467361803e-06
-3.21649295182e-07
9.02526446694e-06
-3.57801855331e-07
8.83092000367e-06
-3.92904052772e-07
8.57956608218e-06
-4.26785416195e-07
8.28598234093e-06
-4.59334098146e-07
7.96231744318e-06
-4.9048979129e-07
7.61854748286e-06
-5.20066340837e-07
7.26263040846e-06
-5.4692701862e-07
6.89928842985e-06
-5.67174735192e-07
6.52590784226e-06
-5.72581845781e-07
6.12678306489e-06
-5.52340538856e-07
5.6727557331e-06
-4.99437493526e-07
5.13370439763e-06
-4.17197282752e-07
4.49941341262e-06
-3.19208875083e-07
3.7916827765e-06
-2.22149459575e-07
3.0560292321e-06
-1.38514586215e-07
2.34114953685e-06
-7.44681906427e-08
1.68329502832e-06
-3.12707415788e-08
1.10213426044e-06
-7.35649897213e-09
6.03727155331e-07
1.85424283449e-07
-5.24894399666e-09
1.34739516951e-06
-1.94228300659e-08
3.63912684701e-06
-4.04705352646e-08
5.40559846564e-06
-6.66985682019e-08
6.73871844345e-06
-9.67141880914e-08
7.71553272149e-06
-1.29377608889e-07
8.40060484864e-06
-1.63761115462e-07
8.84800003553e-06
-1.99114548079e-07
9.10294167645e-06
-2.34836066393e-07
9.20320437299e-06
-2.70447420571e-07
9.18028497217e-06
-3.05573093162e-07
9.06039013959e-06
-3.39922636508e-07
8.8652695469e-06
-3.7327575052e-07
8.61291919632e-06
-4.054718933e-07
8.31817848361e-06
-4.36408214237e-07
7.9932537641e-06
-4.66004801435e-07
7.64814407006e-06
-4.93898055265e-07
7.29052366227e-06
-5.18389808595e-07
6.92378018318e-06
-5.34689413385e-07
6.5422074472e-06
-5.34235822533e-07
6.12632947402e-06
-5.07749253075e-07
5.64626916354e-06
-4.5149353463e-07
5.07744867923e-06
-3.71471461648e-07
4.4193913397e-06
-2.81043118292e-07
3.70125443308e-06
-1.94214827847e-07
2.96920094165e-06
-1.20657962603e-07
2.26759267161e-06
-6.48140816306e-08
1.62745114736e-06
-2.72573311094e-08
1.06457750992e-06
-6.43577857382e-09
5.82905602798e-07
1.78988504875e-07
-5.01329208195e-09
1.3524084616e-06
-1.85520451832e-08
3.65266560009e-06
-3.86566049357e-08
5.42570302539e-06
-6.37090730533e-08
6.76377091158e-06
-9.23789553257e-08
7.74420260377e-06
-1.23577441612e-07
8.43180333496e-06
-1.56418320473e-07
8.88084091441e-06
-1.90185008087e-07
9.13670836408e-06
-2.24302602314e-07
9.23732196722e-06
-2.58314261636e-07
9.21429663145e-06
-2.91861270844e-07
9.09393714886e-06
-3.24666149282e-07
8.89807442523e-06
-3.56518657274e-07
8.64477170443e-06
-3.87267212386e-07
8.34892703862e-06
-4.1681363417e-07
8.02280018587e-06
-4.45033811111e-07
7.67636424701e-06
-4.7132521221e-07
7.31681506334e-06
-4.93393974116e-07
6.94584894508e-06
-5.05742688942e-07
6.55455616217e-06
-4.99947709658e-07
6.12053449472e-06
-4.68550733397e-07
5.61487218718e-06
-4.10573168433e-07
5.0194711143e-06
-3.33583180941e-07
4.34240135226e-06
-2.50101510141e-07
3.61777276223e-06
-1.71863837928e-07
2.89096326943e-06
-1.06463367248e-07
2.20219220093e-06
-5.71313347369e-08
1.57811911485e-06
-2.40259159555e-08
1.03147209114e-06
-5.67421646425e-09
5.64553903308e-07
1.73314288409e-07
-4.80223616986e-09
1.35721069778e-06
-1.77713019242e-08
3.66563466583e-06
-3.70301261912e-08
5.44496184965e-06
-6.10290223153e-08
6.78776980771e-06
-8.84936053381e-08
7.7716671868e-06
-1.18380954255e-07
8.4616906839e-06
-1.49842165747e-07
8.91230212591e-06
-1.82190786749e-07
9.1690569851e-06
-2.14876047321e-07
9.27000722779e-06
-2.47460248825e-07
9.24688083291e-06
-2.79599666753e-07
9.12607656685e-06
-3.11028385439e-07
8.92950314382e-06
-3.41545326043e-07
8.67528864515e-06
-3.71006962302e-07
8.37838867478e-06
-3.99313060588e-07
8.05110628415e-06
-4.26266426815e-07
7.70331761324e-06
-4.50973489315e-07
7.34152212582e-06
-4.70556594344e-07
6.96543205011e-06
-4.79039912657e-07
6.56303948062e-06
-4.68513419226e-07
6.11000800127e-06
-4.3340162657e-07
5.57976039443e-06
-3.7489913157e-07
4.96096861934e-06
-3.01348350475e-07
4.26885057121e-06
-2.24194444242e-07
3.54061885594e-06
-1.53295057996e-07
2.82006388319e-06
-9.46821170684e-08
2.14357926e-06
-5.07245726498e-08
1.53416157044e-06
-2.13090356901e-08
1.00205655418e-06
-5.02760468583e-09
5.48272472306e-07
1.68286683723e-07
-4.61361251992e-09
1.3618243103e-06
-1.70730634103e-08
3.67809411671e-06
-3.55752935865e-08
5.46346407983e-06
-5.86317169492e-08
6.81082623108e-06
-8.50181985571e-08
7.79805366841e-06
-1.13732920168e-07
8.49040540554e-06
-1.43960407838e-07
8.9425296136e-06
-1.75041215342e-07
9.20013779262e-06
-2.064462103e-07
9.30141222275e-06
-2.37754861506e-07
9.27818948408e-06
-2.68636888035e-07
9.15695859343e-06
-2.9883678917e-07
8.95970304485e-06
-3.28161936271e-07
8.70461379237e-06
-3.56475444645e-07
8.40670218306e-06
-3.83665708863e-07
8.07829654836e-06
-4.09431781641e-07
7.72908368602e-06
-4.32551712848e-07
7.364642057e-06
-4.49615712344e-07
6.98249604961e-06
-4.54405251931e-07
6.56782902034e-06
-4.39787597185e-07
6.09539034651e-06
-4.01973818182e-07
5.54194661535e-06
-3.43783420515e-07
4.9027782217e-06
-2.73806209664e-07
4.19887336041e-06
-2.02367176936e-07
3.46917982317e-06
-1.37780569197e-07
2.75547727544e-06
-8.48834591239e-08
2.09068214993e-06
-4.54121444839e-08
1.49469025581e-06
-1.90649283825e-08
9.75709338075e-07
-4.49722619409e-09
5.33704770119e-07
1.63789457529e-07
-4.4455092363e-09
1.36626981954e-06
-1.64509180276e-08
3.69009952548e-06
-3.42790062254e-08
5.48129216802e-06
-5.64955430268e-08
6.83304276789e-06
-8.1921102247e-08
7.82347922764e-06
-1.09590442925e-07
8.51807474625e-06
-1.38717850919e-07
8.97165702161e-06
-1.68667931502e-07
9.23008787322e-06
-1.98930832305e-07
9.33167512356e-06
-2.29101327361e-07
9.3083599791e-06
-2.58861131793e-07
9.18671839792e-06
-2.87964111532e-07
8.98880602449e-06
-3.16225373213e-07
8.73287505416e-06
-3.43512436118e-07
8.43398924588e-06
-3.69690617828e-07
8.10447473006e-06
-3.94325317888e-07
7.75371838608e-06
-4.15846273179e-07
7.38616301227e-06
-4.30392538234e-07
6.99704231466e-06
-4.31721269925e-07
6.56915775215e-06
-4.1363485369e-07
6.07730393026e-06
-3.73945695186e-07
5.50225745676e-06
-3.16631606162e-07
4.84546413271e-06
-2.50196277663e-07
4.13243803195e-06
-1.83890176521e-07
3.40287372199e-06
-1.24757173345e-07
2.69634427227e-06
-7.67051733265e-08
2.04263014991e-06
-4.09977484646e-08
1.45898283095e-06
-1.720723504e-08
9.51918824651e-07
-4.05978673049e-09
5.20557321811e-07
1.59729670799e-07
-4.29430037878e-09
1.37056411993e-06
-1.58914057405e-08
3.70169663083e-06
-3.31132398748e-08
5.49851400215e-06
-5.45744034421e-08
6.85450393146e-06
-7.91356384311e-08
7.84804046263e-06
-1.05864568447e-07
8.54480367629e-06
-1.34002222602e-07
8.99979467577e-06
-1.62934822801e-07
9.25902047344e-06
-1.92169849193e-07
9.36091014995e-06
-2.21315838022e-07
9.3375059679e-06
-2.50065302678e-07
9.21546786263e-06
-2.78180622689e-07
9.01692134441e-06
-3.05483904038e-07
8.76017833561e-06
-3.31843900293e-07
8.46034924205e-06
-3.57089325704e-07
8.12972015546e-06
-3.80625143266e-07
7.77725420364e-06
-4.00530566513e-07
7.4060684355e-06
-4.12592541178e-07
7.00910428933e-06
-4.10730505048e-07
6.56729571614e-06
-3.8975284646e-07
6.05632627166e-06
-3.48850365923e-07
5.46135497615e-06
-2.92784921773e-07
4.78939868859e-06
-2.29773190473e-07
4.06942630069e-06
-1.68074947511e-07
3.34117547899e-06
-1.13684501114e-07
2.64195382587e-06
-6.97788268983e-08
1.9987244757e-06
-3.72656840587e-08
1.42646968812e-06
-1.56366651405e-08
9.30289805731e-07
-3.68930680588e-09
5.08609963476e-07
1.56040363993e-07
-4.15692923035e-09
1.37472104916e-06
-1.53830746889e-08
3.71292277627e-06
-3.20540979669e-08
5.51518502543e-06
-5.28289660764e-08
6.87527879958e-06
-7.66049147928e-08
7.87181641135e-06
-1.02479425661e-07
8.57067818719e-06
-1.29717825274e-07
9.0270330754e-06
-1.57725975072e-07
9.28702862325e-06
-1.86027103016e-07
9.3892112779e-06
-2.14242248977e-07
9.36572111383e-06
-2.42073751802e-07
9.2432993655e-06
-2.69291815038e-07
9.04413940756e-06
-2.95724693714e-07
8.78661121439e-06
-3.21238216395e-07
8.48586276464e-06
-3.45609890358e-07
8.15409182941e-06
-3.68062428743e-07
7.79970674203e-06
-3.86338530938e-07
7.42434453767e-06
-3.95979717454e-07
7.01874547584e-06
-3.91216076134e-07
6.56253207493e-06
-3.67867550435e-07
6.03297774595e-06
-3.26275362549e-07
5.4197627882e-06
-2.71696263047e-07
4.73481958911e-06
-2.11946538622e-07
4.0096765763e-06
-1.54391664291e-07
3.28362060462e-06
-1.04155242366e-07
2.59171740395e-06
-6.38338344609e-08
1.95840306779e-06
-3.4064924002e-08
1.39670077766e-06
-1.42891111584e-08
9.1051399289e-07
-3.37104414543e-09
4.97691896463e-07
1.52669319847e-07
-4.03142545588e-09
1.37875247462e-06
-1.49186317989e-08
3.7238099826e-06
-3.10863845419e-08
5.53135277817e-06
-5.12341894996e-08
6.89542660455e-06
-7.42926263205e-08
7.89487484818e-06
-9.93864572805e-08
8.59577201817e-06
-1.25803210022e-07
9.05344982815e-06
-1.52966691135e-07
9.31419210438e-06
-1.80414518384e-07
9.41665910515e-06
-2.07779157862e-07
9.39308575327e-06
-2.34771948942e-07
9.27029215663e-06
-2.61170319174e-07
9.07053777771e-06
-2.86807597222e-07
8.81224849254e-06
-3.11541558915e-07
8.51059672626e-06
-3.35083641441e-07
8.17763391193e-06
-3.56458672381e-07
7.82108177297e-06
-3.73100328409e-07
7.44098619368e-06
-3.80410472072e-07
7.02605561951e-06
-3.73039366247e-07
6.55516096921e-06
-3.47778768273e-07
6.00771714796e-06
-3.05905893313e-07
5.37788991317e-06
-2.52954664792e-07
4.68186836061e-06
-1.96284121951e-07
3.95300603349e-06
-1.42461989029e-07
3.22979847167e-06
-9.58862886432e-08
2.54514170356e-06
-5.86883654865e-08
1.92120514464e-06
-3.12980450453e-08
1.36931045722e-06
-1.31248816727e-08
8.92340829518e-07
-3.09618763007e-09
4.87663202421e-07
1.49573132216e-07
-3.91627946671e-09
1.38266875409e-06
-1.44925202468e-08
3.73438622337e-06
-3.01985311194e-08
5.54705878904e-06
-4.97710038088e-08
6.91499907724e-06
-7.21711035664e-08
7.91727494794e-06
-9.65486173925e-08
8.62014953202e-06
-1.22211439389e-07
9.07911265016e-06
-1.48599839295e-07
9.3405805043e-06
-1.75264637495e-07
9.44332390335e-06
-2.01848786572e-07
9.41966990232e-06
-2.28071913873e-07
9.29651528398e-06
-2.53718111872e-07
9.09618397562e-06
-2.78624404859e-07
8.83715478562e-06
-3.02634533626e-07
8.53460685495e-06
-3.25379544529e-07
8.20037892283e-06
-3.45677476033e-07
7.84137970448e-06
-3.60690632757e-07
7.45599935039e-06
-3.65779879861e-07
7.03114486661e-06
-3.5608952425e-07
6.5454706137e-06
-3.2931482234e-07
5.98094244604e-06
-2.87477252676e-07
5.33605234344e-06
-2.3622728513e-07
4.63061839309e-06
-1.82445771692e-07
3.89922452008e-06
-1.3199356573e-07
3.17934626568e-06
-8.86610971725e-08
2.501809235e-06
-5.42034862395e-08
1.88674753371e-06
-2.88896116719e-08
1.34399658266e-06
-1.21121788479e-08
8.75563396694e-07
-2.85719886349e-09
4.78408222435e-07
1.46715933353e-07
-3.81015435452e-09
1.38647890845e-06
-1.40997958605e-08
3.74467586487e-06
-2.93802395908e-08
5.56233923277e-06
-4.8422443079e-08
6.93404128074e-06
-7.0215755081e-08
7.93906825995e-06
-9.39330226065e-08
8.64386679957e-06
-1.18900908217e-07
9.10408053578e-06
-1.44574853752e-07
9.36625444985e-06
-1.70517847777e-07
9.46926689738e-06
-1.96382512283e-07
9.44553456679e-06
-2.21896146581e-07
9.32202891832e-06
-2.46848954159e-07
9.12113678312e-06
-2.71079927477e-07
8.86138575903e-06
-2.94412121066e-07
8.55793904846e-06
-3.16383125184e-07
8.22234992693e-06
-3.35602005863e-07
7.86059858516e-06
-3.49004111282e-07
7.46940145579e-06
-3.51996941748e-07
7.03413769708e-06
-3.40262205105e-07
6.53373587716e-06
-3.12314610089e-07
5.95299485102e-06
-2.70754094965e-07
5.29449182826e-06
-2.21231380775e-07
4.58109567892e-06
-1.70150582644e-07
3.84814372198e-06
-1.22748435251e-07
3.13194411825e-06
-8.23040365899e-08
2.46136483634e-06
-5.02658419836e-08
1.8547093391e-06
-2.67772661108e-08
1.32050800679e-06
-1.12243066958e-08
8.60010437281e-07
-2.64765990696e-09
4.69831575647e-07
1.44068273445e-07
-3.71191670158e-09
1.39019082516e-06
-1.37362588639e-08
3.75470020702e-06
-2.86227596363e-08
5.57722573354e-06
-4.71740927236e-08
6.95259261383e-06
-6.84056928348e-08
7.96029986006e-06
-9.15117511428e-08
8.6669728579e-06
-1.15836302696e-07
9.12840508735e-06
-1.40848833282e-07
9.39126698045e-06
-1.66123595507e-07
9.49454165961e-06
-1.91322168592e-07
9.47073313985e-06
-2.16178985847e-07
9.34688573562e-06
-2.40489776904e-07
9.1454475741e-06
-2.64093402909e-07
8.88498938512e-06
-2.86785142896e-07
8.58063078837e-06
-3.07997896584e-07
8.24356268061e-06
-3.26135838795e-07
7.87873652737e-06
-3.37955410151e-07
7.48122102713e-06
-3.3898530659e-07
7.03516759352e-06
-3.25463234593e-07
6.52021380526e-06
-2.96632788259e-07
5.92416440467e-06
-2.55532269732e-07
5.25339130968e-06
-2.07730147494e-07
4.5332935567e-06
-1.59168788779e-07
3.79958236329e-06
-1.14534734824e-07
3.08731006427e-06
-7.66746462242e-08
2.42350474774e-06
-4.67852487284e-08
1.8248199416e-06
-2.49116936787e-08
1.29863445174e-06
-1.04403645525e-08
8.45539108153e-07
-2.46263425757e-09
4.61853845354e-07
1.41605639188e-07
-3.62063891408e-09
1.39381146408e-06
-1.33984758223e-08
3.76447804391e-06
-2.79189379684e-08
5.59174619568e-06
-4.60141663372e-08
6.97068784221e-06
-6.67238314386e-08
7.98100952517e-06
-8.92619551125e-08
8.6895109816e-06
-1.12988713416e-07
9.15213184566e-06
-1.37386640803e-07
9.41566490785e-06
-1.62040456463e-07
9.51919547527e-06
-1.8662007093e-07
9.49531275429e-06
-2.10866571562e-07
9.3711322363e-06
-2.34580564155e-07
9.16916156661e-06
-2.57598308809e-07
8.90800712986e-06
-2.79680034856e-07
8.60271251435e-06
-3.00144960878e-07
8.26402760663e-06
-3.17201950956e-07
7.89579351745e-06
-3.27477547058e-07
7.49149662322e-06
-3.26682514692e-07
7.03437256115e-06
-3.11609966884e-07
6.50514125754e-06
-2.82141536611e-07
5.89469597439e-06
-2.41637508728e-07
5.21288728174e-06
-1.95527033887e-07
4.48718308188e-06
-1.49313486601e-07
3.75336881602e-06
-1.07198507347e-07
3.04519508499e-06
-7.16612903052e-08
2.3879675307e-06
-4.36905857855e-08
1.79684923709e-06
-2.32542875884e-08
1.27819815355e-06
-9.74410268941e-09
8.32028923255e-07
-2.29830904575e-09
4.54408051711e-07
1.39307330141e-07
-3.53554579927e-09
1.39734700988e-06
-1.30835793243e-08
3.77402607743e-06
-2.72628009982e-08
5.60592541736e-06
-4.49328204927e-08
6.98835786171e-06
-6.51558999507e-08
8.00123260463e-06
-8.71645469057e-08
8.71151962858e-06
-1.10333984018e-07
9.17530128279e-06
-1.34158909919e-07
9.43948983376e-06
-1.58233802098e-07
9.54327036745e-06
-1.82236348438e-07
9.5193153006e-06
-2.05913850748e-07
9.39480973865e-06
-2.29071047644e-07
9.19231876343e-06
-2.51538783951e-07
8.93047486626e-06
-2.73035035054e-07
8.62420876538e-06
-2.92758839532e-07
8.2837514111e-06
-3.08737884945e-07
7.91177256286e-06
-3.17516656237e-07
7.50027539449e-06
-3.15035568348e-07
7.03189147326e-06
-2.98628334452e-07
6.48873402373e-06
-2.68727483745e-07
5.86479512367e-06
-2.28919869719e-07
5.17307966767e-06
-1.84457233321e-07
4.4427204455e-06
-1.40430734853e-07
3.70934231758e-06
-1.00614393604e-07
3.00537874372e-06
-6.71737012855e-08
2.35452683838e-06
-4.09245596473e-08
1.77060009545e-06
-2.1773975061e-08
1.25904756897e-06
-9.12241683061e-09
8.19377365026e-07
-2.1515927921e-09
4.47437227673e-07
1.37155737349e-07
-3.45597467032e-09
1.40080298455e-06
-1.27891174351e-08
3.78335922018e-06
-2.66492405466e-08
5.61978554047e-06
-4.39216381147e-08
7.00563025928e-06
-6.36896961126e-08
8.02100066263e-06
-8.52032070484e-08
8.73303313954e-06
-1.07851463082e-07
9.19794953883e-06
-1.31140537328e-07
9.46277890802e-06
-1.54674033699e-07
9.56680386382e-06
-1.78136924434e-07
9.54277819131e-06
-2.01282310902e-07
9.41795512516e-06
-2.23918206435e-07
9.21495465889e-06
-2.45866928054e-07
8.95242358796e-06
-2.6679730264e-07
8.6451391399e-06
-2.85784277004e-07
8.30273838545e-06
-3.00692033654e-07
7.92668031951e-06
-3.08028096918e-07
7.50761145774e-06
-3.03997849578e-07
7.02786122592e-06
-2.86450790416e-07
6.47118696465e-06
-2.56289249503e-07
5.83463358275e-06
-2.17249274951e-07
5.13403969307e-06
-1.74381143166e-07
4.39985231373e-06
-1.3239220007e-07
3.6673533745e-06
-9.46789024715e-08
2.9676654461e-06
-6.31377494584e-08
2.32298568536e-06
-3.84402141069e-08
1.7459025601e-06
-2.04452824372e-08
1.2410526373e-06
-8.56454606207e-09
8.07496628651e-07
-2.01994044943e-09
4.40892622061e-07
1.351357969e-07
-3.38135643763e-09
1.40418434099e-06
-1.2512984069e-08
3.7924908478e-06
-2.60738687619e-08
5.63334642516e-06
-4.29733890535e-08
7.02252977958e-06
-6.23147385177e-08
8.0403420121e-06
-8.33639178787e-08
8.75408231892e-06
-1.05523412502e-07
9.22010903347e-06
-1.28309961772e-07
9.4855654573e-06
-1.5133572994e-07
9.58982963199e-06
-1.74292531961e-07
9.5657349933e-06
-1.9693886401e-07
9.44060145725e-06
-2.19085026723e-07
9.23710082154e-06
-2.40541460199e-07
8.97388002152e-06
-2.60921469603e-07
8.66551914923e-06
-2.79174549843e-07
8.32099146568e-06
-2.93021582769e-07
7.94052735244e-06
-2.98974405581e-07
7.51356428054e-06
-2.93527809676e-07
7.02241463002e-06
-2.75015667089e-07
6.45267482215e-06
-2.44736258356e-07
5.80435417401e-06
-2.0651268887e-07
5.09581612354e-06
-1.65180014949e-07
4.35851963983e-06
-1.25090274431e-07
3.62726363401e-06
-8.93060288394e-08
2.93188120049e-06
-5.94921482869e-08
2.29317180481e-06
-3.61988355705e-08
1.72260924738e-06
-1.92472388018e-08
1.22410104053e-06
-8.0616412284e-09
7.96311031078e-07
-1.90126210152e-09
4.34732242935e-07
1.33234534799e-07
-3.31120133962e-09
1.40749554234e-06
-1.22533668128e-08
3.80143301326e-06
-2.55329095841e-08
5.64662596793e-06
-4.20818510387e-08
7.03907872104e-06
-6.10220064691e-08
8.05928216754e-06
-8.16346146724e-08
8.77469492714e-06
-1.03334564644e-07
9.24180898345e-06
-1.25648623959e-07
9.50787951663e-06
-1.48197007855e-07
9.61237801589e-06
-1.70677974995e-07
9.58821596041e-06
-1.92855008315e-07
9.46277849061e-06
-2.14539571379e-07
9.25878538453e-06
-2.35526713985e-07
8.99486716421e-06
-2.55368542976e-07
8.68536097816e-06
-2.72890152886e-07
8.33851307559e-06
-2.85690928289e-07
7.95332812785e-06
-2.90323818082e-07
7.51819717031e-06
-2.83588111997e-07
7.01567892393e-06
-2.64266718978e-07
6.43335342921e-06
-2.33987692968e-07
5.77407514799e-06
-1.96611760319e-07
5.05844019085e-06
-1.56752486785e-07
4.3186603663e-06
-1.18434287149e-07
3.58894543439e-06
-8.44238989762e-08
2.8978708123e-06
-5.61859375785e-08
2.26493384341e-06
-3.41683295499e-08
1.70059163935e-06
-1.81624902178e-08
1.2080952012e-06
-7.60638789138e-09
7.85754928751e-07
-1.79383179448e-09
4.28919686841e-07
1.31440703004e-07
-3.24508513153e-09
1.41074062747e-06
-1.20086957958e-08
3.81019662392e-06
-2.50230922624e-08
5.65964036439e-06
-4.12416343392e-08
7.05529726312e-06
-5.9803686004e-08
8.0778442192e-06
-8.00048462834e-08
8.79489608744e-06
-1.01271693316e-07
9.26307583049e-06
-1.23140445576e-07
9.5297482689e-06
-1.45238909072e-07
9.63447647939e-06
-1.67271422032e-07
9.61024847335e-06
-1.89006030803e-07
9.48451309941e-06
-2.10254099769e-07
9.28003345343e-06
-2.30791688973e-07
9.01540475349e-06
-2.5010486159e-07
8.70467415071e-06
-2.66897558014e-07
8.355305772e-06
-2.78670240714e-07
7.96510081055e-06
-2.82048986367e-07
7.52157591595e-06
-2.74144850384e-07
7.00777478795e-06
-2.54152553374e-07
6.41336113227e-06
-2.23971353019e-07
5.74389394763e-06
-1.87460645915e-07
5.0219294837e-06
-1.49011612066e-07
4.28021133247e-06
-1.12347366364e-07
3.55228118871e-06
-7.9972026904e-08