/*--------------------------------*- C++ -*----------------------------------*\
| =========                 |                                                 |
| \\      /  F ield         | OpenFOAM: The Open Source CFD Toolbox           |
|  \\    /   O peration     | Version:  2206                                  |
|   \\  /    A nd           | Website:  www.openfoam.com                      |
|    \\/     M anipulation  |                                                 |
\*---------------------------------------------------------------------------*/
FoamFile
{
    version     2.0;
    format      ascii;
    arch        "LSB;label=32;scalar=64";
    class       volVectorField;
    location    "900";
    object      U;
}
// * * * * * * * * * * * * * * * * * * * * * * * * * * * * * * * * * * * * * //

dimensions      [0 1 -1 0 0 0 0];

internalField   nonuniform List<vector> 
3000
(
(1.00514458058 -0.000744522705848 -2.80546712154e-13)
(1.00519974501 -0.00170310632629 -9.5906122868e-14)
(1.00531043585 -0.00269826283399 -6.26159272989e-14)
(1.00546243557 -0.00365899422544 -4.78543840541e-14)
(1.00564683019 -0.00457985139381 -3.88161083674e-14)
(1.00585649185 -0.00546342722149 -3.41059975427e-14)
(1.00608551792 -0.00631206599348 -2.9781505666e-14)
(1.00632890799 -0.00712708042257 -2.73781296767e-14)
(1.00658237121 -0.0079089914683 -2.57221108097e-14)
(1.00684220526 -0.00865780863814 -2.41046787627e-14)
(1.00710521504 -0.00937326445994 -2.29221177043e-14)
(1.00736865455 -0.0100549961296 -2.13643963313e-14)
(1.00763018162 -0.010702677785 -2.23401442206e-14)
(1.00788782059 -0.011316111306 -1.82939862312e-14)
(1.00813993925 -0.0118952842332 -2.0991896498e-14)
(1.00838525053 -0.0124404027859 -1.90096221402e-14)
(1.00862271865 -0.0129519031656 -2.01468306638e-14)
(1.00885085624 -0.0134304281663 -2.43589156775e-14)
(1.00906629155 -0.0138767537746 -2.28990658449e-14)
(1.00926649507 -0.0142918094358 -1.13380730683e-14)
(1.00947305484 -0.0146774029246 -1.56282148553e-14)
(1.0097901034 -0.0150381337862 -2.52145704775e-14)
(1.01043763909 -0.0153812308444 -1.55264868874e-14)
(1.01149155889 -0.0157035996817 -7.7388542798e-15)
(1.01178906063 -0.0159580706889 -2.50469254393e-14)
(1.00640478836 -0.0160112342508 -2.22839048747e-14)
(0.982512281327 -0.0155819836085 -2.18012708423e-14)
(0.91370681667 -0.0140618328098 -1.41633865067e-14)
(0.75065883322 -0.0103476457079 -8.03117702476e-15)
(0.396854543207 -0.00366081918168 -1.03306249418e-14)
(1.02739406077 -0.000572460173057 -7.2573510345e-13)
(1.02756270324 -0.00131409350835 -2.68839074961e-13)
(1.027903575 -0.00205341167996 -1.7370294118e-13)
(1.02836903452 -0.002744382834 -1.23725210175e-13)
(1.02892964844 -0.00337624342104 -1.03085224974e-13)
(1.02956199524 -0.00395211505773 -9.16062723521e-14)
(1.03024694395 -0.0044756765552 -7.74773823569e-14)
(1.0309686355 -0.00495116960118 -7.16426219504e-14)
(1.03171385078 -0.00538312021309 -6.58891760245e-14)
(1.03247156688 -0.00577607826665 -5.77050982883e-14)
(1.03323262074 -0.00613446712538 -5.97365808277e-14)
(1.03398944227 -0.00646248523439 -4.77293040078e-14)
(1.03473583497 -0.00676403766896 -5.78680406408e-14)
(1.03546679823 -0.00704269039572 -3.6710195627e-14)
(1.03617839762 -0.00730164324384 -4.96815935102e-14)
(1.03686756915 -0.00754371771758 -4.564317032e-14)
(1.03753131983 -0.007771349279 -4.77086718455e-14)
(1.03816530668 -0.00798657315415 -5.51819023537e-14)
(1.03876818296 -0.00819106359753 -5.61614173944e-14)
(1.03937125704 -0.00838650173758 -2.87276945984e-14)
(1.04009628061 -0.00857557356483 -3.57771978328e-14)
(1.04109861044 -0.00876193594227 -5.439516749e-14)
(1.04192554748 -0.00894100791088 -3.82683322487e-14)
(1.03959084349 -0.00906893657279 -2.5597557222e-14)
(1.0252489452 -0.00901810451988 -5.23245435626e-14)
(0.981179745672 -0.00856999173924 -4.79428101344e-14)
(0.881876216537 -0.00747530909848 -4.15844523205e-14)
(0.703343563578 -0.00554013740506 -2.68606146132e-14)
(0.44225735083 -0.00283907212677 -1.3201233282e-14)
(0.139647664065 -0.000247218215822 -7.49032315966e-15)
(1.04476400268 -0.000294306558231 -9.38851141925e-13)
(1.04492110378 -0.000684130957278 -3.71463633244e-13)
(1.04523857595 -0.00106506517121 -2.34098009896e-13)
(1.04567053242 -0.00143628829793 -1.69019575273e-13)
(1.04618902529 -0.00178623612457 -1.39895860245e-13)
(1.04677177085 -0.0021184548341 -1.18605999511e-13)
(1.04740072934 -0.00243415965447 -1.05105443974e-13)
(1.04806109901 -0.00273466732126 -9.75652710306e-14)
(1.04874071359 -0.0030211083637 -9.31611039802e-14)
(1.04942959267 -0.00329435380028 -7.85703520646e-14)
(1.05011958534 -0.00355505142969 -8.00775711066e-14)
(1.05080408081 -0.00380366534236 -6.62832780006e-14)
(1.05147777054 -0.00404051685213 -7.60346786127e-14)
(1.05213646605 -0.0042658254338 -5.51906849075e-14)
(1.0527769469 -0.00447974695329 -6.6304865717e-14)
(1.05339650114 -0.00468240264021 -6.22902233002e-14)
(1.05399160581 -0.00487388663805 -6.58346772132e-14)
(1.05455897287 -0.00505429655729 -7.48178789881e-14)
(1.05511477092 -0.0052240070768 -7.02818336723e-14)
(1.05574408032 -0.00538429301625 -4.60779718696e-14)
(1.05657215969 -0.00553679178515 -5.20308551103e-14)
(1.05722131333 -0.00567651101584 -6.72343706781e-14)
(1.05505233123 -0.00577094249664 -5.22443660847e-14)
(1.04213219955 -0.00572874502248 -4.54302847769e-14)
(1.00295313074 -0.00539161318272 -6.35688973961e-14)
(0.916976611813 -0.0045988670591 -5.75195131824e-14)
(0.768905690321 -0.00332334123869 -4.54141985768e-14)
(0.563372890361 -0.00180155812041 -3.00153888699e-14)
(0.330956354885 -0.000545069416757 -1.50169337221e-14)
(0.107742004256 -3.9426594055e-06 -4.92872392251e-15)
(1.052706044 -0.000287045120495 -1.06506778429e-12)
(1.05284838597 -0.000671771084625 -4.57347000405e-13)
(1.05313558708 -0.00104710943032 -2.84198106425e-13)
(1.05352718419 -0.0014109454731 -2.02497371436e-13)
(1.05399883747 -0.0017463327691 -1.70095248958e-13)
(1.05453096837 -0.0020580572298 -1.46438505367e-13)
(1.05510768825 -0.00234652807098 -1.27692957386e-13)
(1.05571581067 -0.00261295345699 -1.16823307911e-13)
(1.05634434607 -0.00285848721746 -1.08105774267e-13)
(1.05698412666 -0.0030842385871 -9.60579505019e-14)
(1.05762752059 -0.00329131049067 -9.54801546635e-14)
(1.05826820676 -0.00348080312335 -8.11854150047e-14)
(1.0589009971 -0.0036538143112 -8.90832869704e-14)
(1.05952170789 -0.00381143659007 -6.81399301506e-14)
(1.06012695669 -0.00395475086476 -7.94381775945e-14)
(1.06071338033 -0.0040848112359 -7.66799120043e-14)
(1.06127697415 -0.00420262198936 -8.10572489443e-14)
(1.06182154534 -0.00430921560706 -8.78135185428e-14)
(1.06239246619 -0.00440605923581 -7.91368698458e-14)
(1.06308597078 -0.00449517956762 -5.78359732395e-14)
(1.06372622706 -0.00457534744068 -6.55138747679e-14)
(1.06257812057 -0.00462799231258 -7.53757279026e-14)
(1.05381285493 -0.00459360776894 -6.28841147866e-14)
(1.02522459939 -0.00436151931842 -5.93019587515e-14)
(0.95979140463 -0.00381145914845 -6.83283823968e-14)
(0.843738488541 -0.00291404137813 -5.97938511232e-14)
(0.677905350848 -0.00182301094145 -4.53022565405e-14)
(0.481936368159 -0.000847836763148 -3.04978000961e-14)
(0.282001679737 -0.000250609889818 -1.64137969982e-14)
(0.0922358211498 -1.51502860078e-05 -5.43468429269e-15)
(1.05842793217 -0.00024366975509 -1.16151837299e-12)
(1.05857363262 -0.000574950795904 -5.30939095012e-13)
(1.05886701535 -0.000893351361526 -3.28553095083e-13)
(1.0592670067 -0.00120030734965 -2.33556613346e-13)
(1.05974834717 -0.00147775754179 -1.95498710617e-13)
(1.06029068252 -0.00173282579775 -1.68037584686e-13)
(1.06087756024 -0.00196565402909 -1.46484422463e-13)
(1.06149533857 -0.00217814672693 -1.33464713841e-13)
(1.06213269199 -0.00237199414642 -1.22649946112e-13)
(1.06278021727 -0.00254880896931 -1.10427966151e-13)
(1.06343013431 -0.00271011452956 -1.07720353531e-13)
(1.06407604833 -0.00285732093666 -9.28227365072e-14)
(1.06471276434 -0.00299172143734 -9.94615112904e-14)
(1.06533613177 -0.00311449424514 -8.12369075798e-14)
(1.06594267414 -0.00322670565127 -8.93146303487e-14)
(1.06652871191 -0.00332930864233 -8.87697290525e-14)
(1.06709231275 -0.00342316379931 -9.33922250111e-14)
(1.06765084316 -0.00350922600931 -9.6732787702e-14)
(1.06826696459 -0.00358886255072 -8.62333658246e-14)
(1.06891761719 -0.00366254602562 -6.86785414595e-14)
(1.06871748736 -0.00372201325799 -7.47192741251e-14)
(1.06399936838 -0.00373281150062 -8.15677503709e-14)
(1.04595354646 -0.00361963221839 -7.11387586846e-14)
(1.00063377935 -0.00328533931337 -6.77319305793e-14)
(0.914301203835 -0.00268030981529 -6.9956961251e-14)
(0.782707132868 -0.00187993044494 -5.94357670965e-14)
(0.616615355128 -0.00108180844253 -4.4499828234e-14)
(0.435827272026 -0.000482599416163 -3.02651693339e-14)
(0.256146575609 -0.000143785645416 -1.68524709619e-14)
(0.0842632978184 -6.14198594886e-06 -5.52435402667e-15)
(1.06474587045 -0.000197206062119 -1.21840257039e-12)
(1.0648900113 -0.000467611537621 -5.90674723079e-13)
(1.06518000965 -0.000724234606053 -3.59805208796e-13)
(1.06557530173 -0.000975919693252 -2.59233874594e-13)
(1.0660507534 -0.00120431857199 -2.15921798431e-13)
(1.06658619147 -0.00141751724506 -1.85423507923e-13)
(1.06716536659 -0.00161431554012 -1.61666622725e-13)
(1.06777481165 -0.00179634200798 -1.47056119262e-13)
(1.06840337834 -0.00196465636814 -1.34438525998e-13)
(1.06904183038 -0.00212029431118 -1.22125719526e-13)
(1.06968254134 -0.00226422502429 -1.17597671347e-13)
(1.0703192552 -0.00239734024846 -1.03476903266e-13)
(1.07094690116 -0.00252046214574 -1.05547772858e-13)
(1.07156139638 -0.00263434840021 -9.13849618741e-14)
(1.07215912856 -0.00273969374137 -9.83042443356e-14)
(1.0727366204 -0.00283713082411 -9.90553914741e-14)
(1.07329674691 -0.00292729259094 -1.02668686435e-13)
(1.07387011591 -0.0030110378318 -1.04521920592e-13)
(1.07449074476 -0.00308925657033 -9.26927471725e-14)
(1.07482349861 -0.00315932899509 -7.88456184571e-14)
(1.07290785823 -0.00320389835871 -8.25338452912e-14)
(1.06302274992 -0.00317543381101 -8.68288199249e-14)
(1.03444213754 -0.00299767760182 -7.7478834726e-14)
(0.974077450575 -0.0026071590042 -7.33249539696e-14)
(0.873599807546 -0.00201914458692 -7.03200050248e-14)
(0.736132456891 -0.00135306342024 -5.81889914184e-14)
(0.57531950155 -0.000766747222509 -4.42298098795e-14)
(0.406517900378 -0.000351735282875 -3.01088562005e-14)
(0.239620384322 -0.000110220489695 -1.6934274863e-14)
(0.0791579676495 -6.39204509462e-06 -5.52770511788e-15)
(1.07071292256 -0.000182250438464 -1.25542085982e-12)
(1.07085484384 -0.000431555340986 -6.43091790608e-13)
(1.07113989367 -0.000667199481963 -3.84781407803e-13)
(1.07152853847 -0.000900166327073 -2.81868602608e-13)
(1.07199622013 -0.0011111064142 -2.338639367e-13)
(1.07252324909 -0.00130880200108 -2.00540735819e-13)
(1.07309374679 -0.00149118144685 -1.75068164753e-13)
(1.07369451147 -0.00166007350553 -1.59130592983e-13)
(1.07431459676 -0.001816295911 -1.45317566945e-13)
(1.07494490655 -0.00196077469803 -1.32487454917e-13)
(1.0755779079 -0.00209437627601 -1.2633506758e-13)
(1.07620740391 -0.00221790707555 -1.12868095175e-13)
(1.07682835342 -0.00233212069994 -1.1350626566e-13)
(1.07743661617 -0.00243771829129 -1.00346502276e-13)
(1.07802841478 -0.00253534619707 -1.05787886026e-13)
(1.07860139774 -0.00262560649626 -1.07423219656e-13)
(1.07916521946 -0.00270916385833 -1.10325941526e-13)
(1.07975232065 -0.00278688399496 -1.09842853758e-13)
(1.08028714196 -0.00285868032181 -9.87533307014e-14)
(1.07990280935 -0.00291748845903 -8.65762677482e-14)
(1.07532795854 -0.00293664917416 -9.05278158916e-14)
(1.05907252174 -0.00286134397475 -9.16875428281e-14)
(1.01982625489 -0.00262655615786 -8.21210750964e-14)
(0.947049668146 -0.0022067257497 -7.61231588184e-14)
(0.837663443022 -0.00165786847224 -7.02337790918e-14)
(0.698859263438 -0.00109803147606 -5.75135352498e-14)
(0.543610121468 -0.000631530373631 -4.33514525799e-14)
(0.383543974246 -0.000298897182458 -2.96801537516e-14)
(0.225958048592 -9.73167070386e-05 -1.67685997944e-14)
(0.0746015594963 -6.42882416438e-06 -5.46485970701e-15)
(1.0759495957 -0.000172815124874 -1.28212920044e-12)
(1.07609154283 -0.000409230254024 -6.91255597142e-13)
(1.07637607789 -0.000632417164104 -4.11800596286e-13)
(1.07676404591 -0.000853539046272 -3.02815385627e-13)
(1.07723094885 -0.00105266864617 -2.50486740303e-13)
(1.07775715958 -0.00123936847572 -2.14533034166e-13)
(1.07832683755 -0.00141100125131 -1.87505810937e-13)
(1.0789268015 -0.00156974451578 -1.70300583453e-13)
(1.07954612472 -0.00171627792774 -1.54321415757e-13)
(1.08017572077 -0.00185155915468 -1.42030404114e-13)
(1.08080806296 -0.00197644552196 -1.34635282173e-13)
(1.08143695949 -0.00209173237711 -1.22793004521e-13)
(1.08205736043 -0.00219815859197 -1.22905713007e-13)
(1.08266503649 -0.00229640585832 -1.08590547261e-13)
(1.08325627903 -0.00238709916819 -1.1206291958e-13)
(1.08383110622 -0.002470838059 -1.14884877807e-13)
(1.08440513937 -0.00254832474026 -1.17059644153e-13)
(1.08498564707 -0.00262021687426 -1.15310892645e-13)
(1.08527786607 -0.00268465336369 -1.04511682447e-13)
(1.08368408201 -0.00272918732143 -9.2547916632e-14)
(1.07557588234 -0.00271949627427 -9.59664571522e-14)
(1.05226247892 -0.00260041821877 -9.59713300479e-14)
(1.0030277588 -0.00232550494559 -8.59293174688e-14)
(0.92053252153 -0.00190125973868 -7.91390488813e-14)
(0.805715401379 -0.00140080392459 -7.10326369786e-14)
(0.667405337099 -0.00092222158964 -5.75314564429e-14)
(0.517039737871 -0.0005320425172 -4.22701656179e-14)
(0.363942451799 -0.000252202104042 -2.90733560886e-14)
(0.214073394778 -8.16355607424e-05 -1.66408006114e-14)
(0.0705802105691 -5.05295322168e-06 -5.74380772563e-15)
(1.08077082177 -0.000161520070645 -1.30005900084e-12)
(1.08091303875 -0.000382938293452 -7.35535007802e-13)
(1.08119769438 -0.000591560428663 -4.39948881989e-13)
(1.08158584968 -0.000798922486123 -3.22320422171e-13)
(1.08205295842 -0.000985052278863 -2.65921199526e-13)
(1.08257939122 -0.00116007817348 -2.27510969863e-13)
(1.0831492993 -0.00132079405182 -1.99082027746e-13)
(1.0837494943 -0.00146961868984 -1.80568509321e-13)
(1.08436904917 -0.00160700821722 -1.65239906328e-13)
(1.08499887515 -0.00173390324043 -1.50825526338e-13)
(1.08563144595 -0.00185108624247 -1.42577922974e-13)
(1.08626057095 -0.00195929304167 -1.33255944147e-13)
(1.08688117848 -0.00205920741242 -1.28192990772e-13)
(1.08748896767 -0.00215145969617 -1.16212957275e-13)
(1.08808071306 -0.00223663249288 -1.20578537887e-13)
(1.08865966786 -0.00231531343974 -1.21701334089e-13)
(1.08924129872 -0.00238818313039 -1.23197082229e-13)
(1.08976396495 -0.00245534946858 -1.20747725937e-13)
(1.08959270367 -0.00251240644245 -1.10045807319e-13)
(1.08626641026 -0.00254136399773 -9.88740998867e-14)
(1.07394344601 -0.00250317398183 -1.00716997386e-13)
(1.04340610336 -0.00234834677125 -9.96493241963e-14)
(0.985335440725 -0.00205100011357 -8.9038503806e-14)
(0.895494603522 -0.00163977449013 -8.12209168787e-14)
(0.777491121506 -0.00118932739965 -7.17573956242e-14)
(0.640506713651 -0.000776110101941 -5.72851452675e-14)
(0.494566264432 -0.000444649990859 -4.23245061934e-14)
(0.347484548361 -0.000208916842264 -2.89327886394e-14)
(0.204215963964 -6.67801124355e-05 -1.65417845549e-14)
(0.0673095562972 -3.93540355984e-06 -5.70563569714e-15)
(1.08536311763 -0.000151847431361 -1.31067219721e-12)
(1.08550530659 -0.000360188204624 -7.76052223047e-13)
(1.08578956064 -0.000556089813103 -4.58491506266e-13)
(1.08617719744 -0.000751384652525 -3.40434579469e-13)
(1.08664368991 -0.000926257279552 -2.803015603e-13)
(1.0871694646 -0.00109116967706 -2.39608557821e-13)
(1.08773870306 -0.00124242817073 -2.0988543533e-13)
(1.08833823972 -0.00138267436946 -1.90100705762e-13)
(1.08895716635 -0.00151215164303 -1.70807005605e-13)
(1.08958640505 -0.00163180493404 -1.59016859527e-13)
(1.09021843814 -0.00174234554001 -1.49933330027e-13)
(1.09084707756 -0.00184446312742 -1.39667145004e-13)
(1.09146722165 -0.00193879639164 -1.34649232581e-13)
(1.09207457466 -0.00202593414776 -1.23298002894e-13)
(1.09266690034 -0.00210642923237 -1.26455928535e-13)
(1.09325036143 -0.00218086468725 -1.28027168584e-13)
(1.0938271972 -0.00224981097629 -1.28755382113e-13)
(1.09420967153 -0.00231243823224 -1.26759137039e-13)
(1.09331022288 -0.00236124613904 -1.15250030609e-13)
(1.08775878108 -0.00237331791227 -1.04705106074e-13)
(1.07077596955 -0.00230819196856 -1.05601965214e-13)
(1.0332360466 -0.00212586924983 -1.02810914192e-13)
(0.967619595027 -0.00181901971675 -9.12846466526e-14)
(0.872325614672 -0.00142880036073 -8.18714842174e-14)
(0.752577785013 -0.00102383159175 -7.13615609041e-14)
(0.617350824431 -0.000663074372963 -5.69240868638e-14)
(0.475497682442 -0.000377930538275 -4.22343819117e-14)
(0.333679766691 -0.000177047013322 -2.88046767539e-14)
(0.196025373236 -5.66013067241e-05 -1.63780068523e-14)
(0.0646125682336 -3.40196073068e-06 -5.31052234148e-15)
(1.08973490107 -0.000144277493271 -1.31600175879e-12)
(1.08987707442 -0.00034225924636 -8.1353583542e-13)
(1.09016096895 -0.00052818173351 -4.81017583934e-13)
(1.09054813091 -0.000713899651299 -3.57497163189e-13)
(1.0910140586 -0.000879837416122 -2.93832056444e-13)
(1.09153923411 -0.00103664415629 -2.51001823897e-13)
(1.09210786479 -0.00118025808402 -2.2004812978e-13)
(1.09270680681 -0.00131353415283 -1.98980370386e-13)
(1.09332516872 -0.0014365287007 -1.7682034298e-13)
(1.09395388283 -0.00155021456935 -1.66652569893e-13)
(1.09458543937 -0.00165524302706 -1.57020614995e-13)
(1.09521364851 -0.00175227536052 -1.47442319326e-13)
(1.09583337918 -0.00184191747303 -1.4100671465e-13)
(1.09644048551 -0.0019247292007 -1.29988097347e-13)
(1.0970341405 -0.00200124775475 -1.32597205756e-13)
(1.09762105419 -0.00207204622127 -1.33687148202e-13)
(1.09816965362 -0.00213745155728 -1.33822373148e-13)
(1.09830128408 -0.0021953104957 -1.29678394426e-13)
(1.09638766505 -0.00223479196957 -1.20067067564e-13)
(1.08818757964 -0.00222924505023 -1.09789195383e-13)
(1.0663185446 -0.00213977825634 -1.09585946335e-13)
(1.02222489699 -0.00193746356738 -1.0547200327e-13)
(0.950280353372 -0.00162961020773 -9.31140424236e-14)
(0.850959911724 -0.00126269693329 -8.29627054297e-14)
(0.730392116422 -0.000896870114456 -7.17153323189e-14)
(0.597121142398 -0.000578032013465 -5.68621387552e-14)
(0.459009926623 -0.000328882494956 -4.21545510522e-14)
(0.32179369908 -0.000154237019362 -2.88250906269e-14)
(0.188966077699 -4.95048203886e-05 -1.6574574136e-14)
(0.0622754297032 -3.03638650897e-06 -5.54545459289e-15)
(1.09388964247 -0.000137811210356 -1.31742664969e-12)
(1.09403188271 -0.000326951445326 -8.48372220411e-13)
(1.09431560829 -0.000504435673509 -5.07153400278e-13)
(1.09470254821 -0.000681983004447 -3.73699581252e-13)
(1.09516821025 -0.0008403339125 -3.06711051689e-13)
(1.0956931143 -0.000990223817295 -2.61824735201e-13)
(1.0962614791 -0.00112731614094 -2.29683127848e-13)
(1.09686017371 -0.00125464534639 -2.07442933618e-13)
(1.0974783157 -0.00137209578975 -1.85197802984e-13)
(1.09810684243 -0.00148067491754 -1.73919339696e-13)
(1.09873824761 -0.00158097535963 -1.63791069027e-13)
(1.09936633305 -0.00167363743243 -1.54175926786e-13)
(1.09998595506 -0.00175923794142 -1.45404802915e-13)
(1.10059331304 -0.00183831397329 -1.36399167831e-13)
(1.10118905424 -0.00191139331198 -1.40155205097e-13)
(1.10177528666 -0.00197901030028 -1.39912785894e-13)
(1.10225909235 -0.00204107511282 -1.38846912845e-13)
(1.10200541762 -0.00209377938259 -1.33562923297e-13)
(1.09879131191 -0.00212305227543 -1.24930685309e-13)
(1.08760903008 -0.00210000323411 -1.1535523119e-13)
(1.06080854162 -0.00198959138357 -1.13194576204e-13)
(1.01072254913 -0.00177387241924 -1.07697098401e-13)
(0.933519989879 -0.00147061140987 -9.45288451137e-14)
(0.831236862339 -0.00112706405422 -8.30676030372e-14)
(0.710453451481 -0.000794917763519 -7.12056356482e-14)
(0.579202996753 -0.000510352730007 -5.62567271517e-14)
(0.444504585182 -0.000289936145471 -4.25572033083e-14)
(0.311352639834 -0.000135959222703 -2.89336121667e-14)
(0.182756069566 -4.36574451083e-05 -1.64782376966e-14)
(0.0602137103478 -2.67559015188e-06 -5.33453965998e-15)
(1.09785762964 -0.000132008269611 -1.31573931974e-12)
(1.09799995671 -0.000313215216495 -8.80690276617e-13)
(1.09828358406 -0.000483156261074 -5.2185711207e-13)
(1.09867039615 -0.00065335591965 -3.89080734272e-13)
(1.09913590593 -0.000804930910336 -3.18835611244e-13)
(1.09966066382 -0.000948622783759 -2.72138755607e-13)
(1.10022889482 -0.00107989210017 -2.38777229604e-13)
(1.10082747798 -0.0012019154445 -2.15523333427e-13)
(1.10144553654 -0.0013144221172 -1.93551517299e-13)
(1.10207401083 -0.00141845561371 -1.80819856422e-13)
(1.10270539524 -0.00151455053046 -1.70194839964e-13)
(1.10333347986 -0.00160333076588 -1.59836514813e-13)
(1.10395314936 -0.0016853456721 -1.50797333188e-13)
(1.1045611495 -0.00176111398624 -1.42310467211e-13)
(1.10515899457 -0.00183115387135 -1.45111699404e-13)
(1.10573577276 -0.00189591001754 -1.45223670056e-13)
(1.10610437192 -0.00195468276859 -1.43634410863e-13)
(1.10531401455 -0.002001776085 -1.39264830329e-13)
(1.10053074253 -0.00202025347984 -1.2945548132e-13)
(1.08612913393 -0.00198051606553 -1.19634712879e-13)
(1.05449010168 -0.00185283048591 -1.17262410337e-13)
(0.999011307362 -0.00162913027155 -1.09565411649e-13)
(0.917462780812 -0.00133400238516 -9.56066128734e-14)
(0.813018107497 -0.00101295084487 -8.33584404861e-14)
(0.692426329363 -0.000710092166778 -7.0812812939e-14)
(0.563194460061 -0.00045423948512 -5.61411628412e-14)
(0.431622271271 -0.000257540552456 -4.19744621199e-14)
(0.302104643279 -0.000120626042309 -2.86750374482e-14)
(0.177263108026 -3.86950532129e-05 -1.63524775581e-14)
(0.0583923202121 -2.36314864137e-06 -5.28475648719e-15)
(1.10166648399 -0.000126826191381 -1.31163315287e-12)
(1.10180889224 -0.000300927103607 -9.10874808158e-13)
(1.10209243493 -0.000464133291368 -5.36366181045e-13)
(1.10247913488 -0.000627737660001 -4.03840107227e-13)
(1.10294451209 -0.000773267074724 -3.31162886685e-13)
(1.10346914544 -0.00091140637573 -2.82052695285e-13)
(1.10403726536 -0.0010374733231 -2.47823689342e-13)
(1.1046357607 -0.00115475384165 -2.23256926805e-13)
(1.10525375949 -0.00126284194096 -2.00846881048e-13)
(1.10588220475 -0.00136281656474 -1.87854891549e-13)
(1.1065135899 -0.00145515662215 -1.76335086443e-13)
(1.10714169534 -0.00154047382514 -1.65440861097e-13)
(1.10776149926 -0.0016192922075 -1.5653650138e-13)
(1.10837042433 -0.00169211639861 -1.47746870715e-13)
(1.10896925537 -0.00175944861446 -1.49030570445e-13)
(1.10952225784 -0.00182157449925 -1.50137801199e-13)
(1.10971229155 -0.00187699472816 -1.4799578421e-13)
(1.10822501925 -0.00191801815188 -1.42491853569e-13)
(1.10163429762 -0.00192541953641 -1.33511575931e-13)
(1.08386717436 -0.00187026227327 -1.23556332164e-13)
(1.0475776931 -0.00172881654011 -1.19541696864e-13)
(0.987295900066 -0.00150130696192 -1.11335134158e-13)
(0.902165527367 -0.00121631604934 -9.64289993716e-14)
(0.796168107077 -0.000916360248932 -8.41835051387e-14)
(0.676045805158 -0.000639049954367 -7.04319861662e-14)
(0.54879456791 -0.000407513581812 -5.58895994563e-14)
(0.420097987374 -0.000230649321452 -4.15991644232e-14)
(0.293855550804 -0.000107942240094 -2.84310998796e-14)
(0.172370963843 -3.46188874207e-05 -1.6232099185e-14)
(0.0567716518697 -2.11728374496e-06 -5.24452747716e-15)
(1.1053333102 -0.000122214115658 -1.30574225915e-12)
(1.10547579949 -0.000289971884167 -9.39037273516e-13)
(1.1057592772 -0.000447191849147 -5.59955857442e-13)
(1.10614588895 -0.00060490239714 -4.17972511306e-13)
(1.10661116286 -0.000745056710637 -3.38396444894e-13)
(1.10713570348 -0.000878236624862 -2.91500925934e-13)
(1.10770374555 -0.000999667299742 -2.58213280708e-13)
(1.10830218701 -0.00111271529623 -2.30649586078e-13)
(1.10892015964 -0.00121685908298 -2.07775028266e-13)
(1.10954860863 -0.00131321053722 -1.95652163033e-13)
(1.11018002478 -0.00140219633516 -1.82171729717e-13)
(1.11080818739 -0.00148441957163 -1.70937966515e-13)
(1.11142824916 -0.00156038135827 -1.62053225814e-13)
(1.11203826854 -0.0016305754659 -1.52227187871e-13)
(1.11263544439 -0.0016954743141 -1.53079318656e-13)
(1.11314428128 -0.00175512072744 -1.53902797766e-13)
(1.11308136844 -0.00180704852903 -1.52061283785e-13)
(1.11073575248 -0.00184159276353 -1.46561655591e-13)
(1.10213685673 -0.00183792812472 -1.37206491305e-13)
(1.08093669403 -0.00176888185246 -1.2593503693e-13)
(1.04024362776 -0.00161682962373 -1.2256490748e-13)
(0.975711825104 -0.0013885979582 -1.12793138776e-13)
(0.887633724099 -0.00111471900476 -9.74324720673e-14)
(0.780548828981 -0.000834237421759 -8.4182283661e-14)
(0.661084117967 -0.00057925322233 -6.99738272296e-14)
(0.535753179709 -0.000368442734112 -5.59565883244e-14)
(0.409708275278 -0.00020827177732 -4.1503563469e-14)
(0.286434288948 -9.7431303756e-05 -2.83101772692e-14)
(0.167972615288 -3.12549322678e-05 -1.61591144083e-14)
(0.0553143155547 -1.91600277964e-06 -5.21664183576e-15)
(1.10887121216 -0.000118068126675 -1.29843917417e-12)
(1.10901378606 -0.000280113204402 -9.65171352808e-13)
(1.10929722384 -0.00043196303657 -5.71299655342e-13)
(1.10968377933 -0.000584360115784 -4.31469601516e-13)
(1.11014898868 -0.000719691023874 -3.49670957676e-13)
(1.11067347877 -0.000848401238089 -3.00585054915e-13)
(1.11124148725 -0.000965663946925 -2.62624091217e-13)
(1.11183991992 -0.00107490103275 -2.37727587344e-13)
(1.11245791117 -0.00117549378 -2.14346722041e-13)
(1.11308640742 -0.00126858298665 -1.98307088794e-13)
(1.11371789573 -0.00135454697081 -1.87759728071e-13)
(1.11434617099 -0.0014339827405 -1.76229655919e-13)
(1.11496664061 -0.00150737067421 -1.67237432731e-13)
(1.11557767036 -0.00157519484549 -1.58893669381e-13)
(1.11616856923 -0.00163787557738 -1.59966599119e-13)
(1.11660656961 -0.00169512023401 -1.58213399554e-13)
(1.11620779658 -0.0017433658828 -1.5592345603e-13)
(1.11284771611 -0.00177111022781 -1.49508993681e-13)
(1.10208019698 -0.00175664568196 -1.40568622193e-13)
(1.07744377653 -0.00167536198179 -1.29669558848e-13)
(1.03262566129 -0.00151543847443 -1.25210618285e-13)
(0.964348210523 -0.00128873229911 -1.14007537252e-13)
(0.873847136342 -0.00102631861012 -9.8345896703e-14)
(0.766032610721 -0.00076369387217 -8.40724828759e-14)
(0.647350914977 -0.000528310691996 -7.09947076828e-14)
(0.523867577267 -0.000335319719518 -5.5876215345e-14)
(0.400274433303 -0.000189347397508 -4.14166929958e-14)
(0.279706563595 -8.85460331894e-05 -2.82317029831e-14)
(0.163986914245 -2.8406162192e-05 -1.61175850784e-14)
(0.0539934630922 -1.74294913786e-06 -5.20065354221e-15)
(1.11229233979 -0.000114302712408 -1.29007046817e-12)
(1.11243499947 -0.000271152002379 -9.8964903164e-13)
(1.11271841612 -0.00041813266218 -5.84446807317e-13)
(1.11310493924 -0.000565691586421 -4.44468259833e-13)
(1.11357011314 -0.000696649631556 -3.60742160674e-13)
(1.11409458422 -0.000821291807334 -3.09374239641e-13)
(1.11466259213 -0.000934771656506 -2.70751626399e-13)
(1.11526104955 -0.00104054453339 -2.44556145856e-13)
(1.11587909257 -0.00113791120003 -2.20729520499e-13)
(1.116507668 -0.0012280365593 -2.0473943101e-13)
(1.11713925956 -0.00131125464675 -1.93180196667e-13)
(1.11776770282 -0.00138815804485 -1.81345129758e-13)
(1.11838871386 -0.00145920832068 -1.72220164792e-13)
(1.11900023138 -0.00152487833021 -1.63594299331e-13)
(1.11957784083 -0.00158550587261 -1.63786091719e-13)
(1.11991220621 -0.00164036810822 -1.62664145607e-13)
(1.11908891665 -0.00168472210046 -1.59679863236e-13)
(1.11456863287 -0.0017054559278 -1.5292481358e-13)
(1.10151180821 -0.00168066209862 -1.43748792217e-13)
(1.07348615746 -0.00158880293125 -1.32499124401e-13)
(1.02483420782 -0.00142332053491 -1.2636873735e-13)
(0.953263787897 -0.0011997480322 -1.15124577215e-13)
(0.860774377914 -0.000948775325182 -9.89379775923e-14)
(0.752507284378 -0.000702482492299 -8.41701855632e-14)
(0.634690330814 -0.000484403751773 -7.05884287876e-14)
(0.512976834443 -0.000306873650872 -5.56006279737e-14)
(0.391657828173 -0.000173116553103 -4.12519702693e-14)
(0.273570578082 -8.09234245274e-05 -2.81336148511e-14)
(0.160353640769 -2.5958774284e-05 -1.60725758846e-14)
(0.0527895213531 -1.59339839879e-06 -5.18489640916e-15)
(1.11560738288 -0.000110863920648 -1.28097536416e-12)
(1.11575012735 -0.000262961341807 -1.01249860256e-12)
(1.11603353558 -0.000405500631487 -6.0858671286e-13)
(1.11642004227 -0.000548630110115 -4.57004366968e-13)
(1.11688520027 -0.000675600669745 -3.70592331631e-13)
(1.11740967329 -0.000796519759989 -3.17832258711e-13)
(1.11797770254 -0.00090654697919 -2.7708369346e-13)
(1.11857620681 -0.00100915277533 -2.51132215387e-13)
(1.11919432329 -0.00110357233236 -2.26887751479e-13)
(1.11982299849 -0.00119098963378 -2.1077597107e-13)
(1.12045471542 -0.00127169865066 -1.98421183576e-13)
(1.1210833819 -0.00134628863766 -1.86300881934e-13)
(1.12170501649 -0.00141520398952 -1.7705043086e-13)
(1.12231588111 -0.00147890178131 -1.68498795894e-13)
(1.12287050424 -0.00153759991877 -1.70391026023e-13)
(1.12306280892 -0.00159005530689 -1.65540814017e-13)
(1.12172342565 -0.00163031221616 -1.63303412209e-13)
(1.11591114538 -0.00164393979515 -1.57048485425e-13)
(1.10048139731 -0.00160943440886 -1.46843638011e-13)
(1.06915107319 -0.00150859335989 -1.35340330803e-13)
(1.01695626348 -0.00133946578021 -1.28228775526e-13)
(0.942495139322 -0.00112014702985 -1.16120603033e-13)
(0.848378093826 -0.000880353831058 -9.94679854499e-14)
(0.739874046213 -0.00064898007831 -8.52277069109e-14)
(0.6229727715 -0.000446252021382 -7.11930286311e-14)
(0.502950437573 -0.00028223735036 -5.56056123413e-14)
(0.383747364864 -0.00015908179721 -4.1183085428e-14)
(0.267944897359 -7.4336545103e-05 -2.8075860645e-14)
(0.157024206416 -2.38446573402e-05 -1.60448952977e-14)
(0.0516863975742 -1.46443828768e-06 -5.17448971266e-15)
(1.11882533462 -0.000107710199169 -1.271315868e-12)
(1.11896816242 -0.000255444016508 -1.03377792713e-12)
(1.11925157258 -0.000393914673432 -6.22965166706e-13)
(1.11963807572 -0.000532972852052 -4.69085745381e-13)
(1.12010323363 -0.000656291527857 -3.8053181503e-13)
(1.12062772548 -0.000773789079977 -3.26001926358e-13)