0 	0.000948515856787 	1.23331521012 	3.73232667757e-20 	2.4746645876e-22 	0 	0 	0
0.0001001001001 	0.000942249438522 	1.23331060946 	2.55248568146e-07 	4.06882146409e-18 	0 	0 	0
0.0002002002002 	0.000935983020256 	1.23330600879 	5.10497136291e-07 	8.18242528514e-18 	0 	0 	0
0.0003003003003 	0.000929716601991 	1.23330140812 	7.65745704436e-07 	1.2339173754e-17 	0 	0 	0
0.0004004004004 	0.000923450183726 	1.23329680745 	1.02099427258e-06 	1.64955377885e-17 	0 	0 	0
0.000500500500501 	0.00091718376546 	1.23329220679 	1.27624284073e-06 	2.05662995455e-17 	0 	0 	0
0.000600600600601 	0.000911366168373 	1.23328143907 	1.55312474547e-06 	2.30773766656e-17 	0 	0 	0
0.000700700700701 	0.000906221810306 	1.23326142067 	1.86245700468e-06 	2.30351337925e-17 	0 	0 	0
0.000800800800801 	0.000901077452238 	1.23324140227 	2.17178926388e-06 	2.29498125938e-17 	0 	0 	0
0.000900900900901 	0.000895933094171 	1.23322138388 	2.48112152308e-06 	2.30790769353e-17 	0 	0 	0
0.001001001001 	0.000890788736103 	1.23320136548 	2.79045378228e-06 	2.29937549095e-17 	0 	0 	0
0.0011011011011 	0.000885644378036 	1.23318134709 	3.09978604148e-06 	2.31229423232e-17 	0 	0 	0
0.0012012012012 	0.000880500019969 	1.23316132869 	3.40911830068e-06 	2.29090416886e-17 	0 	0 	0
0.0013013013013 	0.000875355661901 	1.23314131029 	3.71845055989e-06 	2.31668639594e-17 	0 	0 	0
0.0014014014014 	0.000870211303834 	1.2331212919 	4.02778281909e-06 	2.3038763461e-17 	0 	0 	0
0.0015015015015 	0.000865066945766 	1.2331012735 	4.33711507829e-06 	2.29964449009e-17 	0 	0 	0
0.0016016016016 	0.000859922587699 	1.23308125511 	4.64644733749e-06 	2.29540270791e-17 	0 	0 	0
0.0017017017017 	0.000854778229631 	1.23306123671 	4.95577959669e-06 	2.31261435122e-17 	0 	0 	0
0.0018018018018 	0.000849633871564 	1.23304121831 	5.26511185589e-06 	2.29980496313e-17 	0 	0 	0
0.0019019019019 	0.000844489513496 	1.23302119992 	5.57444411509e-06 	2.3084255086e-17 	0 	0 	0
0.002002002002 	0.000839345155429 	1.23300118152 	5.8837763743e-06 	2.29990621003e-17 	0 	0 	0
0.0021021021021 	0.000834200797361 	1.23298116312 	6.1931086335e-06 	2.30853204946e-17 	0 	0 	0
0.0022022022022 	0.000829056439294 	1.23296114473 	6.5024408927e-06 	2.30858035681e-17 	0 	0 	0
0.0023023023023 	0.000823912081226 	1.23294112633 	6.8117731519e-06 	2.30006569045e-17 	0 	0 	0
0.0024024024024 	0.000818767723159 	1.23292110794 	7.1211054111e-06 	2.30439945512e-17 	0 	0 	0
0.0025025025025 	0.000813623365092 	1.23290108954 	7.4304376703e-06 	2.30446298259e-17 	0 	0 	0
0.0026026026026 	0.000808479007024 	1.23288107114 	7.73976992951e-06 	2.30880402645e-17 	0 	0 	0
0.0027027027027 	0.000803334648957 	1.23286105275 	8.04910218871e-06 	2.29597941823e-17 	0 	0 	0
0.0028028028028 	0.000798190290889 	1.23284103435 	8.35843444791e-06 	2.30890461161e-17 	0 	0 	0
0.0029029029029 	0.000793045932822 	1.23282101596 	8.66776670711e-06 	2.30467209385e-17 	0 	0 	0
0.003003003003 	0.000787901574754 	1.23280099756 	8.97709896631e-06 	2.30471973945e-17 	0 	0 	0
0.0031031031031 	0.000782757216687 	1.23278097916 	9.28643122551e-06 	2.30478061995e-17 	0 	0 	0
0.0032032032032 	0.000777612858619 	1.23276096077 	9.59576348472e-06 	2.30910842891e-17 	0 	0 	0
0.0033033033033 	0.000772468500552 	1.23274094237 	9.90509574392e-06 	2.29630367303e-17 	0 	0 	0
0.0034034034034 	0.000767324142484 	1.23272092397 	1.02144280031e-05 	2.30922092547e-17 	0 	0 	0
0.0035035035035 	0.000762179784417 	1.23270090558 	1.05237602623e-05 	2.30498576074e-17 	0 	0 	0
0.0036036036036 	0.00075703542635 	1.23268088718 	1.08330925215e-05 	2.30931886366e-17 	0 	0 	0
0.0037037037037 	0.000751891068282 	1.23266086879 	1.11424247807e-05 	2.30080088858e-17 	0 	0 	0
0.0038038038038 	0.000746746710215 	1.23264085039 	1.14517570399e-05 	2.30942606627e-17 	0 	0 	0
0.0039039039039 	0.000741602352147 	1.23262083199 	1.17610892991e-05 	2.29661998689e-17 	0 	0 	0
0.004004004004 	0.00073645799408 	1.2326008136 	1.20704215583e-05 	2.31382269666e-17 	0 	0 	0
0.0041041041041 	0.000731313636012 	1.2325807952 	1.23797538175e-05 	2.30529810414e-17 	0 	0 	0
0.0042042042042 	0.000726169277945 	1.2325607768 	1.26890860767e-05 	2.29677615859e-17 	0 	0 	0
0.0043043043043 	0.000721024919877 	1.23254075841 	1.29984183359e-05 	2.30968811708e-17 	0 	0 	0
0.0044044044044 	0.00071588056181 	1.23252074001 	1.33077505951e-05 	2.30973840967e-17 	0 	0 	0
0.0045045045045 	0.000710736203742 	1.23250072162 	1.36170828543e-05 	2.30550589191e-17 	0 	0 	0
0.0046046046046 	0.000705591845675 	1.23248070322 	1.39264151135e-05 	2.30127337415e-17 	0 	0 	0
0.0047047047047 	0.000700447487608 	1.23246068482 	1.42357473727e-05 	2.3013276372e-17 	0 	0 	0
0.0048048048048 	0.00069530312954 	1.23244066643 	1.45450796319e-05 	2.30995678535e-17 	0 	0 	0
0.0049049049049 	0.000690158771473 	1.23242064803 	1.48544118911e-05 	2.30571897363e-17 	0 	0 	0
0.00500500500501 	0.000685014413405 	1.23240062964 	1.51637441503e-05 	2.30577191319e-17 	0 	0 	0
0.00510510510511 	0.000679870055338 	1.23238061124 	1.54730764095e-05 	2.30583014671e-17 	0 	0 	0
0.00520520520521 	0.00067472569727 	1.23236059284 	1.57824086687e-05 	2.31016854358e-17 	0 	0 	0
0.00530530530531 	0.000669581339203 	1.23234057445 	1.6091740928e-05 	2.30592543791e-17 	0 	0 	0
0.00540540540541 	0.000664436981135 	1.23232055605 	1.64010731872e-05 	2.2973995219e-17 	0 	0 	0
0.00550550550551 	0.000659292623068 	1.23230053765 	1.67104054464e-05 	2.31032471528e-17 	0 	0 	0
0.00560560560561 	0.000654148265 	1.23228051926 	1.70197377056e-05 	2.31037236089e-17 	0 	0 	0
0.00570570570571 	0.000649003906933 	1.23226050086 	1.73290699648e-05 	2.30613719615e-17 	0 	0 	0
0.00580580580581 	0.000643859548866 	1.23224048247 	1.7638402224e-05 	2.30189938444e-17 	0 	0 	0
0.00590590590591 	0.000638715190798 	1.23222046407 	1.79477344832e-05 	2.30624572225e-17 	0 	0 	0
0.00600600600601 	0.000633570832731 	1.23220044567 	1.82570667424e-05 	2.30629601483e-17 	0 	0 	0
0.00610610610611 	0.000628426474663 	1.23218042728 	1.85663990016e-05 	2.30634895439e-17 	0 	0 	0
0.00620620620621 	0.000623282116596 	1.23216040888 	1.88757312608e-05 	2.31498339649e-17 	0 	0 	0
0.00630630630631 	0.000618137758528 	1.23214039049 	1.918506352e-05 	2.30216937619e-17 	0 	0 	0
0.00640640640641 	0.000612993400461 	1.23212037209 	1.94943957792e-05 	2.306515714e-17 	0 	0 	0
0.00650650650651 	0.000607849042393 	1.23210035369 	1.98037280384e-05 	2.30227260833e-17 	0 	0 	0
0.00660660660661 	0.000602704684326 	1.2320803353 	2.01130602976e-05 	2.30661365218e-17 	0 	0 	0
0.00670670670671 	0.000597560326259 	1.2320603169 	2.04223925568e-05 	2.30666923872e-17 	0 	0 	0
0.00680680680681 	0.000592415968191 	1.2320402985 	2.0731724816e-05 	2.31100498862e-17 	0 	0 	0
0.00690690690691 	0.000587271610123 	1.23202028011 	2.10410570752e-05 	2.30677247086e-17 	0 	0 	0
0.00700700700701 	0.000582127252056 	1.23200026171 	2.13503893344e-05 	2.3068280574e-17 	0 	0 	0
0.00710710710711 	0.000576982893989 	1.23198024332 	2.16597215936e-05 	2.306875703e-17 	0 	0 	0
0.00720720720721 	0.000571838535921 	1.23196022492 	2.19690538528e-05 	2.30692864256e-17 	0 	0 	0
0.00730730730731 	0.000566694177854 	1.23194020652 	2.2278386112e-05 	2.30698687608e-17 	0 	0 	0
0.00740740740741 	0.000561549819786 	1.23192018813 	2.25877183712e-05 	2.30703452168e-17 	0 	0 	0
0.00750750750751 	0.000556405461719 	1.23190016973 	2.28970506304e-05 	2.30708746124e-17 	0 	0 	0
0.00760760760761 	0.000551261103651 	1.23188015133 	2.32063828896e-05 	2.3071404008e-17 	0 	0 	0
0.00770770770771 	0.000546116745584 	1.23186013294 	2.35157151488e-05 	2.29861713177e-17 	0 	0 	0
0.00780780780781 	0.000540972387516 	1.23184011454 	2.3825047408e-05 	2.30724363294e-17 	0 	0 	0
0.00790790790791 	0.000535828029449 	1.23182009615 	2.41343796672e-05 	2.31587807504e-17 	0 	0 	0
0.00800800800801 	0.000530683671382 	1.23180007775 	2.44437119264e-05 	2.30306405474e-17 	0 	0 	0
0.00810810810811 	0.000525539313314 	1.23178005935 	2.47530441856e-05 	2.30740774557e-17 	0 	0 	0
0.00820820820821 	0.000528356299162 	1.23172942502 	2.53093592334e-05 	2.80071646391e-09 	0 	0 	0
0.00830830830831 	0.000533164087329 	1.23167113491 	2.59274344455e-05 	6.30177606846e-09 	0 	0 	0
0.00840840840841 	0.000537971875497 	1.23161284479 	2.65455096576e-05 	9.80283567306e-09 	0 	0 	0
0.00850850850851 	0.000534830891798 	1.23155369471 	2.68181818265e-05 	7.51689755517e-09 	0 	0 	0
0.00860860860861 	0.00053168959984 	1.23149454459 	2.70908406004e-05 	5.23073501339e-09 	0 	0 	0
0.00870870870871 	0.000528548307882 	1.23143539447 	2.73634993744e-05 	2.94457247139e-09 	0 	0 	0
0.00880880880881 	0.000525407015924 	1.23137624435 	2.76361581483e-05 	6.58409929632e-10 	0 	0 	0
0.00890890890891 	0.000524652376366 	1.23130039785 	2.7956262412e-05 	3.72384462267e-10 	0 	0 	0
0.00900900900901 	0.000524863114157 	1.23121779782 	2.82955579081e-05 	8.95394707981e-10 	0 	0 	0
0.00910910910911 	0.000525073851947 	1.2311351978 	2.86348534042e-05 	1.41840495369e-09 	0 	0 	0
0.00920920920921 	0.000525284589738 	1.23105259778 	2.89741489003e-05 	1.94141519941e-09 	0 	0 	0
0.00930930930931 	0.000525495327528 	1.23096999775 	2.93134443964e-05 	2.46442544512e-09 	0 	0 	0
0.00940940940941 	0.000525706065319 	1.23088739773 	2.96527398925e-05 	2.98743569084e-09 	0 	0 	0
0.00950950950951 	0.000525916803109 	1.23080479771 	2.99920353886e-05 	3.51044593655e-09 	0 	0 	0
0.00960960960961 	0.0005261275409 	1.23072219768 	3.03313308847e-05 	4.03345618227e-09 	0 	0 	0
0.00970970970971 	0.00052633827869 	1.23063959766 	3.06706263808e-05 	4.55646642802e-09 	0 	0 	0
0.00980980980981 	0.000526549016481 	1.23055699763 	3.1009921877e-05 	5.07947667369e-09 	0 	0 	0
0.00990990990991 	0.000526759754271 	1.23047439761 	3.13492173731e-05 	5.60248691937e-09 	0 	0 	0
0.01001001001 	0.000526970492062 	1.23039179759 	3.16885128692e-05 	6.12549716517e-09 	0 	0 	0
0.0101101101101 	0.000527181229852 	1.23030919756 	3.20278083653e-05 	6.64850741084e-09 	0 	0 	0
0.0102102102102 	0.000527391967643 	1.23022659754 	3.23671038614e-05 	7.17151765651e-09 	0 	0 	0
0.0103103103103 	0.000527602705434 	1.23014399752 	3.27063993575e-05 	7.69452790222e-09 	0 	0 	0
0.0104104104104 	0.000527813443224 	1.23006139749 	3.30456948536e-05 	8.21753814807e-09 	0 	0 	0
0.0105105105105 	0.000528024181015 	1.22997879747 	3.33849903497e-05 	8.74054839361e-09 	0 	0 	0
0.0106106106106 	0.000528234918805 	1.22989619744 	3.37242858458e-05 	9.26355863945e-09 	0 	0 	0
0.0107107107107 	0.000528445656596 	1.22981359742 	3.4063581342e-05 	9.78656888516e-09 	0 	0 	0
0.0108108108108 	0.000528656394386 	1.2297309974 	3.44028768381e-05 	1.03095791307e-08 	0 	0 	0
0.0109109109109 	0.000528867132177 	1.22964839737 	3.47421723342e-05 	1.08325893766e-08 	0 	0 	0
0.011011011011 	0.000529077869967 	1.22956579735 	3.50814678303e-05 	1.13555996222e-08 	0 	0 	0
0.0111111111111 	0.000529288607758 	1.22948319733 	3.54207633264e-05 	1.1878609868e-08 	0 	0 	0
0.0112112112112 	0.000529499345548 	1.2294005973 	3.57600588225e-05 	1.24016201137e-08 	0 	0 	0
0.0113113113113 	0.000529710083339 	1.22931799728 	3.60993543186e-05 	1.22666199751e-08 	0 	0 	0
0.0114114114114 	0.00052992082113 	1.22923539725 	3.64386498147e-05 	1.19947386166e-08 	0 	0 	0
0.0115115115115 	0.00053013155892 	1.22915279723 	3.67779453108e-05 	1.17228572583e-08 	0 	0 	0
0.0116116116116 	0.000530342296711 	1.22907019721 	3.7117240807e-05 	1.14509759e-08 	0 	0 	0
0.0117117117117 	0.000530553034501 	1.22898759718 	3.74565363031e-05 	1.11790945416e-08 	0 	0 	0
0.0118118118118 	0.000530763772292 	1.22890499716 	3.77958317992e-05 	1.09072131832e-08 	0 	0 	0
0.0119119119119 	0.000530974510082 	1.22882239714 	3.81351272953e-05 	1.06353318249e-08 	0 	0 	0
0.012012012012 	0.000531185247873 	1.22873979711 	3.84744227914e-05 	1.03634504665e-08 	0 	0 	0
0.0121121121121 	0.000531395985664 	1.22865719709 	3.88137182875e-05 	1.00915691081e-08 	0 	0 	0
0.0122122122122 	0.000531606723454 	1.22857459706 	3.91530137836e-05 	9.81968774975e-09 	0 	0 	0
0.0123123123123 	0.000531817461245 	1.22849199704 	3.94923092797e-05 	9.54780639138e-09 	0 	0 	0
0.0124124124124 	0.000532028199035 	1.22840939702 	3.98316047758e-05 	9.27592503301e-09 	0 	0 	0
0.0125125125125 	0.000532238936826 	1.22832679699 	4.0170900272e-05 	9.00404367464e-09 	0 	0 	0
0.0126126126126 	0.000532449674616 	1.22824419697 	4.05101957681e-05 	8.73216231623e-09 	0 	0 	0
0.0127127127127 	0.000532660412407 	1.22816159695 	4.08494912642e-05 	8.46028095799e-09 	0 	0 	0
0.0128128128128 	0.000532871150197 	1.22807899692 	4.11887867603e-05 	8.18839959944e-09 	0 	0 	0
0.0129129129129 	0.000533081887988 	1.2279963969 	4.15280822564e-05 	7.91651824125e-09 	0 	0 	0
0.013013013013 	0.000533292625779 	1.22791379687 	4.18673777525e-05 	7.64463688279e-09 	0 	0 	0
0.0131131131131 	0.000533503363569 	1.22783119685 	4.22066732486e-05 	7.37275552442e-09 	0 	0 	0
0.0132132132132 	0.00053371410136 	1.22774859683 	4.25459687447e-05 	7.10087416605e-09 	0 	0 	0
0.0133133133133 	0.00053392483915 	1.2276659968 	4.28852642408e-05 	6.82899280759e-09 	0 	0 	0
0.0134134134134 	0.000534135576941 	1.22758339678 	4.3224559737e-05 	6.55711144935e-09 	0 	0 	0
0.0135135135135 	0.000534346314731 	1.22750079676 	4.35638552331e-05 	6.28523009098e-09 	0 	0 	0
0.0136136136136 	0.000534557052522 	1.22741819673 	4.39031507292e-05 	6.01334873248e-09 	0 	0 	0
0.0137137137137 	0.000534767790312 	1.22733559671 	4.42424462253e-05 	5.74146737429e-09 	0 	0 	0
0.0138138138138 	0.000534978528103 	1.22725299668 	4.45817417214e-05 	5.46958601574e-09 	0 	0 	0
0.0139139139139 	0.000535189265893 	1.22717039666 	4.49210372175e-05 	5.1977046575e-09 	0 	0 	0
0.014014014014 	0.000535400003684 	1.22708779664 	4.52603327136e-05 	4.92582329908e-09 	0 	0 	0
0.0141141141141 	0.000535610741474 	1.22700519661 	4.55996282097e-05 	4.65394194071e-09 	0 	0 	0
0.0142142142142 	0.000535821479265 	1.22692259659 	4.59389237058e-05 	4.3820605823e-09 	0 	0 	0
0.0143143143143 	0.000536032217056 	1.22683999657 	4.6278219202e-05 	4.11017922402e-09 	0 	0 	0
0.0144144144144 	0.000536242954846 	1.22675739654 	4.66175146981e-05 	3.8382978656e-09 	0 	0 	0
0.0145145145145 	0.000536453692637 	1.22667479652 	4.69568101942e-05 	3.56641650723e-09 	0 	0 	0
0.0146146146146 	0.000536664430427 	1.22659219649 	4.72961056903e-05 	3.29453514895e-09 	0 	0 	0
0.0147147147147 	0.000536875168218 	1.22650959647 	4.76354011864e-05 	3.0226537904e-09 	0 	0 	0
0.0148148148148 	0.000537085906008 	1.22642699645 	4.79746966825e-05 	2.75077243212e-09 	0 	0 	0
0.0149149149149 	0.000537296643799 	1.22634439642 	4.83139921786e-05 	2.47889107375e-09 	0 	0 	0
0.015015015015 	0.000537507381589 	1.2262617964 	4.86532876747e-05 	2.20700971538e-09 	0 	0 	0
0.0151151151151 	0.00053771811938 	1.22617919637 	4.89925831708e-05 	1.93512835701e-09 	0 	0 	0
0.0152152152152 	0.000537928857171 	1.22609659635 	4.9331878667e-05 	1.66324699864e-09 	0 	0 	0
0.0153153153153 	0.000538139594961 	1.22601399633 	4.96711741631e-05 	1.39136564027e-09 	0 	0 	0
0.0154154154154 	0.000538350332752 	1.2259313963 	5.00104696592e-05 	1.1194842819e-09 	0 	0 	0
0.0155155155155 	0.000538561070542 	1.22584879628 	5.03497651553e-05 	8.47602923529e-10 	0 	0 	0
0.0156156156156 	0.000538771808333 	1.22576619626 	5.06890606514e-05 	5.75721565158e-10 	0 	0 	0
0.0157157157157 	0.000538982546123 	1.22568359623 	5.10283561475e-05 	3.03840206788e-10 	0 	0 	0
0.0158158158158 	0.000539193283914 	1.22560099621 	5.13676516436e-05 	3.19588484174e-11 	0 	0 	0
0.0159159159159 	0.000542848654352 	1.22549531812 	5.18156903156e-05 	3.12241956676e-09 	0 	0 	0
0.016016016016 	0.000546962865989 	1.22538656591 	5.22782140879e-05 	6.66075999537e-09 	0 	0 	0
0.0161161161161 	0.000551077077627 	1.22527781371 	5.27407378602e-05 	1.0199100424e-08 	0 	0 	0
0.0162162162162 	0.000551977486612 	1.2251660961 	5.30431109506e-05 	1.0951033241e-08 	0 	0 	0
0.0163163163163 	0.000548283121042 	1.22505013884 	5.3116516566e-05 	7.71923831447e-09 	0 	0 	0
0.0164164164164 	0.000544588755472 	1.22493418158 	5.31899221814e-05 	4.48744338786e-09 	0 	0 	0
0.0165165165165 	0.000540894389902 	1.22481822432 	5.32633277968e-05 	1.25564846108e-09 	0 	0 	0
0.0166166166166 	0.000539346439931 	1.22469028438 	5.34401451066e-05 	-8.66604775869e-10 	0 	0 	0
0.0167167167167 	0.00053916232779 	1.22455473061 	5.3682670465e-05 	-2.28385245326e-09 	0 	0 	0
0.0168168168168 	0.00053897821565 	1.22441917684 	5.39251958235e-05 	-3.70110013065e-09 	0 	0 	0
0.0169169169169 	0.000538794103509 	1.22428362307 	5.4167721182e-05 	-5.11834780803e-09 	0 	0 	0
0.017017017017 	0.000538609991369 	1.2241480693 	5.44102465404e-05 	-6.53559548547e-09 	0 	0 	0
0.0171171171171 	0.000538425879228 	1.22401251553 	5.46527718989e-05 	-7.95284316281e-09 	0 	0 	0
0.0172172172172 	0.000538241767087 	1.22387696177 	5.48952972574e-05 	-9.3700908402e-09 	0 	0 	0
0.0173173173173 	0.000538057654947 	1.223741408 	5.51378226158e-05 	-1.07873385175e-08 	0 	0 	0
0.0174174174174 	0.000537873542806 	1.22360585423 	5.53803479743e-05 	-1.2204586195e-08 	0 	0 	0
0.0175175175175 	0.000537689430665 	1.22347030046 	5.56228733327e-05 	-1.36218338724e-08 	0 	0 	0
0.0176176176176 	0.000537505318525 	1.22333474669 	5.58653986912e-05 	-1.50390815498e-08 	0 	0 	0
0.0177177177177 	0.000537321206384 	1.22319919292 	5.61079240497e-05 	-1.64563292271e-08 	0 	0 	0
0.0178178178178 	0.000537137094243 	1.22306363915 	5.63504494081e-05 	-1.78735769045e-08 	0 	0 	0
0.0179179179179 	0.000536952982103 	1.22292808538 	5.65929747666e-05 	-1.92908245819e-08 	0 	0 	0
0.018018018018 	0.000536768869962 	1.22279253161 	5.68355001251e-05 	-2.07080722593e-08 	0 	0 	0
0.0181181181181 	0.000536584757822 	1.22265697784 	5.70780254835e-05 	-2.21253199367e-08 	0 	0 	0
0.0182182182182 	0.000536400645681 	1.22252142407 	5.7320550842e-05 	-2.35425676141e-08 	0 	0 	0
0.0183183183183 	0.00053621653354 	1.2223858703 	5.75630762004e-05 	-2.49598152915e-08 	0 	0 	0
0.0184184184184 	0.0005360324214 	1.22225031653 	5.78056015589e-05 	-2.63770629689e-08 	0 	0 	0
0.0185185185185 	0.000535848309259 	1.22211476276 	5.80481269174e-05 	-2.77943106462e-08 	0 	0 	0
0.0186186186186 	0.000535664197118 	1.221979209 	5.82906522758e-05 	-2.92115583236e-08 	0 	0 	0
0.0187187187187 	0.000535480084978 	1.22184365523 	5.85331776343e-05 	-3.0628806001e-08 	0 	0 	0
0.0188188188188 	0.000535295972837 	1.22170810146 	5.87757029928e-05 	-3.20460536785e-08 	0 	0 	0
0.0189189189189 	0.000535111860696 	1.22157254769 	5.90182283512e-05 	-3.34633013558e-08 	0 	0 	0
0.019019019019 	0.000534927748556 	1.22143699392 	5.92607537097e-05 	-3.48805490332e-08 	0 	0 	0
0.0191191191191 	0.000534743636415 	1.22130144015 	5.95032790681e-05 	-3.62977967106e-08 	0 	0 	0
0.0192192192192 	0.000534559524275 	1.22116588638 	5.97458044266e-05 	-3.71987296157e-08 	0 	0 	0
0.0193193193193 	0.000534375412134 	1.22103033261 	5.99883297851e-05 	-3.62169232021e-08 	0 	0 	0
0.0194194194194 	0.000534191299993 	1.22089477884 	6.02308551435e-05 	-3.52351167886e-08 	0 	0 	0
0.0195195195195 	0.000534007187853 	1.22075922507 	6.0473380502e-05 	-3.42533103751e-08 	0 	0 	0
0.0196196196196 	0.000533823075712 	1.2206236713 	6.07159058605e-05 	-3.32715039615e-08 	0 	0 	0
0.0197197197197 	0.000533638963572 	1.22048811753 	6.09584312189e-05 	-3.22896975481e-08 	0 	0 	0
0.0198198198198 	0.000533454851431 	1.22035256376 	6.12009565774e-05 	-3.13078911345e-08 	0 	0 	0
0.0199199199199 	0.00053327073929 	1.22021700999 	6.14434819359e-05 	-3.03260847211e-08 	0 	0 	0
0.02002002002 	0.000533086627149 	1.22008145622 	6.16860072943e-05 	-2.93442783074e-08 	0 	0 	0
0.0201201201201 	0.000532902515009 	1.21994590246 	6.19285326528e-05 	-2.83624718941e-08 	0 	0 	0
0.0202202202202 	0.000532718402868 	1.21981034869 	6.21710580112e-05 	-2.73806654804e-08 	0 	0 	0
0.0203203203203 	0.000532534290728 	1.21967479492 	6.24135833697e-05 	-2.6398859067e-08 	0 	0 	0
0.0204204204204 	0.000532350178587 	1.21953924115 	6.26561087282e-05 	-2.54170526534e-08 	0 	0 	0
0.0205205205205 	0.000532166066446 	1.21940368738 	6.28986340866e-05 	-2.44352462399e-08 	0 	0 	0
0.0206206206206 	0.000531981954306 	1.21926813361 	6.31411594451e-05 	-2.34534398264e-08 	0 	0 	0
0.0207207207207 	0.000531797842165 	1.21913257984 	6.33836848036e-05 	-2.24716334128e-08 	0 	0 	0
0.0208208208208 	0.000531613730024 	1.21899702607 	6.3626210162e-05 	-2.14898269993e-08 	0 	0 	0
0.0209209209209 	0.000531429617884 	1.2188614723 	6.38687355205e-05 	-2.05080205858e-08 	0 	0 	0
0.021021021021 	0.000531245505743 	1.21872591853 	6.41112608789e-05 	-1.95262141723e-08 	0 	0 	0
0.0211211211211 	0.000531061393602 	1.21859036476 	6.43537862374e-05 	-1.85444077588e-08 	0 	0 	0
0.0212212212212 	0.000530877281462 	1.21845481099 	6.45963115959e-05 	-1.75626013452e-08 	0 	0 	0
0.0213213213213 	0.000530693169321 	1.21831925722 	6.48388369543e-05 	-1.65807949317e-08 	0 	0 	0
0.0214214214214 	0.000530509057181 	1.21818370345 	6.50813623128e-05 	-1.55989885182e-08 	0 	0 	0
0.0215215215215 	0.00053032494504 	1.21804814969 	6.53238876713e-05 	-1.46171821047e-08 	0 	0 	0
0.0216216216216 	0.000530140832899 	1.21791259592 	6.55664130297e-05 	-1.36353756912e-08 	0 	0 	0
0.0217217217217 	0.000529956720759 	1.21777704215 	6.58089383882e-05 	-1.26535692776e-08 	0 	0 	0
0.0218218218218 	0.000529772608618 	1.21764148838 	6.60514637466e-05 	-1.16717628641e-08 	0 	0 	0
0.0219219219219 	0.000529588496477 	1.21750593461 	6.62939891051e-05 	-1.06899564506e-08 	0 	0 	0
0.022022022022 	0.000529404384337 	1.21737038084 	6.65365144636e-05 	-9.70815003707e-09 	0 	0 	0
0.0221221221221 	0.000529220272196 	1.21723482707 	6.6779039822e-05 	-8.72634362355e-09 	0 	0 	0
0.0222222222222 	0.000529036160056 	1.2170992733 	6.70215651805e-05 	-7.74453721003e-09 	0 	0 	0
0.0223223223223 	0.000528852047915 	1.21696371953 	6.7264090539e-05 	-6.76273079647e-09 	0 	0 	0
0.0224224224224 	0.000528667935774 	1.21682816576 	6.75066158974e-05 	-5.78092438303e-09 	0 	0 	0
0.0225225225225 	0.000528483823634 	1.21669261199 	6.77491412559e-05 	-4.79911796947e-09 	0 	0 	0
0.0226226226226 	0.000528299711493 	1.21655705822 	6.79916666144e-05 	-3.81731155594e-09 	0 	0 	0
0.0227227227227 	0.000528115599352 	1.21642150445 	6.82341919728e-05 	-2.83550514242e-09 	0 	0 	0
0.0228228228228 	0.000527931487212 	1.21628595068 	6.84767173313e-05 	-1.8536987289e-09 	0 	0 	0
0.0229229229229 	0.000527747375071 	1.21615039692 	6.87192426897e-05 	-8.71892315382e-10 	0 	0 	0
0.023023023023 	0.000528029855578 	1.2160124555 	6.89904859313e-05 	5.36630638184e-10 	0 	0 	0
0.0231231231231 	0.000532013578346 	1.21585557411 	6.94895335398e-05 	5.33007896513e-09 	0 	0 	0
0.0232232232232 	0.000535997301114 	1.21569869272 	6.99885811482e-05 	1.0123527292e-08 	0 	0 	0
0.0233233233233 	0.000539981023882 	1.21554181133 	7.04876287567e-05 	1.49169756188e-08 	0 	0 	0
0.0234234234234 	0.000538155254128 	1.21537758424 	7.0582551714e-05 	1.26472887926e-08 	0 	0 	0
0.0235235235235 	0.000534345610571 	1.21521084868 	7.05394708259e-05 	7.96562385667e-09 	0 	0 	0
0.0236236236236 	0.000530535967014 	1.21504411311 	7.04963899378e-05 	3.28395892076e-09 	0 	0 	0
0.0237237237237 	0.000527798390562 	1.21487230786 	7.05237592316e-05 	-5.51753403632e-10 	0 	0 	0
0.0238238238238 	0.000527579672966 	1.21468859119 	7.07166536718e-05 	-2.39987071741e-09 	0 	0 	0
0.0239239239239 	0.000527360955371 	1.21450487451 	7.0909548112e-05 	-4.2479880311e-09 	0 	0 	0
0.024024024024 	0.000527142237776 	1.21432115784 	7.11024425523e-05 	-6.09610534488e-09 	0 	0 	0
0.0241241241241 	0.00052692352018 	1.21413744117 	7.12953369925e-05 	-7.94422265841e-09 	0 	0 	0
0.0242242242242 	0.000526704802585 	1.2139537245 	7.14882314327e-05 	-9.79233997223e-09 	0 	0 	0
0.0243243243243 	0.000526486084989 	1.21377000783 	7.1681125873e-05 	-1.16404572859e-08 	0 	0 	0
0.0244244244244 	0.000526267367394 	1.21358629115 	7.18740203132e-05 	-1.34885745996e-08 	0 	0 	0
0.0245245245245 	0.000526048649798 	1.21340257448 	7.20669147534e-05 	-1.53366919133e-08 	0 	0 	0
0.0246246246246 	0.000525829932203 	1.21321885781 	7.22598091936e-05 	-1.7184809227e-08 	0 	0 	0
0.0247247247247 	0.000525611214608 	1.21303514114 	7.24527036339e-05 	-1.90329265406e-08 	0 	0 	0
0.0248248248248 	0.000525392497012 	1.21285142446 	7.26455980741e-05 	-2.08810438544e-08 	0 	0 	0
0.0249249249249 	0.000525173779417 	1.21266770779 	7.28384925143e-05 	-2.27291611681e-08 	0 	0 	0
0.025025025025 	0.000524955061822 	1.21248399112 	7.30313869546e-05 	-2.45772784818e-08 	0 	0 	0
0.0251251251251 	0.000524736344226 	1.21230027445 	7.32242813948e-05 	-2.64253957954e-08 	0 	0 	0
0.0252252252252 	0.000524517626631 	1.21211655778 	7.3417175835e-05 	-2.82735131091e-08 	0 	0 	0
0.0253253253253 	0.000524298909035 	1.2119328411 	7.36100702753e-05 	-3.01216304228e-08 	0 	0 	0
0.0254254254254 	0.00052408019144 	1.21174912443 	7.38029647155e-05 	-3.19697477366e-08 	0 	0 	0
0.0255255255255 	0.000523861473844 	1.21156540776 	7.39958591557e-05 	-3.38178650502e-08 	0 	0 	0
0.0256256256256 	0.000523642756249 	1.21138169109 	7.4188753596e-05 	-3.56659823639e-08 	0 	0 	0
0.0257257257257 	0.000523424038654 	1.21119797441 	7.43816480362e-05 	-3.75140996777e-08 	0 	0 	0
0.0258258258258 	0.000523205321058 	1.21101425774 	7.45745424764e-05 	-3.93622169913e-08 	0 	0 	0
0.0259259259259 	0.000522986603463 	1.21083054107 	7.47674369167e-05 	-4.12103343051e-08 	0 	0 	0
0.026026026026 	0.000522767885868 	1.2106468244 	7.49603313569e-05 	-4.30584516187e-08 	0 	0 	0
0.0261261261261 	0.000522549168272 	1.21046310772 	7.51532257971e-05 	-4.49065689324e-08 	0 	0 	0
0.0262262262262 	0.000522330450677 	1.21027939105 	7.53461202374e-05 	-4.67546862461e-08 	0 	0 	0
0.0263263263263 	0.000522111733081 	1.21009567438 	7.55390146776e-05 	-4.79058973811e-08 	0 	0 	0
0.0264264264264 	0.000521893015486 	1.20991195771 	7.57319091178e-05 	-4.64663211509e-08 	0 	0 	0
0.0265265265265 	0.000521674297891 	1.20972824104 	7.59248035581e-05 	-4.50267449207e-08 	0 	0 	0
0.0266266266266 	0.000521455580295 	1.20954452436 	7.61176979983e-05 	-4.35871686906e-08 	0 	0 	0
0.0267267267267 	0.0005212368627 	1.20936080769 	7.63105924385e-05 	-4.21475924604e-08 	0 	0 	0
0.0268268268268 	0.000521018145104 	1.20917709102 	7.65034868787e-05 	-4.07080162303e-08 	0 	0 	0
0.0269269269269 	0.000520799427509 	1.20899337435 	7.6696381319e-05 	-3.926844e-08 	0 	0 	0
0.027027027027 	0.000520580709914 	1.20880965767 	7.68892757592e-05 	-3.78288637699e-08 	0 	0 	0
0.0271271271271 	0.000520361992318 	1.208625941 	7.70821701994e-05 	-3.63892875398e-08 	0 	0 	0
0.0272272272272 	0.000520143274723 	1.20844222433 	7.72750646397e-05 	-3.49497113095e-08 	0 	0 	0
0.0273273273273 	0.000519924557127 	1.20825850766 	7.74679590799e-05 	-3.35101350794e-08 	0 	0 	0
0.0274274274274 	0.000519705839532 	1.20807479098 	7.76608535201e-05 	-3.20705588493e-08 	0 	0 	0
0.0275275275275 	0.000519487121937 	1.20789107431 	7.78537479604e-05 	-3.06309826191e-08 	0 	0 	0
0.0276276276276 	0.000519268404341 	1.20770735764 	7.80466424006e-05 	-2.91914063889e-08 	0 	0 	0
0.0277277277277 	0.000519049686746 	1.20752364097 	7.82395368408e-05 	-2.77518301588e-08 	0 	0 	0
0.0278278278278 	0.00051883096915 	1.2073399243 	7.84324312811e-05 	-2.63122539286e-08 	0 	0 	0
0.0279279279279 	0.000518612251555 	1.20715620762 	7.86253257213e-05 	-2.48726776984e-08 	0 	0 	0
0.028028028028 	0.00051839353396 	1.20697249095 	7.88182201615e-05 	-2.34331014683e-08 	0 	0 	0
0.0281281281281 	0.000518174816364 	1.20678877428 	7.90111146018e-05 	-2.19935252381e-08 	0 	0 	0
0.0282282282282 	0.000517956098769 	1.20660505761 	7.9204009042e-05 	-2.0553949008e-08 	0 	0 	0
0.0283283283283 	0.000517737381173 	1.20642134093 	7.93969034822e-05 	-1.91143727778e-08 	0 	0 	0
0.0284284284284 	0.000517518663578 	1.20623762426 	7.95897979225e-05 	-1.76747965476e-08 	0 	0 	0
0.0285285285285 	0.000517299945983 	1.20605390759 	7.97826923627e-05 	-1.62352203174e-08 	0 	0 	0
0.0286286286286 	0.000517081228387 	1.20587019092 	7.99755868029e-05 	-1.47956440873e-08 	0 	0 	0
0.0287287287287 	0.000516862510792 	1.20568647424 	8.01684812431e-05 	-1.33560678571e-08 	0 	0 	0
0.0288288288288 	0.000516643793196 	1.20550275757 	8.03613756834e-05 	-1.1916491627e-08 	0 	0 	0
0.0289289289289 	0.000516425075601 	1.2053190409 	8.05542701236e-05 	-1.04769153968e-08 	0 	0 	0
0.029029029029 	0.000516206358006 	1.20513532423 	8.07471645638e-05 	-9.0373391666e-09 	0 	0 	0
0.0291291291291 	0.00051598764041 	1.20495160756 	8.09400590041e-05 	-7.59776293647e-09 	0 	0 	0
0.0292292292292 	0.000515768922815 	1.20476789088 	8.11329534443e-05 	-6.15818670638e-09 	0 	0 	0
0.0293293293293 	0.000515550205219 	1.20458417421 	8.13258478845e-05 	-4.71861047607e-09 	0 	0 	0
0.0294294294294 	0.000515331487624 	1.20440045754 	8.15187423248e-05 	-3.27903424598e-09 	0 	0 	0
0.0295295295295 	0.000515112770029 	1.20421674087 	8.1711636765e-05 	-1.83945801582e-09 	0 	0 	0
0.0296296296296 	0.000514894052433 	1.20403302419 	8.19045312052e-05 	-3.99881785653e-10 	0 	0 	0
0.0297297297297 	0.000517664666202 	1.20383613965 	8.23226516421e-05 	4.37285078306e-09 	0 	0 	0
0.0298298298298 	0.000521585020982 	1.20363419055 	8.2827397325e-05 	1.04275645289e-08 	0 	0 	0
0.0299299299299 	0.000525505375763 	1.20343224146 	8.3332143008e-05 	1.64822782748e-08 	0 	0 	0
0.03003003003 	0.00052515461916 	1.20322393778 	8.3455274898e-05 	1.58602732666e-08 	0 	0 	0
0.0301301301301 	0.000521302568993 	1.20301042488 	8.32655744131e-05 	9.76494988403e-09 	0 	0 	0
0.0302302302302 	0.000517450518825 	1.20279691197 	8.30758739282e-05 	3.66962650143e-09 	0 	0 	0
0.0303303303303 	0.000515042199362 	1.20257737022 	8.30141083269e-05 	-9.97448852299e-10 	0 	0 	0
0.0304304304304 	0.000514817974854 	1.20234870797 	8.3145884314e-05 	-3.50385165075e-09 	0 	0 	0
0.0305305305305 	0.000514593750345 	1.20212004571 	8.32776603011e-05 	-6.01025444913e-09 	0 	0 	0
0.0306306306306 	0.000514369525836 	1.20189138346 	8.34094362881e-05 	-8.51665724751e-09 	0 	0 	0
0.0307307307307 	0.000514145301328 	1.2016627212 	8.35412122752e-05 	-1.10230600459e-08 	0 	0 	0
0.0308308308308 	0.000513921076819 	1.20143405895 	8.36729882623e-05 	-1.35294628443e-08 	0 	0 	0