3.97650065911e-16 	0.00140254477556 	1.26105850475 	3.81628496966e-20 	2.53033190458e-22 	0 	0 	0
