3.97650065911e-16 	0.000948515856787 	1.23331521012 	3.73232667757e-20 	2.4746645876e-22 	0 	0 	0
