0 	0.00140254477556 	1.26105850475 	3.81628496966e-20 	2.53033190458e-22 	0 	0 	0
0.0001001001001 	0.00139373067128 	1.26106014545 	5.29248161706e-08 	2.87071528345e-18 	0 	0 	0
0.0002002002002 	0.00138491656699 	1.26106178615 	1.05849632342e-07 	5.73091910898e-18 	0 	0 	0
0.0003003003003 	0.0013761024627 	1.26106342686 	1.58774448515e-07 	8.5812939792e-18 	0 	0 	0
0.0004004004004 	0.00136728835842 	1.26106506756 	2.11699264685e-07 	1.14317564289e-17 	0 	0 	0
0.000500500500501 	0.00135847425413 	1.26106670827 	2.64624080858e-07 	1.43017202769e-17 	0 	0 	0
0.000600600600601 	0.0013501381714 	1.26106020495 	2.68191200279e-07 	1.6008489519e-17 	0 	0 	0
0.000700700700701 	0.00134251912871 	1.26104148546 	1.97720977048e-07 	1.60191474827e-17 	0 	0 	0
0.000800800800801 	0.00133490008603 	1.26102276597 	1.27250753817e-07 	1.60396191688e-17 	0 	0 	0
0.000900900900901 	0.00132728104334 	1.26100404648 	5.67805305862e-08 	1.6011205308e-17 	0 	0 	0
0.001001001001 	0.00131966200065 	1.26098532699 	-1.36896926448e-08 	1.6031677201e-17 	0 	0 	0
0.0011011011011 	0.00131204295797 	1.2609666075 	-8.41599158766e-08 	1.60032805041e-17 	0 	0 	0
0.0012012012012 	0.00130442391528 	1.26094788802 	-1.54630139107e-07 	1.6053044517e-17 	0 	0 	0
0.0013013013013 	0.0012968048726 	1.26092916853 	-2.25100362339e-07 	1.59953445334e-17 	0 	0 	0
0.0014014014014 	0.00128918582991 	1.26091044904 	-2.9557058557e-07 	1.60255606139e-17 	0 	0 	0
0.0015015015015 	0.00128156678722 	1.26089172955 	-3.66040808801e-07 	1.60362362069e-17 	0 	0 	0
0.0016016016016 	0.00127394774454 	1.26087301006 	-4.36511032031e-07 	1.60469341338e-17 	0 	0 	0
0.0017017017017 	0.00126632870185 	1.26085429057 	-5.06981255263e-07 	1.60087589213e-17 	0 	0 	0
0.0018018018018 	0.00125870965917 	1.26083557108 	-5.77451478494e-07 	1.60389758291e-17 	0 	0 	0
0.0019019019019 	0.00125109061648 	1.2608168516 	-6.47921701725e-07 	1.60203692284e-17 	0 	0 	0
0.002002002002 	0.00124347157379 	1.26079813211 	-7.18391924956e-07 	1.60408121701e-17 	0 	0 	0
0.0021021021021 	0.00123585253111 	1.26077941262 	-7.88862148187e-07 	1.60221956432e-17 	0 	0 	0
0.0022022022022 	0.00122823348842 	1.26076069313 	-8.59332371419e-07 	1.60231204311e-17 	0 	0 	0
0.0023023023023 	0.00122061444574 	1.26074197364 	-9.2980259465e-07 	1.60435501379e-17 	0 	0 	0
0.0024024024024 	0.00121299540305 	1.26072325415 	-1.00027281788e-06 	1.60347141946e-17 	0 	0 	0
0.0025025025025 	0.00120537636036 	1.26070453467 	-1.07074304111e-06 	1.60356042409e-17 	0 	0 	0
0.0026026026026 	0.00119775731768 	1.26068581518 	-1.14121326434e-06 	1.60267484453e-17 	0 	0 	0
0.0027027027027 	0.00119013827499 	1.26066709569 	-1.21168348757e-06 	1.60569984403e-17 	0 	0 	0
0.0028028028028 	0.00118251923231 	1.2606483762 	-1.28215371081e-06 	1.60285864406e-17 	0 	0 	0
0.0029029029029 	0.00117490018962 	1.26062965671 	-1.35262393404e-06 	1.60392686511e-17 	0 	0 	0
0.003003003003 	0.00116728114693 	1.26061093722 	-1.42309415727e-06 	1.60401901303e-17 	0 	0 	0
0.0031031031031 	0.00115966210425 	1.26059221773 	-1.4935643805e-06 	1.6041086794e-17 	0 	0 	0
0.0032032032032 	0.00115204306156 	1.26057349825 	-1.56403460373e-06 	1.60322624313e-17 	0 	0 	0
0.0033033033033 	0.00114442401888 	1.26055477876 	-1.63450482696e-06 	1.60624644498e-17 	0 	0 	0
0.0034034034034 	0.00113680497619 	1.26053605927 	-1.70497505019e-06 	1.60340756112e-17 	0 	0 	0
0.0035035035035 	0.0011291859335 	1.26051733978 	-1.77544527342e-06 	1.60447561672e-17 	0 	0 	0
0.0036036036036 	0.00112156689082 	1.26049862029 	-1.84591549665e-06 	1.60359218783e-17 	0 	0 	0
0.0037037037037 	0.00111394784813 	1.2604799008 	-1.91638571989e-06 	1.60563565482e-17 	0 	0 	0
0.0038038038038 	0.00110632880545 	1.26046118131 	-1.98685594312e-06 	1.60377416756e-17 	0 	0 	0
0.0039039039039 	0.00109870976276 	1.26044246183 	-2.05732616635e-06 	1.60679536203e-17 	0 	0 	0
0.004004004004 	0.00109109072007 	1.26042374234 	-2.12779638958e-06 	1.6029797433e-17 	0 	0 	0
0.0041041041041 	0.00108347167739 	1.26040502285 	-2.19826661281e-06 	1.60502519552e-17 	0 	0 	0
0.0042042042042 	0.0010758526347 	1.26038630336 	-2.26873683604e-06 	1.607069986e-17 	0 	0 	0
0.0043043043043 	0.00106823359202 	1.26036758387 	-2.33920705927e-06 	1.60423242562e-17 	0 	0 	0
0.0044044044044 	0.00106061454933 	1.26034886438 	-2.4096772825e-06 	1.60432407724e-17 	0 	0 	0
0.0045045045045 	0.00105299550665 	1.2603301449 	-2.48014750573e-06 	1.6053914711e-17 	0 	0 	0
0.0046046046046 	0.00104537646396 	1.26031142541 	-2.55061772897e-06 	1.60645886496e-17 	0 	0 	0
0.0047047047047 	0.00103775742127 	1.26029270592 	-2.6210879522e-06 	1.60655051657e-17 	0 	0 	0
0.0048048048048 	0.00103013837859 	1.26027398643 	-2.69155817543e-06 	1.60468803671e-17 	0 	0 	0
0.0049049049049 	0.0010225193359 	1.26025526694 	-2.76202839866e-06 	1.60575675406e-17 	0 	0 	0
0.00500500500501 	0.00101490029322 	1.26023654745 	-2.83249862189e-06 	1.6058480748e-17 	0 	0 	0
0.00510510510511 	0.00100728125053 	1.26021782796 	-2.90296884512e-06 	1.60593807205e-17 	0 	0 	0
0.00520520520521 	0.000999662207844 	1.26019910848 	-2.97343906835e-06 	1.60505365054e-17 	0 	0 	0
0.00530530530531 	0.000992043165158 	1.26018038899 	-3.04390929158e-06 	1.6061233605e-17 	0 	0 	0
0.00540540540541 	0.000984424122472 	1.2601616695 	-3.11437951481e-06 	1.60816980534e-17 	0 	0 	0
0.00550550550551 	0.000976805079786 	1.26014295001 	-3.18484973805e-06 	1.60532794363e-17 	0 	0 	0
0.00560560560561 	0.0009691860371 	1.26012423052 	-3.25531996128e-06 	1.60542058786e-17 	0 	0 	0
0.00570570570571 	0.000961566994414 	1.26010551103 	-3.32579018451e-06 	1.60648864346e-17 	0 	0 	0
0.00580580580581 	0.000953947951728 	1.26008679154 	-3.39626040774e-06 	1.60755802256e-17 	0 	0 	0
0.00590590590591 	0.000946328909042 	1.26006807206 	-3.46673063097e-06 	1.6066706232e-17 	0 	0 	0
0.00600600600601 	0.000938709866356 	1.26004935257 	-3.5372008542e-06 	1.60676260568e-17 	0 	0 	0
0.00610610610611 	0.00093109082367 	1.26003063308 	-3.60767107743e-06 	1.60685524991e-17 	0 	0 	0
0.00620620620621 	0.000923471780984 	1.26001191359 	-3.67814130066e-06 	1.60499177743e-17 	0 	0 	0
0.00630630630631 	0.000915852738298 	1.2599931941 	-3.74861152389e-06 	1.60801396451e-17 	0 	0 	0
0.00640640640641 	0.000908233695612 	1.25997447461 	-3.81908174713e-06 	1.6071272269e-17 	0 	0 	0
0.00650650650651 	0.000900614652926 	1.25995575513 	-3.88955197036e-06 	1.60819660599e-17 	0 	0 	0
0.00660660660661 	0.00089299561024 	1.25993703564 	-3.96002219359e-06 	1.60731119186e-17 	0 	0 	0
0.00670670670671 	0.000885376567555 	1.25991831615 	-4.03049241682e-06 	1.6074025126e-17 	0 	0 	0
0.00680680680681 	0.000877757524868 	1.25989959666 	-4.10096264005e-06 	1.60651776022e-17 	0 	0 	0
0.00690690690691 	0.000870138482182 	1.25988087717 	-4.17143286328e-06 	1.60758581583e-17 	0 	0 	0
0.00700700700701 	0.000862519439497 	1.25986215768 	-4.24190308651e-06 	1.60767647482e-17 	0 	0 	0
0.00710710710711 	0.000854900396811 	1.25984343819 	-4.31237330974e-06 	1.60776911905e-17 	0 	0 	0
0.00720720720721 	0.000847281354125 	1.25982471871 	-4.38284353298e-06 	1.60786043979e-17 	0 	0 	0
0.00730730730731 	0.000839662311439 	1.25980599922 	-4.45331375621e-06 	1.60795043704e-17 	0 	0 	0
0.00740740740741 	0.000832043268753 	1.25978727973 	-4.52378397944e-06 	1.60804374301e-17 	0 	0 	0
0.00750750750751 	0.000824424226067 	1.25976856024 	-4.59425420267e-06 	1.60813374027e-17 	0 	0 	0
0.00760760760761 	0.000816805183381 	1.25974984075 	-4.6647244259e-06 	1.60822638449e-17 	0 	0 	0
0.00770770770771 	0.000809186140695 	1.25973112126 	-4.73519464913e-06 	1.61027117497e-17 	0 	0 	0
0.00780780780781 	0.000801567098009 	1.25971240177 	-4.80566487236e-06 	1.60840902597e-17 	0 	0 	0
0.00790790790791 	0.000793948055323 	1.25969368229 	-4.87613509559e-06 	1.60654489174e-17 	0 	0 	0
0.00800800800801 	0.000786329012637 	1.2596749628 	-4.94660531882e-06 	1.60956774058e-17 	0 	0 	0
0.00810810810811 	0.000778709969951 	1.25965624331 	-5.01707554206e-06 	1.6086816647e-17 	0 	0 	0
0.00820820820821 	0.000782169765794 	1.25959957254 	-5.3658460533e-06 	-1.41172158674e-09 	0 	0 	0
0.00830830830831 	0.000788399920217 	1.25953341172 	-5.78420793814e-06 	-3.17645628266e-09 	0 	0 	0
0.00840840840841 	0.000794630074641 	1.25946725091 	-6.20256982297e-06 	-4.94119097858e-09 	0 	0 	0
0.00850850850851 	0.000790661721915 	1.25941954731 	-6.4430471089e-06 	-3.78894714699e-09 	0 	0 	0
0.00860860860861 	0.000786692973684 	1.25937184443 	-6.68351749633e-06 	-2.63659019284e-09 	0 	0 	0
0.00870870870871 	0.000782724225452 	1.25932414156 	-6.92398788376e-06 	-1.48423323864e-09 	0 	0 	0
0.00880880880881 	0.00077875547722 	1.25927643868 	-7.16445827119e-06 	-3.31876284499e-10 	0 	0 	0
0.00890890890891 	0.000777834831747 	1.25920675868 	-7.37390278769e-06 	-1.57121086183e-09 	0 	0 	0
0.00900900900901 	0.000778147113765 	1.25912818914 	-7.5707976455e-06 	-3.77796106693e-09 	0 	0 	0
0.00910910910911 	0.000778459395784 	1.25904961961 	-7.76769250331e-06 	-5.98471127203e-09 	0 	0 	0
0.00920920920921 	0.000778771677803 	1.25897105008 	-7.96458736112e-06 	-8.19146147713e-09 	0 	0 	0
0.00930930930931 	0.000779083959821 	1.25889248055 	-8.16148221893e-06 	-1.03982116822e-08 	0 	0 	0
0.00940940940941 	0.00077939624184 	1.25881391102 	-8.35837707674e-06 	-1.26049618873e-08 	0 	0 	0
0.00950950950951 	0.000779708523859 	1.25873534148 	-8.55527193455e-06 	-1.48117120924e-08 	0 	0 	0
0.00960960960961 	0.000780020805877 	1.25865677195 	-8.75216679236e-06 	-1.70184622975e-08 	0 	0 	0
0.00970970970971 	0.000780333087896 	1.25857820242 	-8.94906165017e-06 	-1.92252125026e-08 	0 	0 	0
0.00980980980981 	0.000780645369914 	1.25849963289 	-9.14595650798e-06 	-2.14319627077e-08 	0 	0 	0
0.00990990990991 	0.000780957651933 	1.25842106336 	-9.34285136579e-06 	-2.36387129128e-08 	0 	0 	0
0.01001001001 	0.000781269933952 	1.25834249382 	-9.5397462236e-06 	-2.58454631179e-08 	0 	0 	0
0.0101101101101 	0.00078158221597 	1.25826392429 	-9.73664108141e-06 	-2.8052213323e-08 	0 	0 	0
0.0102102102102 	0.000781894497989 	1.25818535476 	-9.93353593922e-06 	-3.02589635281e-08 	0 	0 	0
0.0103103103103 	0.000782206780008 	1.25810678523 	-1.0130430797e-05 	-3.24657137332e-08 	0 	0 	0
0.0104104104104 	0.000782519062026 	1.25802821569 	-1.03273256548e-05 	-3.46724639383e-08 	0 	0 	0
0.0105105105105 	0.000782831344045 	1.25794964616 	-1.05242205126e-05 	-3.68792141434e-08 	0 	0 	0
0.0106106106106 	0.000783143626063 	1.25787107663 	-1.07211153705e-05 	-3.90859643485e-08 	0 	0 	0
0.0107107107107 	0.000783455908082 	1.2577925071 	-1.09180102283e-05 	-4.12927145536e-08 	0 	0 	0
0.0108108108108 	0.000783768190101 	1.25771393757 	-1.11149050861e-05 	-4.34994647587e-08 	0 	0 	0
0.0109109109109 	0.000784080472119 	1.25763536803 	-1.13117999439e-05 	-4.57062149638e-08 	0 	0 	0
0.011011011011 	0.000784392754138 	1.2575567985 	-1.15086948017e-05 	-4.79129651689e-08 	0 	0 	0
0.0111111111111 	0.000784705036157 	1.25747822897 	-1.17055896595e-05 	-5.0119715374e-08 	0 	0 	0
0.0112112112112 	0.000785017318175 	1.25739965944 	-1.19024845173e-05 	-5.23264655791e-08 	0 	0 	0
0.0113113113113 	0.000785329600194 	1.25732108991 	-1.20993793751e-05 	-5.17568561192e-08 	0 	0 	0
0.0114114114114 	0.000785641882212 	1.25724252037 	-1.22962742329e-05 	-5.06097003067e-08 	0 	0 	0
0.0115115115115 	0.000785954164231 	1.25716395084 	-1.24931690907e-05 	-4.94625444943e-08 	0 	0 	0
0.0116116116116 	0.00078626644625 	1.25708538131 	-1.26900639486e-05 	-4.83153886818e-08 	0 	0 	0
0.0117117117117 	0.000786578728268 	1.25700681178 	-1.28869588064e-05 	-4.71682328693e-08 	0 	0 	0
0.0118118118118 	0.000786891010287 	1.25692824224 	-1.30838536642e-05 	-4.60210770569e-08 	0 	0 	0
0.0119119119119 	0.000787203292305 	1.25684967271 	-1.3280748522e-05 	-4.48739212444e-08 	0 	0 	0
0.012012012012 	0.000787515574324 	1.25677110318 	-1.34776433798e-05 	-4.37267654319e-08 	0 	0 	0
0.0121121121121 	0.000787827856343 	1.25669253365 	-1.36745382376e-05 	-4.25796096195e-08 	0 	0 	0
0.0122122122122 	0.000788140138361 	1.25661396412 	-1.38714330954e-05 	-4.1432453807e-08 	0 	0 	0
0.0123123123123 	0.00078845242038 	1.25653539458 	-1.40683279532e-05 	-4.02852979945e-08 	0 	0 	0
0.0124124124124 	0.000788764702399 	1.25645682505 	-1.4265222811e-05 	-3.91381421821e-08 	0 	0 	0
0.0125125125125 	0.000789076984417 	1.25637825552 	-1.44621176688e-05 	-3.79909863696e-08 	0 	0 	0
0.0126126126126 	0.000789389266436 	1.25629968599 	-1.46590125267e-05 	-3.68438305571e-08 	0 	0 	0
0.0127127127127 	0.000789701548454 	1.25622111646 	-1.48559073845e-05 	-3.56966747447e-08 	0 	0 	0
0.0128128128128 	0.000790013830473 	1.25614254692 	-1.50528022423e-05 	-3.45495189322e-08 	0 	0 	0
0.0129129129129 	0.000790326112491 	1.25606397739 	-1.52496971001e-05 	-3.34023631198e-08 	0 	0 	0
0.013013013013 	0.00079063839451 	1.25598540786 	-1.54465919579e-05 	-3.22552073073e-08 	0 	0 	0
0.0131131131131 	0.000790950676529 	1.25590683833 	-1.56434868157e-05 	-3.11080514948e-08 	0 	0 	0
0.0132132132132 	0.000791262958548 	1.25582826879 	-1.58403816735e-05 	-2.99608956823e-08 	0 	0 	0
0.0133133133133 	0.000791575240566 	1.25574969926 	-1.60372765313e-05 	-2.88137398698e-08 	0 	0 	0
0.0134134134134 	0.000791887522585 	1.25567112973 	-1.62341713891e-05 	-2.76665840574e-08 	0 	0 	0
0.0135135135135 	0.000792199804603 	1.2555925602 	-1.64310662469e-05 	-2.65194282449e-08 	0 	0 	0
0.0136136136136 	0.000792512086622 	1.25551399067 	-1.66279611048e-05 	-2.53722724324e-08 	0 	0 	0
0.0137137137137 	0.00079282436864 	1.25543542113 	-1.68248559626e-05 	-2.422511662e-08 	0 	0 	0
0.0138138138138 	0.000793136650659 	1.2553568516 	-1.70217508204e-05 	-2.30779608075e-08 	0 	0 	0
0.0139139139139 	0.000793448932678 	1.25527828207 	-1.72186456782e-05 	-2.19308049951e-08 	0 	0 	0
0.014014014014 	0.000793761214696 	1.25519971254 	-1.7415540536e-05 	-2.07836491826e-08 	0 	0 	0
0.0141141141141 	0.000794073496715 	1.25512114301 	-1.76124353938e-05 	-1.96364933701e-08 	0 	0 	0
0.0142142142142 	0.000794385778734 	1.25504257347 	-1.78093302516e-05 	-1.84893375576e-08 	0 	0 	0
0.0143143143143 	0.000794698060752 	1.25496400394 	-1.80062251094e-05 	-1.73421817452e-08 	0 	0 	0
0.0144144144144 	0.000795010342771 	1.25488543441 	-1.82031199672e-05 	-1.61950259327e-08 	0 	0 	0
0.0145145145145 	0.00079532262479 	1.25480686488 	-1.8400014825e-05 	-1.50478701202e-08 	0 	0 	0
0.0146146146146 	0.000795634906808 	1.25472829534 	-1.85969096828e-05 	-1.39007143078e-08 	0 	0 	0
0.0147147147147 	0.000795947188827 	1.25464972581 	-1.87938045407e-05 	-1.27535584953e-08 	0 	0 	0
0.0148148148148 	0.000796259470845 	1.25457115628 	-1.89906993985e-05 	-1.16064026828e-08 	0 	0 	0
0.0149149149149 	0.000796571752864 	1.25449258675 	-1.91875942563e-05 	-1.04592468704e-08 	0 	0 	0
0.015015015015 	0.000796884034883 	1.25441401722 	-1.93844891141e-05 	-9.31209105789e-09 	0 	0 	0
0.0151151151151 	0.000797196316901 	1.25433544768 	-1.95813839719e-05 	-8.16493524543e-09 	0 	0 	0
0.0152152152152 	0.00079750859892 	1.25425687815 	-1.97782788297e-05 	-7.01777943296e-09 	0 	0 	0
0.0153153153153 	0.000797820880939 	1.25417830862 	-1.99751736875e-05 	-5.87062362049e-09 	0 	0 	0
0.0154154154154 	0.000798133162957 	1.25409973909 	-2.01720685453e-05 	-4.72346780802e-09 	0 	0 	0
0.0155155155155 	0.000798445444976 	1.25402116956 	-2.03689634031e-05 	-3.57631199555e-09 	0 	0 	0
0.0156156156156 	0.000798757726994 	1.25394260002 	-2.05658582609e-05 	-2.42915618308e-09 	0 	0 	0
0.0157157157157 	0.000799070009013 	1.25386403049 	-2.07627531188e-05 	-1.28200037062e-09 	0 	0 	0
0.0158158158158 	0.000799382291032 	1.25378546096 	-2.09596479766e-05 	-1.34844558147e-10 	0 	0 	0
0.0159159159159 	0.000804075134767 	1.25367605017 	-2.10909134319e-05 	-9.39938421537e-10 	0 	0 	0
0.016016016016 	0.000809351489837 	1.25356253119 	-2.12134367435e-05 	-2.00508108402e-09 	0 	0 	0
0.0161161161161 	0.000814627844907 	1.2534490122 	-2.1335960055e-05 	-3.0702237465e-09 	0 	0 	0
0.0162162162162 	0.000815739072436 	1.25333970113 	-2.14103648175e-05 	-3.29657723964e-09 	0 	0 	0
0.0163163163163 	0.000810895415951 	1.2532364061 	-2.14159744768e-05 	-2.32371362222e-09 	0 	0 	0
0.0164164164164 	0.000806051759466 	1.25313311108 	-2.14215841361e-05 	-1.35085000477e-09 	0 	0 	0
0.0165165165165 	0.000801208102982 	1.25302981605 	-2.14271937954e-05 	-3.77986387243e-10 	0 	0 	0
0.0166166166166 	0.000799156073835 	1.25290862575 	-2.14743113581e-05 	6.15660591738e-10 	0 	0 	0
0.0167167167167 	0.000798877851669 	1.25277606475 	-2.15478031464e-05 	1.62251337054e-09 	0 	0 	0
0.0168168168168 	0.000798599629503 	1.25264350374 	-2.16212949347e-05 	2.62936614934e-09 	0 	0 	0
0.0169169169169 	0.000798321407337 	1.25251094273 	-2.16947867229e-05 	3.63621892814e-09 	0 	0 	0
0.017017017017 	0.000798043185171 	1.25237838173 	-2.17682785112e-05 	4.64307170696e-09 	0 	0 	0
0.0171171171171 	0.000797764963004 	1.25224582072 	-2.18417702995e-05 	5.64992448574e-09 	0 	0 	0
0.0172172172172 	0.000797486740838 	1.25211325971 	-2.19152620877e-05 	6.65677726455e-09 	0 	0 	0
0.0173173173173 	0.000797208518672 	1.25198069871 	-2.1988753876e-05 	7.66363004331e-09 	0 	0 	0
0.0174174174174 	0.000796930296506 	1.2518481377 	-2.20622456643e-05 	8.67048282215e-09 	0 	0 	0
0.0175175175175 	0.00079665207434 	1.25171557669 	-2.21357374525e-05 	9.67733560097e-09 	0 	0 	0
0.0176176176176 	0.000796373852173 	1.25158301569 	-2.22092292408e-05 	1.06841883798e-08 	0 	0 	0
0.0177177177177 	0.000796095630007 	1.25145045468 	-2.2282721029e-05 	1.16910411586e-08 	0 	0 	0
0.0178178178178 	0.000795817407841 	1.25131789367 	-2.23562128173e-05 	1.26978939374e-08 	0 	0 	0
0.0179179179179 	0.000795539185675 	1.25118533267 	-2.24297046056e-05 	1.37047467161e-08 	0 	0 	0
0.018018018018 	0.000795260963509 	1.25105277166 	-2.25031963938e-05 	1.4711599495e-08 	0 	0 	0
0.0181181181181 	0.000794982741342 	1.25092021066 	-2.25766881821e-05 	1.57184522738e-08 	0 	0 	0
0.0182182182182 	0.000794704519176 	1.25078764965 	-2.26501799704e-05 	1.67253050526e-08 	0 	0 	0
0.0183183183183 	0.00079442629701 	1.25065508864 	-2.27236717586e-05 	1.77321578314e-08 	0 	0 	0
0.0184184184184 	0.000794148074844 	1.25052252764 	-2.27971635469e-05 	1.87390106102e-08 	0 	0 	0
0.0185185185185 	0.000793869852678 	1.25038996663 	-2.28706553352e-05 	1.9745863389e-08 	0 	0 	0
0.0186186186186 	0.000793591630511 	1.25025740562 	-2.29441471234e-05 	2.07527161677e-08 	0 	0 	0
0.0187187187187 	0.000793313408345 	1.25012484462 	-2.30176389117e-05 	2.17595689466e-08 	0 	0 	0
0.0188188188188 	0.000793035186179 	1.24999228361 	-2.30911306999e-05 	2.27664217254e-08 	0 	0 	0
0.0189189189189 	0.000792756964013 	1.2498597226 	-2.31646224882e-05 	2.37732745041e-08 	0 	0 	0
0.019019019019 	0.000792478741847 	1.2497271616 	-2.32381142765e-05 	2.4780127283e-08 	0 	0 	0
0.0191191191191 	0.00079220051968 	1.24959460059 	-2.33116060647e-05 	2.57869800618e-08 	0 	0 	0
0.0192192192192 	0.000791922297514 	1.24946203958 	-2.3385097853e-05 	2.64270282435e-08 	0 	0 	0
0.0193193193193 	0.000791644075348 	1.24932947858 	-2.34585896413e-05 	2.57295252372e-08 	0 	0 	0
0.0194194194194 	0.000791365853182 	1.24919691757 	-2.35320814295e-05 	2.50320222308e-08 	0 	0 	0
0.0195195195195 	0.000791087631016 	1.24906435656 	-2.36055732178e-05 	2.43345192245e-08 	0 	0 	0
0.0196196196196 	0.00079080940885 	1.24893179556 	-2.36790650061e-05 	2.36370162182e-08 	0 	0 	0
0.0197197197197 	0.000790531186684 	1.24879923455 	-2.37525567943e-05 	2.29395132119e-08 	0 	0 	0
0.0198198198198 	0.000790252964517 	1.24866667355 	-2.38260485826e-05 	2.22420102055e-08 	0 	0 	0
0.0199199199199 	0.000789974742351 	1.24853411254 	-2.38995403708e-05 	2.15445071992e-08 	0 	0 	0
0.02002002002 	0.000789696520185 	1.24840155153 	-2.39730321591e-05 	2.08470041928e-08 	0 	0 	0
0.0201201201201 	0.000789418298019 	1.24826899053 	-2.40465239474e-05 	2.01495011865e-08 	0 	0 	0
0.0202202202202 	0.000789140075852 	1.24813642952 	-2.41200157356e-05 	1.94519981801e-08 	0 	0 	0
0.0203203203203 	0.000788861853686 	1.24800386851 	-2.41935075239e-05 	1.87544951739e-08 	0 	0 	0
0.0204204204204 	0.00078858363152 	1.24787130751 	-2.42669993122e-05 	1.80569921675e-08 	0 	0 	0
0.0205205205205 	0.000788305409354 	1.2477387465 	-2.43404911004e-05 	1.73594891612e-08 	0 	0 	0
0.0206206206206 	0.000788027187188 	1.24760618549 	-2.44139828887e-05 	1.66619861548e-08 	0 	0 	0
0.0207207207207 	0.000787748965021 	1.24747362449 	-2.4487474677e-05 	1.59644831485e-08 	0 	0 	0
0.0208208208208 	0.000787470742855 	1.24734106348 	-2.45609664652e-05 	1.52669801422e-08 	0 	0 	0
0.0209209209209 	0.000787192520689 	1.24720850247 	-2.46344582535e-05 	1.45694771358e-08 	0 	0 	0
0.021021021021 	0.000786914298523 	1.24707594147 	-2.47079500417e-05 	1.38719741295e-08 	0 	0 	0
0.0211211211211 	0.000786636076357 	1.24694338046 	-2.478144183e-05 	1.31744711232e-08 	0 	0 	0
0.0212212212212 	0.00078635785419 	1.24681081946 	-2.48549336183e-05 	1.24769681168e-08 	0 	0 	0
0.0213213213213 	0.000786079632024 	1.24667825845 	-2.49284254065e-05 	1.17794651105e-08 	0 	0 	0
0.0214214214214 	0.000785801409858 	1.24654569744 	-2.50019171948e-05 	1.10819621042e-08 	0 	0 	0
0.0215215215215 	0.000785523187692 	1.24641313644 	-2.50754089831e-05 	1.03844590978e-08 	0 	0 	0
0.0216216216216 	0.000785244965526 	1.24628057543 	-2.51489007713e-05 	9.68695609149e-09 	0 	0 	0
0.0217217217217 	0.000784966743359 	1.24614801442 	-2.52223925596e-05 	8.98945308516e-09 	0 	0 	0
0.0218218218218 	0.000784688521193 	1.24601545342 	-2.52958843479e-05 	8.29195007882e-09 	0 	0 	0
0.0219219219219 	0.000784410299027 	1.24588289241 	-2.53693761361e-05 	7.59444707249e-09 	0 	0 	0
0.022022022022 	0.000784132076861 	1.2457503314 	-2.54428679244e-05 	6.89694406615e-09 	0 	0 	0
0.0221221221221 	0.000783853854695 	1.2456177704 	-2.55163597126e-05 	6.19944105982e-09 	0 	0 	0
0.0222222222222 	0.000783575632529 	1.24548520939 	-2.55898515009e-05 	5.50193805349e-09 	0 	0 	0
0.0223223223223 	0.000783297410362 	1.24535264838 	-2.56633432892e-05 	4.80443504713e-09 	0 	0 	0
0.0224224224224 	0.000783019188196 	1.24522008738 	-2.57368350774e-05 	4.10693204083e-09 	0 	0 	0
0.0225225225225 	0.00078274096603 	1.24508752637 	-2.58103268657e-05 	3.40942903448e-09 	0 	0 	0
0.0226226226226 	0.000782462743864 	1.24495496537 	-2.5883818654e-05 	2.71192602815e-09 	0 	0 	0
0.0227227227227 	0.000782184521698 	1.24482240436 	-2.59573104422e-05 	2.01442302181e-09 	0 	0 	0
0.0228228228228 	0.000781906299531 	1.24468984335 	-2.60308022305e-05 	1.31692001548e-09 	0 	0 	0
0.0229229229229 	0.000781628077365 	1.24455728235 	-2.61042940188e-05 	6.19417009145e-10 	0 	0 	0
0.023023023023 	0.000781959881448 	1.24442122133 	-2.61902811195e-05 	-1.91313114679e-10 	0 	0 	0
0.0231231231231 	0.000787130713631 	1.24425739647 	-2.63753871812e-05 	-1.90021639792e-09 	0 	0 	0
0.0232232232232 	0.000792301545815 	1.24409357162 	-2.6560493243e-05 	-3.60911968112e-09 	0 	0 	0
0.0233233233233 	0.000797472377998 	1.24392974677 	-2.67455993048e-05 	-5.31802296432e-09 	0 	0 	0
0.0234234234234 	0.000795000788854 	1.24377099802 	-2.67866405048e-05 	-4.50886116674e-09 	0 	0 	0
0.0235235235235 	0.000789919402143 	1.24361398271 	-2.67784852381e-05 	-2.83980957207e-09 	0 	0 	0
0.0236236236236 	0.000784838015432 	1.24345696739 	-2.67703299715e-05 	-1.1707579774e-09 	0 	0 	0
0.0237237237237 	0.000781175224304 	1.24329155742 	-2.67885652031e-05 	1.73069359598e-10 	0 	0 	0
0.0238238238238 	0.000780845472721 	1.24310642389 	-2.6868805826e-05 	7.52771019709e-10 	0 	0 	0
0.0239239239239 	0.000780515721137 	1.24292129037 	-2.69490464488e-05 	1.33247267979e-09 	0 	0 	0
0.024024024024 	0.000780185969554 	1.24273615685 	-2.70292870717e-05 	1.9121743399e-09 	0 	0 	0
0.0241241241241 	0.00077985621797 	1.24255102332 	-2.71095276946e-05 	2.49187599992e-09 	0 	0 	0
0.0242242242242 	0.000779526466387 	1.2423658898 	-2.71897683175e-05 	3.07157766005e-09 	0 	0 	0
0.0243243243243 	0.000779196714803 	1.24218075628 	-2.72700089403e-05 	3.65127932011e-09 	0 	0 	0
0.0244244244244 	0.00077886696322 	1.24199562275 	-2.73502495632e-05 	4.23098098019e-09 	0 	0 	0
0.0245245245245 	0.000778537211636 	1.24181048923 	-2.74304901861e-05 	4.81068264027e-09 	0 	0 	0
0.0246246246246 	0.000778207460053 	1.24162535571 	-2.75107308089e-05 	5.39038430037e-09 	0 	0 	0
0.0247247247247 	0.000777877708469 	1.24144022218 	-2.75909714318e-05 	5.97008596042e-09 	0 	0 	0
0.0248248248248 	0.000777547956886 	1.24125508866 	-2.76712120547e-05 	6.54978762052e-09 	0 	0 	0
0.0249249249249 	0.000777218205302 	1.24106995514 	-2.77514526776e-05 	7.1294892806e-09 	0 	0 	0
0.025025025025 	0.000776888453718 	1.24088482161 	-2.78316933004e-05 	7.70919094069e-09 	0 	0 	0
0.0251251251251 	0.000776558702135 	1.24069968809 	-2.79119339233e-05 	8.28889260074e-09 	0 	0 	0
0.0252252252252 	0.000776228950551 	1.24051455457 	-2.79921745462e-05 	8.86859426084e-09 	0 	0 	0
0.0253253253253 	0.000775899198968 	1.24032942105 	-2.8072415169e-05 	9.44829592092e-09 	0 	0 	0
0.0254254254254 	0.000775569447384 	1.24014428752 	-2.81526557919e-05 	1.0027997581e-08 	0 	0 	0
0.0255255255255 	0.000775239695801 	1.239959154 	-2.82328964148e-05 	1.06076992411e-08 	0 	0 	0
0.0256256256256 	0.000774909944217 	1.23977402048 	-2.83131370376e-05 	1.11874009011e-08 	0 	0 	0
0.0257257257257 	0.000774580192634 	1.23958888695 	-2.83933776605e-05 	1.17671025613e-08 	0 	0 	0
0.0258258258258 	0.00077425044105 	1.23940375343 	-2.84736182834e-05 	1.23468042213e-08 	0 	0 	0
0.0259259259259 	0.000773920689467 	1.23921861991 	-2.85538589063e-05 	1.29265058814e-08 	0 	0 	0
0.026026026026 	0.000773590937883 	1.23903348638 	-2.86340995291e-05 	1.35062075415e-08 	0 	0 	0
0.0261261261261 	0.000773261186299 	1.23884835286 	-2.8714340152e-05 	1.40859092016e-08 	0 	0 	0
0.0262262262262 	0.000772931434716 	1.23866321934 	-2.87945807749e-05 	1.46656108616e-08 	0 	0 	0
0.0263263263263 	0.000772601683132 	1.23847808581 	-2.88748213977e-05 	1.50267129417e-08 	0 	0 	0
0.0264264264264 	0.000772271931549 	1.23829295229 	-2.89550620206e-05 	1.45751589606e-08 	0 	0 	0
0.0265265265265 	0.000771942179965 	1.23810781877 	-2.90353026435e-05 	1.41236049795e-08 	0 	0 	0
0.0266266266266 	0.000771612428382 	1.23792268524 	-2.91155432664e-05 	1.36720509985e-08 	0 	0 	0
0.0267267267267 	0.000771282676798 	1.23773755172 	-2.91957838892e-05 	1.32204970175e-08 	0 	0 	0
0.0268268268268 	0.000770952925215 	1.2375524182 	-2.92760245121e-05 	1.27689430364e-08 	0 	0 	0
0.0269269269269 	0.000770623173631 	1.23736728468 	-2.9356265135e-05 	1.23173890553e-08 	0 	0 	0
0.027027027027 	0.000770293422048 	1.23718215115 	-2.94365057578e-05 	1.18658350743e-08 	0 	0 	0
0.0271271271271 	0.000769963670464 	1.23699701763 	-2.95167463807e-05 	1.14142810933e-08 	0 	0 	0
0.0272272272272 	0.00076963391888 	1.23681188411 	-2.95969870036e-05 	1.09627271122e-08 	0 	0 	0
0.0273273273273 	0.000769304167297 	1.23662675058 	-2.96772276264e-05 	1.05111731312e-08 	0 	0 	0
0.0274274274274 	0.000768974415713 	1.23644161706 	-2.97574682493e-05 	1.00596191501e-08 	0 	0 	0
0.0275275275275 	0.00076864466413 	1.23625648354 	-2.98377088722e-05 	9.60806516909e-09 	0 	0 	0
0.0276276276276 	0.000768314912546 	1.23607135001 	-2.99179494951e-05 	9.15651118804e-09 	0 	0 	0
0.0277277277277 	0.000767985160963 	1.23588621649 	-2.99981901179e-05 	8.70495720701e-09 	0 	0 	0
0.0278278278278 	0.000767655409379 	1.23570108297 	-3.00784307408e-05 	8.25340322595e-09 	0 	0 	0
0.0279279279279 	0.000767325657796 	1.23551594944 	-3.01586713637e-05 	7.8018492449e-09 	0 	0 	0
0.028028028028 	0.000766995906212 	1.23533081592 	-3.02389119865e-05 	7.35029526385e-09 	0 	0 	0
0.0281281281281 	0.000766666154629 	1.2351456824 	-3.03191526094e-05 	6.89874128281e-09 	0 	0 	0
0.0282282282282 	0.000766336403045 	1.23496054887 	-3.03993932323e-05 	6.44718730176e-09 	0 	0 	0
0.0283283283283 	0.000766006651461 	1.23477541535 	-3.04796338552e-05 	5.99563332072e-09 	0 	0 	0
0.0284284284284 	0.000765676899878 	1.23459028183 	-3.0559874478e-05 	5.54407933967e-09 	0 	0 	0
0.0285285285285 	0.000765347148294 	1.23440514831 	-3.06401151009e-05 	5.09252535861e-09 	0 	0 	0
0.0286286286286 	0.000765017396711 	1.23422001478 	-3.07203557238e-05 	4.64097137759e-09 	0 	0 	0
0.0287287287287 	0.000764687645127 	1.23403488126 	-3.08005963466e-05 	4.18941739653e-09 	0 	0 	0
0.0288288288288 	0.000764357893544 	1.23384974774 	-3.08808369695e-05 	3.73786341548e-09 	0 	0 	0
0.0289289289289 	0.00076402814196 	1.23366461421 	-3.09610775924e-05 	3.28630943444e-09 	0 	0 	0
0.029029029029 	0.000763698390377 	1.23347948069 	-3.10413182152e-05 	2.83475545338e-09 	0 	0 	0
0.0291291291291 	0.000763368638793 	1.23329434717 	-3.11215588381e-05 	2.38320147235e-09 	0 	0 	0
0.0292292292292 	0.00076303888721 	1.23310921364 	-3.1201799461e-05 	1.93164749133e-09 	0 	0 	0
0.0293293293293 	0.000762709135626 	1.23292408012 	-3.12820400839e-05 	1.48009351022e-09 	0 	0 	0
0.0294294294294 	0.000762379384042 	1.2327389466 	-3.13622807067e-05 	1.02853952921e-09 	0 	0 	0
0.0295295295295 	0.000762049632459 	1.23255381307 	-3.14425213296e-05 	5.7698554816e-10 	0 	0 	0
0.0296296296296 	0.000761719880875 	1.23236867955 	-3.15227619525e-05 	1.25431567114e-10 	0 	0 	0
0.0297297297297 	0.000765367356351 	1.23216261915 	-3.16887768652e-05 	-1.59613522768e-09 	0 	0 	0
0.0298298298298 	0.00077054453212 	1.23194850995 	-3.18877818371e-05 	-3.80616771583e-09 	0 	0 	0
0.0299299299299 	0.000775721707889 	1.23173440076 	-3.2086786809e-05 	-6.016200204e-09 	0 	0 	0
0.03003003003 	0.000775172958576 	1.23152230575 	-3.21465209954e-05 	-5.78916201084e-09 	0 	0 	0
0.0301301301301 	0.000769930315135 	1.23131186189 	-3.20920863245e-05 	-3.56430659179e-09 	0 	0 	0
0.0302302302302 	0.000764687671694 	1.23110141804 	-3.20376516536e-05 	-1.33945117272e-09 	0 	0 	0
0.0303303303303 	0.000761396912634 	1.23088028199 	-3.20289929494e-05 	3.1618976338e-10 	0 	0 	0
0.0304304304304 	0.000761058990147 	1.23064297066 	-3.20895847346e-05 	1.11071548238e-09 	0 	0 	0
0.0305305305305 	0.00076072106766 	1.23040565934 	-3.21501765198e-05 	1.90524120136e-09 	0 	0 	0