# Region            : all region0
# Cells             : 3000
# Volume            : 1.395979868100e-03
# Time              	min(p)	min(k)	min(omega)	min(nut)	min(epsilon)	min(nuTilda)
1                   	2.240183536960e-03	4.118545681939e-09	6.197291328243e-06
2                   	1.961975235316e-03	7.888418813800e-08	1.298234023030e-05
3                   	1.330839687813e-03	8.076767938984e-10	4.123580060573e-06
4                   	1.063936114133e-03	9.313819146151e-08	1.353553388732e-05
5                   	1.073307999501e-03	9.141353502368e-10	4.253238391759e-06
6                   	1.036565254458e-03	9.588002274937e-08	1.363458718420e-05
7                   	1.109789715088e-03	1.093707958896e-09	4.448317759752e-06
8                   	1.127901035111e-03	9.717383098832e-08	1.368059692967e-05
9                   	1.242817655945e-03	1.083539883374e-09	4.437940740601e-06
10                  	1.310129604945e-03	9.749226748046e-08	1.369185098795e-05
11                  	1.448893299455e-03	1.064990660963e-09	4.418820723797e-06
12                  	1.553444772430e-03	9.738981652587e-08	1.368823319674e-05
13                  	1.706274275477e-03	1.056328768581e-09	4.409806663828e-06
14                  	1.836173324968e-03	9.716070693959e-08	1.368013251578e-05
15                  	1.994920513010e-03	1.052554075782e-09	4.405861157490e-06
16                  	2.137494471976e-03	9.692700432948e-08	1.367185477013e-05
17                  	2.287759324682e-03	1.048764441295e-09	4.401889346196e-06
18                  	2.420534320661e-03	9.673441602436e-08	1.366502211534e-05
19                  	2.535846600566e-03	1.038304864588e-09	4.390870827743e-06
20                  	2.638838968781e-03	9.658348822236e-08	1.365966040998e-05
21                  	2.713206607563e-03	1.036663041333e-09	4.389133719675e-06
22                  	2.796487745194e-03	9.645101667846e-08	1.365494921868e-05
23                  	2.843213623031e-03	1.038941233653e-09	4.391543575259e-06
24                  	2.916665148609e-03	9.634967605715e-08	1.365134190713e-05
25                  	2.943003540488e-03	1.039062700205e-09	4.391671950407e-06
26                  	3.010350409147e-03	9.627231554447e-08	1.364858628718e-05
27                  	3.020394249046e-03	1.038504756904e-09	4.391082180330e-06
28                  	3.083486333379e-03	9.621243500201e-08	1.364645218008e-05
29                  	3.079898280792e-03	1.038290332565e-09	4.390855461378e-06
30                  	3.139133427004e-03	9.414612948726e-08	1.357219669345e-05
31                  	3.124082432312e-03	1.038131117886e-09	4.390687094972e-06
32                  	3.179550027561e-03	8.704899410443e-08	1.330752376620e-05
33                  	3.155055966750e-03	1.037939107836e-09	4.390484022345e-06
34                  	3.206890646549e-03	8.117664201523e-08	1.307608276143e-05
35                  	3.174851377945e-03	1.037822698173e-09	4.390360892073e-06
36                  	3.223266291374e-03	7.528271292953e-08	1.283088131286e-05
37                  	3.185431433261e-03	1.037863108854e-09	4.390403636934e-06
38                  	3.230784107745e-03	7.036472968146e-08	1.261507444718e-05
39                  	3.188692686822e-03	1.037845667980e-09	4.390385188802e-06
40                  	3.231388990018e-03	6.646729431296e-08	1.243591144475e-05
41                  	3.186343040269e-03	1.037714532491e-09	4.390246472446e-06
42                  	3.226809041522e-03	6.208819973245e-08	1.222499966851e-05
43                  	3.179864384288e-03	1.037674727868e-09	4.390204364140e-06
44                  	3.218491676597e-03	5.839632954230e-08	1.203838156934e-05
45                  	3.170463842719e-03	1.037816586972e-09	4.390354427772e-06
46                  	3.207583151106e-03	5.548602991103e-08	1.188496062617e-05
47                  	3.159049795480e-03	1.037913417341e-09	4.390456849567e-06
48                  	3.195008251711e-03	5.326975805311e-08	1.176404563040e-05
49                  	3.146472793050e-03	1.037934258297e-09	4.390478893037e-06
50                  	3.181565112247e-03	5.160426445976e-08	1.167068383934e-05
51                  	3.133401996647e-03	1.037938099784e-09	4.390482956141e-06
52                  	3.167922418521e-03	5.021521794145e-08	1.159108223672e-05
53                  	3.120387515163e-03	1.037941967521e-09	4.390487046996e-06
54                  	3.154569088647e-03	4.845884519027e-08	1.148804109469e-05
55                  	3.107840892868e-03	1.037946516602e-09	4.390491858487e-06
56                  	3.141895291726e-03	4.708909349129e-08	1.140572833627e-05
57                  	3.096106793285e-03	1.037950419243e-09	4.390495986235e-06
58                  	3.130197894935e-03	4.586141869596e-08	1.133041954227e-05
59                  	3.085410126789e-03	1.037953054683e-09	4.390498773682e-06
60                  	3.119684330324e-03	4.479300317437e-08	1.126364464888e-05
61                  	3.075963655959e-03	1.037952095556e-09	4.390497759235e-06
62                  	3.110570717555e-03	4.342006899573e-08	1.117606783274e-05
63                  	3.067944194448e-03	1.037948891312e-09	4.390494370173e-06
64                  	3.102965129666e-03	4.218442136879e-08	1.109546132944e-05
65                  	3.061364253420e-03	1.037943973232e-09	4.390489168406e-06
66                  	3.096825249801e-03	4.116053416616e-08	1.102732137860e-05
67                  	3.056179239211e-03	1.037938163306e-09	4.390483023327e-06
68                  	3.092075737051e-03	4.031116043724e-08	1.096982754882e-05
69                  	3.052254107126e-03	1.037931847826e-09	4.390476343501e-06
70                  	3.088568332668e-03	3.959795161700e-08	1.092084730253e-05
71                  	3.049450236708e-03	1.037924959636e-09	4.390469057889e-06
72                  	3.086133705087e-03	3.897799079311e-08	1.087773244364e-05
73                  	3.047591479058e-03	1.037918063339e-09	4.390461763666e-06
74                  	3.084582473396e-03	3.844464377052e-08	1.084022908727e-05
75                  	3.046487663831e-03	1.037911036705e-09	4.390454331549e-06
76                  	3.083693779949e-03	3.760964322064e-08	1.078072572336e-05
77                  	3.045944661508e-03	1.037904002896e-09	4.390446891804e-06
78                  	3.083342521528e-03	3.683528306503e-08	1.072465467500e-05
79                  	3.045821289624e-03	1.037897213022e-09	4.390439710036e-06
80                  	3.083323813542e-03	3.621182105774e-08	1.067886630983e-05
81                  	3.045941719273e-03	1.037890832509e-09	4.390432961224e-06
82                  	3.083513111174e-03	3.568349668158e-08	1.063960152611e-05
83                  	3.046217342210e-03	1.037884437360e-09	4.390426196901e-06
84                  	3.083831124680e-03	3.522904497531e-08	1.060547774309e-05
85                  	3.046578987030e-03	1.037878268033e-09	4.390419671407e-06
86                  	3.084202517016e-03	3.483602390068e-08	1.057570029682e-05
87                  	3.046939576375e-03	1.037872439385e-09	4.390413506232e-06
88                  	3.084555137942e-03	3.450006393489e-08	1.055004637293e-05
89                  	3.047274940166e-03	1.037866843772e-09	4.390407587523e-06
90                  	3.084868351684e-03	3.421319900755e-08	1.052799312324e-05
91                  	3.047553393034e-03	1.037861560767e-09	4.390401999450e-06
92                  	3.085125858032e-03	3.380282836694e-08	1.049620357223e-05
93                  	3.047764597793e-03	1.037856572325e-09	4.390396722929e-06
94                  	3.085310725098e-03	3.335972932552e-08	1.046155308414e-05
95                  	3.047915310320e-03	1.037851929445e-09	4.390391811911e-06
96                  	3.085436647339e-03	3.299752551660e-08	1.043297212409e-05
97                  	3.048016945654e-03	1.037847372953e-09	4.390386992253e-06
98                  	3.085521243446e-03	3.268464357294e-08	1.040809364849e-05
99                  	3.048080209389e-03	1.037843165402e-09	4.390382541675e-06
100                 	3.085569356793e-03	3.241755034614e-08	1.038671474676e-05
101                 	3.048104767453e-03	1.037839177190e-09	4.390378323093e-06
102                 	3.085584340685e-03	3.209347933711e-08	1.036059761712e-05
103                 	3.048102724333e-03	1.037835330009e-09	4.390374253677e-06
104                 	3.085578114681e-03	3.166139677560e-08	1.032546726694e-05
105                 	3.048078850804e-03	1.037831659635e-09	4.390370371270e-06
106                 	3.085554055214e-03	3.129362741330e-08	1.029528236349e-05
107                 	3.048039827633e-03	1.037828185617e-09	4.390366696554e-06
108                 	3.085518644605e-03	3.098041031205e-08	1.026936501243e-05
109                 	3.047995478036e-03	1.037824817379e-09	4.390363133720e-06
110                 	3.085479300170e-03	3.071064201730e-08	1.024688534705e-05
111                 	3.047953368305e-03	1.037821640298e-09	4.390359773077e-06
112                 	3.085441386842e-03	3.044605117103e-08	1.022469322443e-05
113                 	3.047907825256e-03	1.037818519051e-09	4.390356471489e-06
114                 	3.085401610804e-03	3.009291250619e-08	1.019484849469e-05
115                 	3.047864982009e-03	1.037815635939e-09	4.390353421787e-06
116                 	3.085363946094e-03	2.973992790226e-08	1.016475390411e-05
117                 	3.047822018311e-03	1.037812846373e-09	4.390350471031e-06
118                 	3.085326310086e-03	2.939986878487e-08	1.013550762250e-05
119                 	3.047781666086e-03	1.037810236048e-09	4.390347709867e-06
120                 	3.085290405513e-03	2.908010734469e-08	1.010777532268e-05
121                 	3.047744047986e-03	1.037807770792e-09	4.390345102150e-06
122                 	3.085256259286e-03	2.880226247381e-08	1.008349259057e-05
123                 	3.047708554662e-03	1.037805411697e-09	4.390342606725e-06
124                 	3.085223373575e-03	2.856229718261e-08	1.006237902055e-05
125                 	3.047674657777e-03	1.037803158890e-09	4.390340223726e-06
126                 	3.085191392202e-03	2.835312419166e-08	1.004386624769e-05
127                 	3.047641922347e-03	1.037801008985e-09	4.390337949573e-06
128                 	3.085160079037e-03	2.817041659652e-08	1.002761202293e-05
129                 	3.047609609329e-03	1.037798953420e-09	4.390335775208e-06
130                 	3.085129061098e-03	2.795508055974e-08	1.000835353555e-05
131                 	3.047578388391e-03	1.037797002357e-09	4.390333711381e-06
132                 	3.085098953648e-03	2.769606297408e-08	9.985040854834e-06
133                 	3.047548450863e-03	1.037795142506e-09	4.390331744036e-06
134                 	3.085070067488e-03	2.743762643125e-08	9.961617384344e-06
135                 	3.047519563495e-03	1.037793375228e-09	4.390329874612e-06
136                 	3.085042449591e-03	2.718679893885e-08	9.938725230107e-06
137                 	3.047491689847e-03	1.037791697990e-09	4.390328100429e-06
138                 	3.085016294336e-03	2.694775025839e-08	9.916760596883e-06
139                 	3.047464518059e-03	1.037790071138e-09	4.390326379543e-06
140                 	3.084990979398e-03	2.673412585023e-08	9.897008381410e-06
141                 	3.047436444440e-03	1.037788464740e-09	4.390324680292e-06
142                 	3.084966314048e-03	2.654772502747e-08	9.879676643181e-06
143                 	3.047411969877e-03	1.037787103867e-09	4.390323240756e-06
144                 	3.084943433993e-03	2.638352341418e-08	9.864333439367e-06
145                 	3.047386044278e-03	1.037785705325e-09	4.390321761371e-06
146                 	3.084917861556e-03	2.623835574608e-08	9.850709190521e-06
147                 	3.047358373149e-03	1.037784373618e-09	4.390320352685e-06
148                 	3.084892781442e-03	2.611003145683e-08	9.838618693913e-06
149                 	3.047329635310e-03	1.037783125409e-09	4.390319032321e-06
150                 	3.084867145836e-03	2.595416381783e-08	9.823873180222e-06
151                 	3.047304505228e-03	1.037781852477e-09	4.390317685804e-06
152                 	3.084844951467e-03	2.576582552758e-08	9.805967211756e-06
153                 	3.047279824079e-03	1.037780674720e-09	4.390316439962e-06
154                 	3.084823165560e-03	2.557580718161e-08	9.787802017900e-06
155                 	3.047255381237e-03	1.037779586661e-09	4.390315289003e-06
156                 	3.084801739690e-03	2.538879326156e-08	9.769825195772e-06
157                 	3.047231183560e-03	1.037778511272e-09	4.390314151446e-06
158                 	3.084780645484e-03	2.520792156062e-08	9.752344322192e-06
159                 	3.047207260022e-03	1.037777479156e-09	4.390313059662e-06
160                 	3.084759859988e-03	2.503726043877e-08	9.735764035688e-06
161                 	3.047181240677e-03	1.037776463772e-09	4.390311985576e-06
162                 	3.084738679826e-03	2.488622267641e-08	9.721019553607e-06
163                 	3.047160391700e-03	1.037775559336e-09	4.390311028853e-06
164                 	3.084719560536e-03	2.475219703973e-08	9.707879652477e-06
165                 	3.047137761378e-03	1.037774683844e-09	4.390310102746e-06
166                 	3.084699641053e-03	2.463252669448e-08	9.696102091679e-06
167                 	3.047115272285e-03	1.037773799017e-09	4.390309166764e-06
168                 	3.084680253513e-03	2.452540744748e-08	9.685523407426e-06
169                 	3.047093606736e-03	1.037772964785e-09	4.390308284301e-06
170                 	3.084661598335e-03	2.442950915605e-08	9.676023497452e-06
171                 	3.047072752212e-03	1.037772172748e-09	4.390307446472e-06
172                 	3.084643589123e-03	2.434367086175e-08	9.667496463389e-06
173                 	3.047052577195e-03	1.037771414722e-09	4.390306644620e-06
174                 	3.084626096586e-03	2.421296615205e-08	9.654469168340e-06
175                 	3.047032959812e-03	1.037770687148e-09	4.390305874980e-06
176                 	3.084609025485e-03	2.407467735011e-08	9.640628565250e-06
177                 	3.047013820684e-03	1.037769988582e-09	4.390305136026e-06
178                 	3.084592317881e-03	2.393504112392e-08	9.626592623230e-06
179                 	3.046995117912e-03	1.037769318140e-09	4.390304426820e-06
180                 	3.084575952267e-03	2.379677874098e-08	9.612634286841e-06
181                 	3.046976835273e-03	1.037768675173e-09	4.390303746678e-06
182                 	3.084559924816e-03	2.366180412988e-08	9.598949218719e-06
183                 	3.046958970743e-03	1.037768058671e-09	4.390303094531e-06
184                 	3.084544073486e-03	2.353133428838e-08	9.585665263858e-06
185                 	3.046941427898e-03	1.037767468910e-09	4.390302470671e-06
186                 	3.084528495869e-03	2.341260916927e-08	9.573529140546e-06
187                 	3.046924280015e-03	1.037766902797e-09	4.390301871826e-06
188                 	3.084513367187e-03	2.330627022521e-08	9.562619985229e-06
189                 	3.046907581418e-03	1.037766359242e-09	4.390301296842e-06
190                 	3.084498681959e-03	2.321039318207e-08	9.552752129927e-06
191                 	3.046891380369e-03	1.037765837252e-09	4.390300744671e-06
192                 	3.084484415721e-03	2.312365270425e-08	9.543798317104e-06
193                 	3.046875444651e-03	1.037765334089e-09	4.390300212415e-06
194                 	3.084470271334e-03	2.304504836289e-08	9.535662629246e-06
195                 	3.046860008242e-03	1.037764862709e-09	4.390299713779e-06
196                 	3.084456546411e-03	2.297377986684e-08	9.528268248602e-06
197                 	3.046844937585e-03	1.037764401045e-09	4.390299225421e-06
198                 	3.084443126496e-03	2.290918560889e-08	9.521551504301e-06
199                 	3.046830187133e-03	1.037763958977e-09	4.390298757792e-06
200                 	3.084429955824e-03	2.284541118172e-08	9.514906093606e-06
201                 	3.046815553828e-03	1.037763523629e-09	4.390298297271e-06
202                 	3.084416842359e-03	2.274917221632e-08	9.504851493302e-06
203                 	3.046801458927e-03	1.037763095561e-09	4.390297844451e-06
204                 	3.084404216075e-03	2.264887669875e-08	9.494339160410e-06
205                 	3.046787664793e-03	1.037762694583e-09	4.390297420288e-06
206                 	3.084392375088e-03	2.254695740861e-08	9.483620892598e-06
207                 	3.046774669977e-03	1.037762341982e-09	4.390297047299e-06
208                 	3.084380443085e-03	2.244506703953e-08	9.472869369254e-06
209                 	3.046761552574e-03	1.037761958890e-09	4.390296642055e-06
210                 	3.084368624646e-03	2.234453517570e-08	9.462225345011e-06
211                 	3.046748593413e-03	1.037761624660e-09	4.390296288499e-06
212                 	3.084357096693e-03	2.224627295072e-08	9.451786939418e-06
213                 	3.046735832730e-03	1.037761299075e-09	4.390295944087e-06
214                 	3.084345628171e-03	2.215170811209e-08	9.441708680911e-06
215                 	3.046723408940e-03	1.037760991420e-09	4.390295618642e-06
216                 	3.084334531775e-03	2.206572610086e-08	9.432517157872e-06
217                 	3.046711194253e-03	1.037760689333e-09	4.390295299088e-06
218                 	3.084323545621e-03	2.198773496612e-08	9.424156655940e-06
219                 	3.046699277246e-03	1.037760404927e-09	4.390294998236e-06
220                 	3.084312851992e-03	2.191660638282e-08	9.416512437856e-06
221                 	3.046687616651e-03	1.037760128243e-09	4.390294705553e-06
222                 	3.084302338512e-03	2.185152406124e-08	9.409501733536e-06
223                 	3.046676048887e-03	1.037759860927e-09	4.390294422779e-06
224                 	3.084291873994e-03	2.179185808837e-08	9.403060740281e-06
225                 	3.046664765233e-03	1.037759612190e-09	4.390294159659e-06
226                 	3.084281712670e-03	2.173709973230e-08	9.397137905676e-06
227                 	3.046653708906e-03	1.037759367792e-09	4.390293901128e-06
228                 	3.084271711915e-03	2.168681695717e-08	9.391689322890e-06
229                 	3.046642502372e-03	1.037759128062e-09	4.390293647536e-06
230                 	3.084261518646e-03	2.164065276053e-08	9.386678694988e-06
231                 	3.046631870154e-03	1.037758919793e-09	4.390293427223e-06
232                 	3.084251964455e-03	2.159828790330e-08	9.382073401902e-06
233                 	3.046621540629e-03	1.037758702770e-09	4.390293197652e-06
234                 	3.084242844354e-03	2.154648989833e-08	9.376433480189e-06
235                 	3.046611575781e-03	1.037758497658e-09	4.390292980679e-06
236                 	3.084233657584e-03	2.147642880580e-08	9.368788854624e-06
237                 	3.046601534983e-03	1.037758292937e-09	4.390292764119e-06
238                 	3.084224503440e-03	2.140353264882e-08	9.360815049943e-06
239                 	3.046591721568e-03	1.037758111587e-09	4.390292572283e-06
240                 	3.084215657470e-03	2.132914116173e-08	9.352656698932e-06
241                 	3.046582189498e-03	1.037757932337e-09	4.390292382667e-06
242                 	3.084207039801e-03	2.125421928951e-08	9.344418632810e-06
243                 	3.046572881473e-03	1.037757759321e-09	4.390292199646e-06
244                 	3.084198646155e-03	2.117960810096e-08	9.336193104634e-06
245                 	3.046563819575e-03	1.037757595024e-09	4.390292025848e-06
246                 	3.084190514668e-03	2.110591275771e-08	9.328047230837e-06
247                 	3.046554907868e-03	1.037757435451e-09	4.390291857048e-06
248                 	3.084182387951e-03	2.103358466791e-08	9.320031764122e-06
249                 	3.046546124706e-03	1.037757282234e-09	4.390291694971e-06
250                 	3.084174373280e-03	2.096351224029e-08	9.312246577328e-06
251                 	3.046537648988e-03	1.037757143228e-09	4.390291547927e-06
252                 	3.084166758127e-03	2.089898761411e-08	9.305060521965e-06
253                 	3.046529271596e-03	1.037756999450e-09	4.390291395834e-06
254                 	3.084159145876e-03	2.083970296874e-08	9.298443389353e-06
255                 	3.046521295884e-03	1.037756873520e-09	4.390291262622e-06
256                 	3.084151995216e-03	2.078500124517e-08	9.292325278508e-06
257                 	3.046513456839e-03	1.037756742591e-09	4.390291124122e-06
258                 	3.084144923227e-03	2.073438866244e-08	9.286653776280e-06
259                 	3.046505993016e-03	1.037756622975e-09	4.390290997589e-06
260                 	3.084138233757e-03	2.068747544520e-08	9.281387555217e-06
261                 	3.046498779014e-03	1.037756507238e-09	4.390290875159e-06
262                 	3.084131726275e-03	2.064394143238e-08	9.276492664803e-06
263                 	3.046491528447e-03	1.037756381350e-09	4.390290741991e-06
264                 	3.084124827549e-03	2.060350929745e-08	9.271939620857e-06
265                 	3.046484250718e-03	1.037756294183e-09	4.390290649784e-06
266                 	3.084118429456e-03	2.056592901332e-08	9.267701723131e-06
267                 	3.046477463291e-03	1.037756189172e-09	4.390290538700e-06
268                 	3.084112419709e-03	2.053099269173e-08	9.263756781889e-06
269                 	3.046471026979e-03	1.037756087900e-09	4.390290431571e-06
270                 	3.084106662916e-03	2.049853435063e-08	9.260087145164e-06
271                 	3.046464795358e-03	1.037755994145e-09	4.390290332396e-06
272                 	3.084100994297e-03	2.046839948109e-08	9.256676298101e-06
273                 	3.046458535527e-03	1.037755898959e-09	4.390290231704e-06
274                 	3.084095228273e-03	2.044043818350e-08	9.253508106322e-06
275                 	3.046452414661e-03	1.037755816987e-09	4.390290144992e-06
276                 	3.084089719314e-03	2.039583626316e-08	9.248447707356e-06
277                 	3.046446485264e-03	1.037755735213e-09	4.390290058489e-06
278                 	3.084084335590e-03	2.034505490260e-08	9.242676115955e-06
279                 	3.046443632349e-03	1.037755674628e-09	4.390289994401e-06
280                 	3.084080755987e-03	2.029230832838e-08	9.236669740971e-06
281                 	3.046435958978e-03	1.037755569465e-09	4.390289883157e-06
282                 	3.084074307827e-03	2.023833945600e-08	9.230512074890e-06
283                 	3.046429580500e-03	1.037755494370e-09	4.390289803720e-06
284                 	3.084068962084e-03	2.018370770934e-08	9.224266248722e-06
285                 	3.046424092092e-03	1.037755440068e-09	4.390289746277e-06
286                 	3.084064068313e-03	2.012890388228e-08	9.217988024971e-06
287                 	3.046418866657e-03	1.037755371539e-09	4.390289673785e-06
288                 	3.084059314889e-03	2.007432760143e-08	9.211723143155e-06
289                 	3.046413473343e-03	1.037755302171e-09	4.390289600406e-06
290                 	3.084054321596e-03	2.002029188346e-08	9.205507742966e-06
291                 	3.046408471800e-03	1.037755255548e-09	4.390289551086e-06
292                 	3.084049890687e-03	1.996704628790e-08	9.199370933275e-06
293                 	3.046403719449e-03	1.037755196158e-09	4.390289488262e-06
294                 	3.084045619453e-03	1.991491864988e-08	9.193351098096e-06
295                 	3.046399007376e-03	1.037755134419e-09	4.390289422953e-06
296                 	3.084041296973e-03	1.986624098525e-08	9.187719018143e-06
297                 	3.046394468547e-03	1.037755085069e-09	4.390289370749e-06
298                 	3.084037218523e-03	1.982112097345e-08	9.182489333481e-06
299                 	3.046390339510e-03	1.037755025426e-09	4.390289307657e-06
300                 	3.084033076648e-03	1.977910454576e-08	9.177611356014e-06
301                 	3.046385443347e-03	1.037754990504e-09	4.390289270715e-06
302                 	3.084028893080e-03	1.973985374868e-08	9.173047448694e-06
303                 	3.046381112290e-03	1.037754940773e-09	4.390289218109e-06
304                 	3.084025354898e-03	1.970310662225e-08	9.168768497371e-06
305                 	3.046377387177e-03	1.037754902475e-09	4.390289177595e-06
306                 	3.084021829461e-03	1.966865061691e-08	9.164750902499e-06
307                 	3.046373550305e-03	1.037754846160e-09	4.390289118024e-06
308                 	3.084018267565e-03	1.963630797985e-08	9.160974932483e-06
309                 	3.046369690118e-03	1.037754806220e-09	4.390289075775e-06
310                 	3.084014745618e-03	1.960592671120e-08	9.157423708212e-06
311                 	3.046365912231e-03	1.037754769030e-09	4.390289036434e-06
312                 	3.084011330962e-03	1.957736835942e-08	9.154081805058e-06
313                 	3.046362252400e-03	1.037754732204e-09	4.390288997478e-06
314                 	3.084006694652e-03	1.955050652910e-08	9.150935097740e-06
315                 	3.046357897305e-03	1.037754688805e-09	4.390288951570e-06
316                 	3.084004646050e-03	1.952523274716e-08	9.147971465284e-06
317                 	3.046355420129e-03	1.037754681905e-09	4.390288944271e-06
318                 	3.084002054633e-03	1.950145900837e-08	9.145181108001e-06
319                 	3.046352236819e-03	1.037754625501e-09	4.390288884605e-06
320                 	3.083998828490e-03	1.947911214459e-08	9.142555902906e-06
321                 	3.046348665142e-03	1.037754591877e-09	4.390288849036e-06
322                 	3.083995575445e-03	1.945811660217e-08	9.140087390302e-06
323                 	3.046345215506e-03	1.037754564762e-09	4.390288820354e-06
324                 	3.083992419841e-03	1.943839874508e-08	9.137767283419e-06
325                 	3.046341967318e-03	1.037754539035e-09	4.390288793138e-06
326                 	3.083989533175e-03	1.941360927187e-08	9.134847923003e-06
327                 	3.046338868673e-03	1.037754509605e-09	4.390288762007e-06
328                 	3.083986717852e-03	1.937769953479e-08	9.130614020245e-06
329                 	3.046335866954e-03	1.037754483084e-09	4.390288733952e-06
330                 	3.083984416623e-03	1.933996804411e-08	9.126158994217e-06
331                 	3.046333413702e-03	1.037754470958e-09	4.390288721125e-06
332                 	3.083981914398e-03	1.930092009517e-08	9.121541677035e-06
333                 	3.046330686364e-03	1.037754428540e-09	4.390288676254e-06
334                 	3.083979292288e-03	1.926094761977e-08	9.116807789911e-06
335                 	3.046327457969e-03	1.037754396984e-09	4.390288642872e-06
336                 	3.083976272246e-03	1.922035993183e-08	9.111993514740e-06
337                 	3.046324722926e-03	1.037754392852e-09	4.390288638501e-06
338                 	3.083973879301e-03	1.917944652185e-08	9.107132897672e-06
339                 	3.046322211391e-03	1.037754370091e-09	4.390288614425e-06
340                 	3.083971494162e-03	1.913844385412e-08	9.102253884828e-06
341                 	3.046319969276e-03	1.037754359220e-09	4.390288602925e-06
342                 	3.083969919665e-03	1.909755067819e-08	9.097380102587e-06
343                 	3.046318040663e-03	1.037754329112e-09	4.390288571076e-06
344                 	3.083968112478e-03	1.905693710136e-08	9.092531907018e-06
345                 	3.046315932725e-03	1.037754306723e-09	4.390288547392e-06
346                 	3.083965923587e-03	1.901674169117e-08	9.087726009625e-06
347                 	3.046313505109e-03	1.037754282222e-09	4.390288521474e-06
348                 	3.083963611733e-03	1.897706217466e-08	9.082974331494e-06
349                 	3.046311054456e-03	1.037754267491e-09	4.390288505892e-06
350                 	3.083961387931e-03	1.893843444425e-08	9.078341457966e-06
351                 	3.046311604591e-03	1.037754269825e-09	4.390288508360e-06
352                 	3.083960888315e-03	1.890225117211e-08	9.073995344602e-06
353                 	3.046307133327e-03	1.037754214159e-09	4.390288449476e-06
354                 	3.083957259668e-03	1.886824203470e-08	9.069904694691e-06
355                 	3.046304016222e-03	1.037754220274e-09	4.390288455944e-06
356                 	3.083954907228e-03	1.883618569476e-08	9.066043873734e-06
357                 	3.046301873921e-03	1.037754210398e-09	4.390288445496e-06
358                 	3.083953160544e-03	1.880590491744e-08	9.062392379817e-06
359                 	3.046300290107e-03	1.037754185632e-09	4.390288419299e-06
360                 	3.083951451520e-03	1.877725416932e-08	9.058933393835e-06
361                 	3.046298096940e-03	1.037754188118e-09	4.390288421928e-06
362                 	3.083949669751e-03	1.875011119645e-08	9.055652794870e-06
363                 	3.046296326197e-03	1.037754170691e-09	4.390288403494e-06
364                 	3.083948187567e-03	1.872437256856e-08	9.052538645228e-06
365                 	3.046294800353e-03	1.037754156305e-09	4.390288388275e-06
366                 	3.083947052941e-03	1.869995166182e-08	9.049580964901e-06
367                 	3.046293522110e-03	1.037754150443e-09	4.390288382074e-06
368                 	3.083945660357e-03	1.867676509510e-08	9.046770102117e-06
369                 	3.046291975371e-03	1.037754126442e-09	4.390288356686e-06
370                 	3.083944160716e-03	1.865473946031e-08	9.044097556932e-06
371                 	3.046290117039e-03	1.037754105309e-09	4.390288334330e-06
372                 	3.083942260476e-03	1.863381307871e-08	9.041556204120e-06
373                 	3.046288285846e-03	1.037754117101e-09	4.390288346804e-06
374                 	3.083940738570e-03	1.861393303394e-08	9.039139941775e-06
375                 	3.046286766077e-03	1.037754103476e-09	4.390288332391e-06
376                 	3.083939431277e-03	1.859505000960e-08	9.036843070125e-06
377                 	3.046285052162e-03	1.037754079390e-09	4.390288306913e-06
378                 	3.083937791684e-03	1.857711985252e-08	9.034660485872e-06
379                 	3.046283645798e-03	1.037754087463e-09	4.390288315452e-06
380                 	3.083936590478e-03	1.856010572527e-08	9.032587948787e-06
381                 	3.046282392274e-03	1.037754074695e-09	4.390288301946e-06
382                 	3.083935477643e-03	1.854397160366e-08	9.030621293592e-06