# y+ ()         
# Time          	patch           	min             	max             	average         
0               	bottom	2.58499413e-01	2.58499413e-01	2.58499413e-01
