/*--------------------------------*- C++ -*----------------------------------*\
| =========                 |                                                 |
| \\      /  F ield         | OpenFOAM: The Open Source CFD Toolbox           |
|  \\    /   O peration     | Version:  2206                                  |
|   \\  /    A nd           | Website:  www.openfoam.com                      |
|    \\/     M anipulation  |                                                 |
\*---------------------------------------------------------------------------*/
FoamFile
{
    version     2.0;
    format      ascii;
    arch        "LSB;label=32;scalar=64";
    class       volScalarField;
    location    "600";
    object      p;
}
// * * * * * * * * * * * * * * * * * * * * * * * * * * * * * * * * * * * * * //

dimensions      [0 2 -2 0 0 0 0];

internalField   nonuniform List<scalar> 
3000
(
0.307111928783
0.307255992653
0.30754033632
0.307928284507
0.30839507531
0.308921054609
0.309490151155
0.310089063212
0.310706733968
0.31133397236
0.311963163054
0.312588036012
0.313203477545
0.313805371371
0.314390462173
0.314956236745
0.315500819435
0.316022879797
0.316521551004
0.316996356165
0.317447134169
0.317873964965
0.318277162783
0.3186574432
0.319015955568
0.319353378634
0.319669692236
0.319969703445
0.320261701554
0.32050401074
0.280209345574
0.280126042346
0.279957789869
0.279725709579
0.27944239303
0.279118156429
0.278761647291
0.278380339826
0.277980813501
0.277568902973
0.277149782792
0.276728017897
0.276307597701
0.275891964133
0.275484039314
0.275086255563
0.27470058866
0.274328594612
0.273971450308
0.273629994561
0.27330474852
0.272995891906
0.272703302989
0.272427017572
0.272168281895
0.271930696308
0.27172173346
0.271555530061
0.271449149508
0.271402417992
0.257730258628
0.257697751412
0.257632516265
0.25754657722
0.257447068625
0.257340007761
0.257230028115
0.257120636618
0.25701437511
0.256912977127
0.256817521183
0.256728571138
0.256646300129
0.25657059675
0.256501153498
0.256437538438
0.256379251586
0.256325767526
0.256276565962
0.256231153588
0.256189079267
0.256149941574
0.256113426634
0.256079489894
0.256048679293
0.256022240752
0.256001659728
0.255987550069
0.255978260546
0.255971619417
0.251474617093
0.251482031326
0.251496218162
0.251515705222
0.251537747675
0.2515607093
0.251583182683
0.251604112984
0.251622740233
0.251638560671
0.251651290174
0.251660826554
0.251667213032
0.251670604093
0.251671234534
0.251669392335
0.251665395798
0.251659574655
0.251652253691
0.251643739365
0.251634317252
0.251624274525
0.251613962853
0.251603904435
0.251594870161
0.251587731294
0.251582919929
0.251579815143
0.251577146051
0.251574834855
0.247152251421
0.247144989269
0.247129740782
0.247109254212
0.247084263888
0.247056079113
0.247025610758
0.246993688128
0.246961024074
0.246928225884
0.246895801164
0.246864162539
0.246833633964
0.246804458482
0.246776807084
0.246750788243
0.246726457722
0.246703827953
0.24668287548
0.246663547737
0.246645781225
0.246629551738
0.246614960761
0.246602310342
0.246592049126
0.246584486407
0.246579422658
0.246576114126
0.24657372947
0.246572011924
0.240224632997
0.240219246299
0.240207435307
0.24019202076
0.240173901384
0.240154371191
0.240134173408
0.240113928933
0.24009407737
0.24007492358
0.240056666663
0.240039424504
0.240023254645
0.240008171096
0.239994157547
0.239981177491
0.239969181776
0.239958114033
0.239947914403
0.239938524282
0.239929900436
0.23992204726
0.239915059979
0.239909135649
0.239904477242
0.239901101716
0.239898749895
0.239897011351
0.239895529289
0.239894329334
0.233574424605
0.233573793172
0.233571588753
0.233569019027
0.233565759242
0.233562135736
0.233558146254
0.233553887332
0.233549418645
0.233544795768
0.233540068555
0.233535281798
0.233530475863
0.233525686854
0.233520946697
0.233516283166
0.233511719865
0.233507276308
0.233502969182
0.233498817658
0.233494855956
0.233491151657
0.233487818814
0.233484996804
0.233482767648
0.23348107485
0.233479747771
0.233478583832
0.233477435487
0.233476444519
0.228035478678
0.228034435751
0.228031668233
0.228028323527
0.228024111916
0.228019418963
0.22801428983
0.228008876904
0.228003275275
0.227997572727
0.227991842349
0.227986144499
0.227980528324
0.227975033023
0.227969689136
0.227964519757
0.227959541518
0.22795476569
0.227950201275
0.227945863624
0.22794178961
0.227938053227
0.227934766179
0.227932037783
0.227929899579
0.227928270684
0.227926999428
0.227925918577
0.227924902334
0.227924052503
0.222931021436
0.222929556391
0.22292598591
0.222921532142
0.222916062369
0.222910066748
0.222903653252
0.222897025608
0.222890303482
0.222883591439
0.222876968378
0.222870494271
0.222864213747
0.222858159
0.222852352263
0.222846807787
0.222841533387
0.22283653221
0.222831807181
0.222827371386
0.222823263677
0.22281956107
0.222816369126
0.222813771317
0.222811766356
0.222810258323
0.222809101365
0.22280814616
0.222807278366
0.222806567032
0.21797056219
0.217969459633
0.217966610081
0.217963090697
0.217958729541
0.217953955188
0.217948823284
0.217943506019
0.217938092815
0.217932669734
0.217927300934
0.217922036616
0.217916915044
0.217911964639
0.217907205792
0.217902652292
0.217898312601
0.21789419191
0.217890297346
0.217886648123
0.217883288133
0.217880292042
0.217877747205
0.217875704696
0.217874138033
0.217872951409
0.217872023238
0.217871239296
0.217870514356
0.217869914369
0.213214408294
0.213213581111
0.213211321198
0.213208582496
0.213205153598
0.213201407506
0.213197360045
0.213193158324
0.213188866729
0.213184555573
0.213180275519
0.213176067312
0.213171962294
0.213167984096
0.213164150001
0.213160472025
0.213156958095
0.213153614546
0.213150451849
0.213147493771
0.213144786345
0.213142397752
0.213140394959
0.213138802173
0.213137578438
0.21313663605
0.213135878565
0.213135220307
0.213134598413
0.213134078238
0.208688935947
0.208688208371
0.208686187863
0.208683759607
0.208680709475
0.208677386834
0.208673794059
0.208670069876
0.208666267126
0.208662449792
0.208658661753
0.208654938934
0.208651308676
0.208647791543
0.208644402495
0.208641151891
0.208638046813
0.208635094094
0.208632306446
0.20862971067
0.208627353759
0.208625297705
0.208623593284
0.208622246508
0.208621209215
0.208620401833
0.208619744483
0.208619167661
0.208618620155
0.20861816164
0.204353672637
0.204353016538
0.204351165123
0.204348949421
0.204346159224
0.204343125939
0.204339843755
0.20433644551
0.204332976068
0.204329495639
0.204326043559
0.204322652801
0.204319348172
0.204316148322
0.204313066762
0.204310112848
0.204307293337
0.204304615898
0.204302095318
0.204299760661
0.204297658788
0.204295845029
0.204294356419
0.204293186123
0.204292282962
0.204291575062
0.204290994418
0.204290482563
0.204289996276
0.204289589207
0.200174227037
0.200173651595
0.200171982563
0.20016999937
0.200167492109
0.20016477226
0.200161825058
0.200158775799
0.200155661218
0.200152537201
0.200149438327
0.200146394516
0.200143427998
0.200140555566
0.200137789374
0.200135137949
0.200132607993
0.200130208213
0.200127955256
0.200125879584
0.200124026423
0.200122443333
0.200121155039
0.200120145529
0.200119363629
0.200118745401
0.200118233142
0.200117777924
0.200117343628
0.20011697952
0.196135340493
0.196134837111
0.196133332421
0.196131559772
0.196129309066
0.196126873027
0.196124229294
0.196121495827
0.196118702193
0.196115900221
0.196113120126
0.196110389053
0.196107726863
0.196105148664
0.196102665397
0.196100284911
0.196098014025
0.196095862517
0.196093848582
0.196092003361
0.196090369435
0.196088986404
0.196087868623
0.196086993981
0.196086313123
0.196085769583
0.196085314374
0.196084906419
0.196084515386
0.19608418694
0.192225769635
0.192225322639
0.192223949285
0.192222343774
0.1922202975
0.192218087284
0.192215685483
0.192213203927
0.192210666597
0.192208122107
0.192205597142
0.192203116665
0.192200698606
0.192198356718
0.19219610096
0.192193938706
0.192191877025
0.192189926729
0.192188107256
0.192186449892
0.192184994067
0.192183771927
0.192182789544
0.192182021028
0.192181419642
0.192180935388
0.192180526249
0.192180157217
0.192179802354
0.19217950395
0.188433312645
0.188432911955
0.188431647639
0.188430179986
0.18842830286
0.188426279221
0.18842407763
0.188421804558
0.188419479518
0.188417148437
0.188414835073
0.188412562601
0.188410347332
0.188408201898
0.188406135457
0.188404155066
0.188402268145
0.188400486458
0.188398830388
0.188397330895
0.188396023906
0.188394934775
0.188394063067
0.18839338076
0.188392844057
0.188392408531
0.188392037806
0.188391701683
0.188391377679
0.188391105008
0.184747007227
0.18474664707
0.184745478554
0.184744131748
0.184742403136
0.184740543086
0.184738517167
0.18473642688
0.184734287964
0.184732143927
0.184730015973
0.184727925716
0.184725888041
0.18472391461
0.184722013911
0.184720192806
0.184718459126
0.184716825485
0.18471531293
0.184713951646
0.184712773829
0.184711798731
0.184711020879
0.184710411288
0.184709929217
0.184709535113
0.184709197303
0.184708889544
0.184708592203
0.184708341772
0.181157939928
0.181157615266
0.181156531202
0.181155290709
0.181153692957
0.181151976856
0.18115010563
0.181148176181
0.181146201057
0.181144221571
0.181142256697
0.18114032668
0.181138445142
0.181136622907
0.181134867904
0.181133186902
0.181131588174
0.181130085074
0.181128699049
0.181127459145
0.181126393761
0.181125516779
0.181124818907
0.181124271009
0.181123835364
0.181123476676
0.181123167227
0.181122884054
0.181122609889
0.181122378807
0.177658521726
0.17765822785
0.177657217708
0.177656069978
0.177654586635
0.177652996223
0.177651260204
0.177649471265
0.177647639287
0.177645803608
0.177643981273
0.177642191325
0.177640446283
0.177638756246
0.177637128686
0.177635570367
0.177634090007
0.177632701585
0.177631426716
0.177630293027
0.177629325191
0.177628532457
0.177627902705
0.177627407189
0.177627011067
0.177626682745
0.177626397826
0.177626136077
0.177625882191
0.177625668065
0.174242009648
0.174241742675
0.174240797685
0.174239731446
0.174238348804
0.174236868887
0.174235251845
0.174233586493
0.174231880469
0.174230171321
0.174228474418
0.174226807741
0.174225182836
0.174223609176
0.17422209387
0.174220643737
0.174219267928
0.174217980937
0.174216804332
0.174215764114
0.174214881384
0.174214161454
0.17421359016
0.174213139507
0.174212777341
0.174212475294
0.174212211778
0.174211968846
0.174211732834
0.174211533675
0.17090242298
0.170902179774
0.170901292793
0.170900298902
0.170899005815
0.170897624049
0.170896112779
0.17089455724
0.170892963168
0.170891366467
0.170889781043
0.170888223922
0.170886705789
0.170885235576
0.170883820103
0.170882466294
0.170881183709
0.170879987244
0.170878898229
0.170877940888
0.17087713297
0.170876476468
0.170875955803
0.17087554395
0.170875211251
0.170874932158
0.170874687472
0.170874461187
0.170874241033
0.170874055165
0.167634478393
0.167634256306
0.167633421267
0.167632491985
0.167631279002
0.167629984931
0.167628568242
0.167627110843
0.167625616855
0.167624120664
0.16762263489
0.167621175698
0.167619753008
0.167618375281
0.167617049117
0.167615781578
0.1676145826
0.167613467373
0.167612456822
0.167611573299
0.167610831454
0.167610230516
0.167609753975
0.167609375911
0.167609068966
0.167608810059
0.167608582046
0.167608370572
0.167608164564
0.167607990562
0.164433476067
0.164433272811
0.164432484467
0.164431613109
0.164430472052
0.164429256643
0.164427924857
0.164426555514
0.164425151353
0.16442374536
0.164422349019
0.164420977716
0.164419640688
0.16441834599
0.16441710006
0.164415910117
0.164414786436
0.164413744405
0.164412804387
0.164411986829
0.164411303549
0.164410751497
0.164410313606
0.164409965136
0.164409680831
0.164409439779
0.164409226607
0.164409028381
0.164408835053
0.164408671697
0.161295202622
0.161295016234
0.161294270054
0.161293450857
0.161292374671
0.161291230135
0.161289974904
0.161288684919
0.161287361741
0.161286037051
0.161284721332
0.161283429259
0.161282169459
0.161280949639
0.16127977612
0.161278656294
0.161277600733
0.161276624925
0.161275748551
0.161274990151
0.161274358983
0.161273850137
0.161273446282
0.161273123878
0.161272859592
0.161272634423
0.161272434531
0.16127224821
0.161272066304
0.161271912544
0.158215864032
0.158215692821
0.158214984884
0.158214212874
0.158213195458
0.158212115069
0.158210929174
0.158209711033
0.158208461191
0.158207210117
0.158205967403
0.158204747072
0.15820355721
0.158202405222
0.158201297355
0.158200241178
0.158199247516
0.158198331868
0.158197513131
0.158196807971
0.158196223356
0.15819575287
0.158195379141
0.158195079824
0.158194833338
0.158194622372
0.158194434422
0.15819425885
0.158194087275
0.158193942201
0.155192031814
0.155191874314
0.1551912012
0.155190472048
0.155189508083
0.155188485985
0.155187363136
0.155186210295
0.155185027127
0.15518384297
0.155182666626
0.155181511514
0.155180385239
0.15517929495
0.155178246848
0.155177248681
0.155176311484
0.155175450684
0.155174684312
0.155174027219
0.155173484337
0.15517304805
0.155172701111
0.155172422344
0.155172191765
0.155171993561
0.155171816397
0.155171650569
0.155171488375
0.155171351194
0.152220595679
0.152220450606
0.152219809316
0.152219119226
0.152218204047
0.152217235106
0.152216169788
0.152215076506
0.152213954171
0.152212831059
0.152211715265
0.152210619654
0.152209551399
0.152208517431
0.152207523937
0.152206578831
0.152205693322
0.152204882684
0.152204164023
0.152203550452
0.152203045107
0.152202639426
0.15220231641
0.152202056018
0.152201839719
0.152201653032
0.152201485651
0.152201328688
0.152201175045
0.152201045061
0.149298723268
0.149298589498
0.149297977383
0.149297323018
0.149296452515
0.149295532211
0.149294519563
0.149293480788
0.149292414139
0.149291346899
0.14929028653
0.149289245383
0.149288230247
0.149287247868
0.149286304439
0.149285408034
0.149284569991
0.149283805363
0.149283130287
0.149282556232
0.149282084753
0.149281706561
0.149281404998
0.149281161107
0.149280957681
0.14928078143
0.149280622952
0.149280474085
0.149280328261
0.149280204862
0.146423826614
0.146423703154
0.146423117872
0.146422496281
0.146421666815
0.146420791153
0.146419826877
0.14641883814
0.146417822626
0.146416806683
0.146415797206
0.146414806069
0.146413839717
0.146412904743
0.146412007364
0.146411155798
0.146410361475
0.146409639162
0.146409004
0.146408465916
0.146408025085
0.146407671667
0.146407389414
0.146407160398
0.146406968624
0.146406801865
0.14640665152
0.146406510069
0.146406371418
0.146406254063
0.14359353375
0.143593419721
0.14359285919
0.143592267753
0.143591476092
0.143590641525
0.143589721799
0.143588779132
0.143587810709
0.143586842001
0.143585879389
0.143584934305
0.143584012889
0.143583121608
0.143582266709
0.143581456549
0.143580702605
0.143580019303
0.14357942078
0.14357891552
0.143578502501
0.143578171484
0.143577906673
0.143577691119
0.14357750993
0.143577351833
0.143577208941
0.143577074306
0.143576942254
0.143576830462
0.140805664346
0.14080555897
0.140805021327
0.140804457711
0.14080370097
0.140802904336
0.140802025752
0.140801125617
0.140800200679
0.140799275581
0.140798356242
0.140797453683
0.140796573773
0.140795722873
0.140794907274
0.140794135451
0.140793418894
0.140792771639
0.14079220682
0.140791731584
0.140791343871
0.14079103317
0.140790784167
0.140790580838
0.140790409298
0.140790259133
0.140790123091
0.140789994735
0.140789868772
0.140789762114
0.138058208738
0.138058111318
0.138057594898
0.138057057013
0.13805633261
0.138055571078
0.138054730586
0.138053869815
0.138052985132
0.138052100401
0.138051221121
0.138050357929
0.138049516455
0.138048702974
0.138047923826
0.13804718759
0.138046505731
0.138045891853
0.138045358101
0.138044910386
0.13804454576
0.138044253537
0.138044018907
0.138043826715
0.138043663998
0.138043521117
0.13804339139
0.138043268835
0.138043148503
0.138043046595
0.135349309825
0.135349219739
0.135348723042
0.135348209015
0.135347514628
0.135346785657
0.135345980515
0.135345156264
0.135344308936
0.135343461658
0.135342619549
0.135341792888
0.135340987094
0.135340208373
0.135339463116
0.13533875999
0.135338110403
0.135337527492
0.13533702243
0.135336599996
0.135336256481
0.135335981111
0.135335759588
0.135335577573
0.13533542295
0.135335286777
0.135335162885
0.135335045704
0.135334930593
0.135334833091
0.132677247372
0.132677164059
0.132676685734
0.132676193876
0.132675527413
0.132674828714
0.132674056451
0.132673266158
0.13267245357
0.13267164112
0.13267083358
0.132670040895
0.132669268298
0.132668521941
0.132667808267
0.132667136015
0.132666516503
0.132665962373
0.132665483856
0.132665084692
0.132664760526
0.132664500569
0.132664291031
0.132664118343
0.132663971164
0.132663841186
0.1326637227
0.132663610507
0.132663500247
0.13266340684
0.130040424322
0.130040347279
0.130039886101
0.130039414888
0.130038774457
0.130038103962
0.130037362342
0.130036603691
0.13003582348
0.130035043485
0.130034268161
0.130033507143
0.130032765501
0.130032049342
0.130031365164
0.130030721761
0.130030130329
0.130029602994
0.130029149077
0.130028771373
0.130028464982
0.130028219153
0.130028020605
0.130027856488
0.130027716174
0.130027591931
0.130027478465
0.130027370913
0.13002726517
0.130027175578
0.12743735482
0.127437283592
0.127436838451
0.127436386501
0.127435770385
0.127435126219
0.127434413218
0.127433684109
0.127432934132
0.12743218444
0.1274314392
0.127430707758
0.127429995037
0.127429307115
0.127428650539
0.127428034143
0.127427468973
0.127426966624
0.127426535544
0.127426177667
0.127425887637
0.127425654791
0.127425466344
0.127425310124
0.127425176157
0.127425057235
0.12742494844
0.127424845216
0.127424743688
0.127424657656
0.12486665369
0.124866587864
0.124866157751
0.124865723807
0.124865130447
0.124864510906
0.124863824682
0.124863123207
0.124862401516
0.124861680172
0.124860963078
0.124860259309
0.124859573664
0.124858912195
0.124858281498
0.124857690431
0.124857149863
0.124856670848
0.124856261
0.124855921474
0.124855646536
0.124855425645
0.124855246506
0.124855097579
0.124854969494
0.12485485552
0.124854751081
0.124854651899
0.124854554311
0.124854471608
0.122327027159
0.122326966362
0.122326550354
0.122326133274
0.122325561246
0.122324964779
0.122324303652
0.122323628073
0.122322932893
0.122322238115
0.1223215474
0.122320869572
0.122320209321
0.122319572679
0.12231896629
0.122318399016
0.12231788153
0.122317424338
0.122317034259
0.122316711747
0.122316450756
0.122316240899
0.122316070356
0.122315928179
0.122315805557
0.122315696194
0.122315595825
0.122315500425
0.122315406528
0.122315326944
0.119817264652
0.119817208543
0.119816805798
0.119816404538
0.119815852543
0.119815277731
0.119814640167
0.119813988895
0.119813318603
0.119812648764
0.119811982815
0.119811329347
0.119810692952
0.119810079653
0.119809496134
0.119808951248
0.119808455448
0.119808018693
0.119807647047
0.119807340333
0.119807092256
0.119806892604
0.119806730015
0.119806594101
0.119806476562
0.119806371505
0.119806274946
0.119806183091
0.119806092656
0.119806015998
0.117336231508
0.117336179776
0.11733578952
0.117335403125
0.117334869971
0.117334315517
0.117333700111
0.117333071693
0.117332424803
0.117331778412
0.117331135752
0.117330505194
0.11732989125
0.117329299935
0.117328737967
0.117328214177
0.11732773878
0.117327321187
0.117326966753
0.117326674732
0.117326438633
0.117326248436
0.117326093224
0.117325963132
0.117325850334
0.117325749304
0.117325656316
0.117325567792
0.11732548061
0.117325406702
0.114882862492
0.114882814852
0.114882436377
0.114882063969
0.114881548564
0.114881013277
0.11488041874
0.11487981184
0.114879186989
0.114878562679
0.114877941952
0.114877332976
0.114876740193
0.114876169613
0.114875627986
0.114875124102
0.114874667923
0.114874268319
0.114873929979
0.114873651643
0.114873426672
0.114873245253
0.114873096896
0.114872972226
0.114872863857
0.114872766601
0.114872676968
0.114872591576
0.114872507455
0.114872436135
0.112456156009
0.112456112202
0.112455744853
0.112455385627
0.112454886965
0.112454369751
0.112453794895
0.112453208287
0.112452604221
0.112452000733
0.112451400693
0.112450812079
0.11245023927
0.112449688277
0.112449165874
0.112448680799
0.112448242744
0.112447860049
0.112447536773
0.112447271204
0.112447056589
0.112446883332
0.112446741357
0.112446621746
0.112446517522
0.112446423809
0.112446337332
0.11244625489
0.112446173653
0.112446104774
0.110055168917
0.110055128703
0.110054771878
0.110054425093
0.110053942247
0.110053442096
0.110052885828
0.110052318382
0.110051733945
0.110051150121
0.110050569619
0.110050000241
0.110049446315
0.110048913851
0.110048409641
0.110047942359
0.110047521416
0.110047154632
0.110046845476
0.110046591832
0.110046386869
0.110046221217
0.110046085192
0.110045970311
0.110045869974
0.11004577959
0.110045696087
0.110045616427
0.110045537913
0.110045471338
0.107679011875
0.107678975034
0.107678628177
0.107678293147
0.107677825261
0.107677341242
0.107676802554
0.107676253225
0.10767568735
0.10767512212
0.107674560097
0.107674008917
0.107673472865
0.107672957951
0.107672470983
0.107672020553
0.107671615784
0.107671263987
0.10767096808
0.107670725589
0.107670529636
0.10767037108
0.107670240615
0.107670130162
0.107670033474
0.107669946227
0.107669865528
0.107669788496
0.107669712556
0.107669648157
0.105326845152
0.105326811482
0.105326474076
0.105326150168
0.10532569645
0.105325227703
0.105324705659
0.105324173484
0.105323625184
0.105323077559
0.105322533033
0.105321999092
0.105321479982
0.105320981714
0.105320511104
0.105320076653
0.105319687185
0.10531934952
0.10531906606
0.105318834015
0.105318646486
0.10531849456
0.105318369297
0.105318262997
0.105318169742
0.105318085451
0.105318007402
0.105317932856
0.10531785935
0.105317797011
0.102997874849
0.102997844163
0.10299751573
0.102997202358
0.102996762074
0.102996307801
0.102995801537
0.10299528562
0.10299475398
0.102994223043
0.102993695108
0.102993177517
0.102992674484
0.102992192024
0.102991736953
0.102991317667
0.102990942691
0.102990618363
0.10299034661
0.10299012436
0.102989944716
0.102989798997
0.102989678608
0.102989576209
0.102989486187
0.102989404687
0.102989329145
0.102989256952
0.102989185753
0.102989125367
0.100691349481
0.100691321606
0.100691001701
0.100690698323
0.100690270791
0.100689830252
0.100689338964
0.100688838477
0.100688322648
0.100687807549
0.100687295361
0.100686793296
0.100686305539
0.100685838108
0.100685397812
0.100684992935
0.100684631696
0.100684319969
0.100684059237
0.100683846182
0.10068367393
0.100683534028
0.100683418214
0.100683319485
0.100683232512
0.100683153652
0.100683080483
0.100683010522
0.10068294151
0.100682882975
0.0984065568811
0.0984065316564
0.0984062198677
0.0984059259763
0.0984055105636
0.0984050830714
0.0984046060125
0.098404120183
0.0984036193763
0.0984031193254
0.0984026221027
0.0984021347959
0.0984016615707
0.0984012084432
0.0984007822121
0.0984003910386
0.0984000428313
0.0983997430197
0.0983994926742
0.0983992882638
0.098399122949
0.0983989885076
0.0983988769935
0.0983987817205
0.0983986976275
0.0983986212655
0.0983985503478
0.0983984825049
0.0983984155701
0.098398358794
0.0961428213869
0.0961427986645
0.0961424946062
0.0961422097319
0.0961418058484
0.0961413907625
0.0961409272378
0.0961404553482
0.0961399688293
0.0961394830904
0.096139000104
0.0961385268434
0.0961380674558
0.0961376279569
0.0961372151276
0.0961368369971
0.0961365011644
0.0961362126301
0.0961359720829
0.0961357758063
0.0961356170115
0.0961354877019
0.0961353802344
0.096135288222
0.0961352068522
0.0961351328582
0.0961350640772
0.0961349982468
0.0961349332863
0.096134878182
0.093899501282
0.0938994809242
0.0938991842366
0.0938989079415
0.093898515037
0.0938981117607
0.0938976611218
0.0938972025031
0.0938967295871
0.0938962574744
0.0938957880454
0.0938953281665
0.0938948819698
0.0938944554694
0.093894055422
0.0938936897167
0.0938933656437
0.0938930877919
0.0938928564969
0.0938926678827
0.0938925152227
0.0938923907425
0.0938922870884
0.0938921981555
0.0938921193641
0.0938920476169
0.0938919808665
0.0938919169501
0.0938918538683
0.0938918003548
0.091675986462
0.0916759683406
0.0916756786878
0.0916754105631
0.091675028124
0.0916746361003
0.0916741977419
0.0916737517692
0.0916732918168
0.0916728326902
0.0916723761848
0.0916719290675
0.0916714954578
0.0916710813669
0.0916706935212
0.0916703396625
0.0916700267735
0.091669759049
0.0916695364988
0.0916693551104
0.0916692082293
0.0916690882995
0.0916689882437
0.0916689022228
0.0916688258756
0.0916687562625
0.0916686914438
0.0916686293499
0.0916685680573
0.0916685160593
0.0894716963035
0.0894716802992
0.0894713973668
0.0894711370303
0.0894707645763
0.0894703832846
0.0894699566408
0.0894695227302
0.0894690751436
0.0894686284049
0.0894681842307
0.0894677492954
0.0894673277081
0.0894669254754
0.0894665492876
0.0894662067322
0.0894659044877
0.089465646372
0.0894654320945
0.089465257527
0.089465116096
0.0894650004588
0.0894649038023
0.0894648205384
0.0894647465106
0.089464678927
0.0894646159476
0.0894645555906
0.0894644960039
0.0894644454506
0.0872860777137
0.0872860637151
0.0872857872086
0.0872855343029
0.0872851713842
0.0872848003372
0.0872843848781
0.087283962483
0.0872835267026
0.0872830917919
0.0872826593947
0.087282236099
0.0872818260056
0.0872814351143
0.0872810700737
0.0872807383116
0.0872804462054
0.0872801972135
0.0872799907689
0.0872798226468
0.0872796863611
0.087279574778
0.0872794813365
0.0872794006859
0.0872793288615
0.0872792632095
0.0872792019835
0.0872791432832
0.0872790853242
0.0872790361498
0.0851186033418
0.0851185912451
0.0851183208882
0.0851180750784
0.0851177212735
0.0851173600144
0.0851169552436
0.0851165438516
0.085116119353
0.0851156957456
0.0851152746061
0.0851148624419
0.0851144633467
0.0851140833119
0.0851137289386
0.0851134074898
0.0851131250466
0.0851128847246
0.0851126857027
0.0851125236768
0.0851123922539
0.085112284504
0.0851121941067
0.0851121159356
0.0851120462067
0.0851119823953
0.0851119228419
0.0851118657234
0.0851118093189
0.0851117614615
0.0829687699387
0.0829687596468
0.0829684951797
0.0829682561518
0.082967911065
0.0829675591654
0.0829671646167
0.0829667637473
0.0829663500383
0.082965937242
0.0829655268731
0.0829651253636
0.0829647368014
0.0829643671673
0.0829640230095
0.0829637114224
0.0829634381953
0.0829632061179
0.0829630141359
0.0829628578813
0.0829627310589
0.082962626937
0.0829625394253
0.0829624636094
0.0829623958753
0.0829623338191
0.0829622758629
0.082962220256
0.0829621653374
0.0829621187389
0.0808360968466
0.0808360882686
0.0808358294475
0.0808355969064
0.0808352601659
0.0808349172234
0.0808345324589
0.0808341416604
0.0808337382789
0.0808333358313
0.0808329357755
0.080832544473
0.0808321660064
0.0808318063442
0.0808314719764
0.080831169825
0.0808309053935
0.0808306811618
0.0808304958622
0.0808303450763
0.0808302226103
0.0808301219258
0.0808300371522
0.0808299635758
0.0808298977424
0.0808298373616
0.0808297809319
0.0808297267706
0.0808296732734
0.0808296278794
0.0787201246094
0.0787201176603
0.0787198642552
0.0787196379236
0.0787193091797
0.0787189748157
0.0787185994237
0.0787182182715
0.0787178247826
0.0787174322492
0.0787170420763
0.0787166605596
0.0787162917773
0.078715941683
0.0787156167037
0.0787153235863
0.0787150675544
0.0787148507939
0.078714671842
0.0787145262426
0.0787144079062
0.0787143104818
0.0787142283088
0.0787141568638
0.0787140928431
0.078714034063
0.0787139790934
0.0787139263157
0.0787138741794
0.0787138299385
0.0766204136899
0.0766204082899
0.0766201600843
0.0766199397012
0.0766196186245
0.0766192924828
0.0766189260754
0.0766185541697
0.0766181701642
0.0766177871357
0.0766174064409
0.0766170343136
0.0766166748281
0.0766163339207
0.0766160179507
0.0766157334877
0.0766154854822
0.0766152758412
0.0766151029238
0.0766149622475
0.0766148478289
0.0766147534994
0.076614673799
0.0766146043845
0.0766145420942
0.0766144848446
0.0766144312726
0.0766143798202
0.0766143289877
0.0766142858518
0.0745365432857
0.0745365393599
0.0745362961495
0.0745360814691
0.0745357677492
0.0745354494939
0.0745350917056
0.0745347286697
0.0745343537618
0.0745339798527
0.0745336082545
0.074533245143
0.0745328945887
0.0745325625085
0.0745322551894
0.0745319790222
0.0745317386908
0.0745315358386
0.0745313686623
0.0745312326628
0.0745311219646
0.074531030576
0.0745309532286
0.0745308857501
0.0745308251131
0.074530769328
0.0745307170949
0.0745306669129
0.0745306173305
0.0745305752542
0.0724681102338
0.0724681077119
0.0724678693037
0.0724676600941
0.072467353438
0.0724670427523
0.0724666932384
0.0724663387167
0.0724659725425
0.0724656073893
0.072465244528
0.0724648900799
0.0724645481117
0.0724642245185
0.0724639255112
0.0724636573004
0.0724634243108
0.0724632279359
0.0724630662254
0.0724629346725
0.0724628275103
0.0724627389186
0.0724626638124
0.0724625981816
0.0724625391253
0.0724624847429
0.0724624337934
0.07246238483
0.072462336447
0.0724622953874
0.0704147279954
0.0704147268112
0.0704144930229
0.0704142890652
0.0704139891962
0.0704136857811
0.0704133442158
0.0704129978727
0.0704126400886
0.0704122833479
0.0704119288838
0.0704115827663
0.0704112490582
0.0704109336303
0.0704106426135
0.0704103820377
0.0704101560757
0.0704099658852
0.070409809382
0.0704096820599
0.0704095782612
0.0704094923319
0.0704094193623
0.0704093554963
0.0704092979528
0.0704092449146
0.0704091951965
0.070409147403
0.0704091001716
0.0704090600882
0.0683760257155
0.0683760258068
0.0683757964658
0.0683755975531
0.0683753042096
0.0683750077823
0.0683746738578
0.0683743353762
0.0683739856574
0.0683736370048
0.068373290617
0.0683729525155
0.0683726267589
0.0683723191916
0.0683720358606
0.0683717826153
0.068371563384
0.0683713791014
0.0683712275627
0.0683711042693
0.0683710036727
0.0683709202799
0.0683708493489
0.0683707871699
0.0683707310751
0.0683706793261
0.0683706307903
0.0683705841204
0.0683705379955
0.06837049885
0.0663516473493
0.0663516486573
0.0663514236002
0.0663512295369
0.0663509424715
0.0663506527646
0.0663503261895
0.0663499952691
0.0663496533084
0.0663493124372
0.0663489738221
0.0663486434389
0.0663483253418
0.0663480253462
0.0663477494119
0.0663475032082
0.0663472904265
0.0663471117912
0.0663469649888
0.0663468455344
0.0663467479886
0.0663466670143
0.0663465980299
0.0663465374648
0.0663464827585
0.0663464322469
0.0663463848468
0.0663463392569
0.0663462941958
0.0663462559521
0.0643412508494