/*--------------------------------*- C++ -*----------------------------------*\
| =========                 |                                                 |
| \\      /  F ield         | OpenFOAM: The Open Source CFD Toolbox           |
|  \\    /   O peration     | Version:  2206                                  |
|   \\  /    A nd           | Website:  www.openfoam.com                      |
|    \\/     M anipulation  |                                                 |
\*---------------------------------------------------------------------------*/
FoamFile
{
    version     2.0;
    format      ascii;
    arch        "LSB;label=32;scalar=64";
    class       surfaceScalarField;
    location    "600";
    object      phi;
}
// * * * * * * * * * * * * * * * * * * * * * * * * * * * * * * * * * * * * * //

dimensions      [0 3 -1 0 0 0 0];

oriented        oriented;

internalField   nonuniform List<scalar> 
5870
(
-2.62252904235e-08
1.26032276796e-06
-9.82008270422e-08
3.40466758524e-06
-2.06755104001e-07
5.05768458988e-06
-3.44779463859e-07
6.30551510004e-06
-5.06519892124e-07
7.22023297579e-06
-6.87136790059e-07
7.86215154269e-06
-8.82446097968e-07
8.28173860808e-06
-1.08876476131e-06
8.52119445342e-06
-1.30281979642e-06
8.61576766309e-06
-1.5216956603e-06
8.59485714187e-06
-1.74280373194e-06
8.48293744083e-06
-1.96386357612e-06
8.3003371796e-06
-2.18288952321e-06
8.06389474887e-06
-2.39817872513e-06
7.7875112978e-06
-2.60829863143e-06
7.48261755732e-06
-2.81207261116e-06
7.15856785464e-06
-3.00856106328e-06
6.8229706947e-06
-3.19703497036e-06
6.48196461242e-06
-3.3769590824e-06
6.14046732403e-06
-3.54806471049e-06
5.80246758829e-06
-3.71061045175e-06
5.4713837463e-06
-3.86556114569e-06
5.15012571275e-06
-4.0132684271e-06
4.83971756552e-06
-4.1477316833e-06
4.53497965485e-06
-4.24361468453e-06
4.21736962444e-06
-4.23711307442e-06
3.84890477842e-06
-4.00863520406e-06
3.37403523324e-06
-3.37945719054e-06
2.73366805225e-06
-2.12810320572e-06
1.88493402358e-06
7.94496394838e-07
-2.05617407395e-08
1.28088450874e-06
-7.55378139024e-08
3.45964365829e-06
-1.56661928043e-07
5.138808704e-06
-2.56916913377e-07
6.40577008544e-06
-3.70494889433e-07
7.33381095189e-06
-4.92698881033e-07
7.98435553451e-06
-6.19812970836e-07
8.40885269799e-06
-7.48966308558e-07
8.65034779127e-06
-8.78001189602e-07
8.74480254415e-06
-1.0053499171e-06
8.72220586909e-06
-1.12992284885e-06
8.60751037299e-06
-1.25100880896e-06
8.42142313899e-06
-1.36818825143e-06
8.18107419216e-06
-1.48125912597e-06
7.90058217167e-06
-1.59017482672e-06
7.591533258e-06
-1.69499222054e-06
7.26338524848e-06
-1.79582647345e-06
6.92380494746e-06
-1.89282203001e-06
6.57896016898e-06
-1.98619323999e-06
6.23383853491e-06
-2.07638702451e-06
5.89266137269e-06
-2.16406055695e-06
5.55905727808e-06
-2.2485513877e-06
5.23461654378e-06
-2.32258721586e-06
4.91375339417e-06
-2.36258383644e-06
4.57497627476e-06
-2.31989669081e-06
4.17468247878e-06
-2.12553787338e-06
3.65454596103e-06
-1.72072290206e-06
2.96922026216e-06
-1.1127833881e-06
2.12572853834e-06
-4.36108570958e-07
1.20825920661e-06
3.58387823843e-07
-1.0606700441e-08
1.2914912092e-06
-3.8867927106e-08
3.48790488491e-06
-8.11528150689e-08
5.18109359196e-06
-1.34501987072e-07
6.45911925747e-06
-1.96497174488e-07
7.39580613933e-06
-2.65157499528e-07
8.05301585964e-06
-3.38848302856e-07
8.48254350136e-06
-4.16207012034e-07
8.7277065005e-06
-4.96084829467e-07
8.82468036159e-06
-5.77502080568e-07
8.80362312008e-06
-6.59615045851e-07
8.68962333844e-06
-7.41692086605e-07
8.50350017943e-06
-8.23096982547e-07
8.26247908845e-06
-9.03277639185e-07
7.98076282803e-06
-9.81758076591e-07
7.67001369537e-06
-1.05813070991e-06
7.3397578818e-06
-1.13205091106e-06
6.99772514854e-06
-1.20326372434e-06
6.65017298226e-06
-1.27171065736e-06
6.30228546832e-06
-1.33754691943e-06
5.95849763472e-06
-1.40013275457e-06
5.62164311292e-06
-1.454235523e-06
5.28871931233e-06
-1.48298233021e-06
4.94250020161e-06
-1.45246081753e-06
4.54445476178e-06
-1.31874231078e-06
4.04096397201e-06
-1.05496436043e-06
3.3907680107e-06
-6.88714441855e-07
2.60297034366e-06
-3.17668904387e-07
1.75468300089e-06
-6.78711301662e-08
9.58461432423e-07
2.90516693673e-07
-1.03183865081e-08
1.30180959572e-06
-3.84009433479e-08
3.51598744172e-06
-8.01948314296e-08
5.22288748004e-06
-1.32376615276e-07
6.51130104133e-06
-1.92197532951e-07
7.45562705701e-06
-2.57371946802e-07
8.11819027355e-06
-3.26000001135e-07
8.55117155572e-06
-3.96509400979e-07
8.79821590038e-06
-4.67609978471e-07
8.89578093909e-06
-5.38256394531e-07
8.87426953606e-06
-6.07616172056e-07
8.75898311609e-06
-6.75041387296e-07
8.57092539446e-06
-7.4004312131e-07
8.32748082271e-06
-8.02268149249e-07
8.04298785576e-06
-8.61476805495e-07
7.7292223516e-06
-9.17521542742e-07
7.39580261905e-06
-9.70338851505e-07
7.05054245726e-06
-1.01999291027e-06
6.69982704103e-06
-1.06672526704e-06
6.34901782539e-06
-1.11047710263e-06
6.00224947027e-06
-1.14855525853e-06
5.6597212686e-06
-1.17056797225e-06
5.31073202615e-06
-1.1536274153e-06
4.92555964483e-06
-1.0661412602e-06
4.45696860645e-06
-8.86802657617e-07
3.86162536942e-06
-6.3097423634e-07
3.13493958944e-06
-3.59432534771e-07
2.33142864214e-06
-1.47594432078e-07
1.5428448982e-06
-3.27574678984e-08
8.43624468254e-07
2.57759225772e-07
-8.83849323962e-09
1.31064808897e-06
-3.27950774105e-08
3.53994402586e-06
-6.82288655051e-08
5.25832126812e-06
-1.12120198748e-07
6.5551923746e-06
-1.61993983943e-07
7.50550084222e-06
-2.15844018188e-07
8.17204030786e-06
-2.72063853377e-07
8.60739139094e-06
-3.29383115041e-07
8.85553516208e-06
-3.86810808706e-07
8.95320863276e-06
-4.43585657197e-07
8.93104438448e-06
-4.99133412232e-07
8.81453087124e-06
-5.53030740626e-07
8.62482272265e-06
-6.04975108177e-07
8.3794251905e-06
-6.54759739583e-07
8.09277248698e-06
-7.02252077656e-07
7.77671468965e-06
-7.47377992626e-07
7.44092853403e-06
-7.90131954285e-07
7.09329641887e-06
-8.30624693444e-07
6.74031978019e-06
-8.6894337504e-07
6.38733650724e-06
-9.03970729099e-07
6.0372768243e-06
-9.30067925078e-07
5.68581846438e-06
-9.32683908762e-07
5.31334800992e-06
-8.88562405761e-07
4.88143814197e-06
-7.77203501441e-07
4.34560970196e-06
-6.00654697117e-07
3.68507656509e-06
-3.94210354742e-07
2.92849524707e-06
-2.10343565855e-07
2.14756185327e-06
-8.43731614509e-08
1.4168744938e-06
-1.86645939936e-08
7.77915900803e-07
2.39094631777e-07
-7.19040534977e-09
1.31783849433e-06
-2.65688811511e-08
3.55932250163e-06
-5.53389244338e-08
5.2870913114e-06
-9.11880933328e-08
6.59104154351e-06
-1.32215091054e-07
7.54652783995e-06
-1.76865966941e-07
8.2166911838e-06
-2.23878021654e-07
8.65440344568e-06
-2.72231516976e-07
8.90388865743e-06
-3.21108903855e-07
9.00208601964e-06
-3.69860421321e-07
8.97979590188e-06
-4.17975294974e-07
8.86264574498e-06
-4.65057693643e-07
8.67190512116e-06
-5.10806655546e-07
8.42517415258e-06
-5.54998930043e-07
8.13696476133e-06
-5.97474011447e-07
7.81918977104e-06
-6.38128416869e-07
7.48158293945e-06
-6.76939099036e-07
7.13210710101e-06
-7.13958553319e-07
6.77733923447e-06
-7.48841160044e-07
6.42221911418e-06
-7.78942172132e-07
6.06737783636e-06
-7.95761134952e-07
5.70263742704e-06
-7.82819359184e-07
5.30040623422e-06
-7.20966775387e-07
4.81958555828e-06
-6.02573371722e-07
4.22721629817e-06
-4.44194935315e-07
3.52669812868e-06
-2.82146331253e-07
2.76644664301e-06
-1.5025608462e-07
2.01567160666e-06
-6.19837972177e-08
1.3286022064e-06
-1.43156317206e-08
7.3024773531e-07
2.24779000055e-07
-6.62945867494e-09
1.32446795301e-06
-2.45091634892e-08
3.57720220643e-06
-5.10700048234e-08
5.31365215273e-06
-8.41898454345e-08
6.62416138413e-06
-1.22120815399e-07
7.58445880992e-06
-1.63429417353e-07
8.25799978579e-06
-2.06945938949e-07
8.6979199673e-06
-2.51721888531e-07
8.94866460704e-06
-2.96994254961e-07
9.04735838608e-06
-3.42155211266e-07
9.02495685813e-06
-3.86726469267e-07
8.90721700306e-06
-4.30337532916e-07
8.71551618466e-06
-4.72707175494e-07
8.46754379532e-06
-5.13627243803e-07
8.17788482951e-06
-5.52949746883e-07
7.8585122741e-06
-5.90588278357e-07
7.51922147093e-06
-6.26536998626e-07
7.16805582124e-06
-6.60740672533e-07
6.81154290838e-06
-6.92193272174e-07
6.45367171401e-06
-7.16519343334e-07
6.0917039075e-06
-7.23046160813e-07
5.70916424438e-06
-6.95675145899e-07
5.27303521936e-06
-6.21529311844e-07
4.74543972433e-06
-5.03307464401e-07
4.10899445061e-06
-3.63036141478e-07
3.38642680575e-06
-2.30197942069e-07
2.6336084436e-06
-1.2489530653e-07
1.91036897114e-06
-5.30123027561e-08
1.25671920263e-06
-1.268893417e-08
6.8992436673e-07
2.12090065884e-07
-6.27924084626e-09
1.33074719386e-06
-2.3241425461e-08
3.59416439102e-06
-4.84227495486e-08
5.33883347682e-06
-7.97885694203e-08
6.65552720402e-06
-1.15666088349e-07
7.62033632886e-06
-1.54687324656e-07
8.29702102214e-06
-1.95740233862e-07
8.73897287653e-06
-2.37927021705e-07
8.99085139491e-06
-2.80528791976e-07
9.08996015635e-06
-3.22975522728e-07
9.06740358884e-06
-3.64820729758e-07
8.94906221017e-06
-4.05720109161e-07
8.75641556393e-06
-4.4541342889e-07
8.50723711521e-06
-4.83708981571e-07
8.21618038206e-06
-5.20473647001e-07
7.89527693952e-06
-5.55639568351e-07
7.55438739228e-06
-5.89192333865e-07
7.20160858673e-06
-6.20845334636e-07
6.84319590915e-06
-6.48709555187e-07
6.48153593474e-06
-6.66742246508e-07
6.1097365988e-06
-6.63167158753e-07
5.70558915649e-06
-6.24125744528e-07
5.23399380519e-06
-5.43285917607e-07
4.66459989749e-06
-4.29918717211e-07
3.99562725012e-06
-3.05980145627e-07
3.26248823416e-06
-1.93550500927e-07
2.52117879891e-06
-1.05262880186e-07
1.82208135041e-06
-4.4680494381e-08
1.19613681683e-06
-1.06296240226e-08
6.55873496377e-07
2.0146044186e-07
-5.87410377423e-09
1.33662129765e-06
-2.17428111521e-08
3.61003309838e-06
-4.5304464872e-08
5.36239513054e-06
-7.46589139599e-08
6.68488165311e-06
-1.08243910489e-07
7.6539213254e-06
-1.4478144589e-07
8.33355855758e-06
-1.83231882043e-07
8.7774233127e-06
-2.22755064022e-07
9.0303745769e-06
-2.62677418822e-07
9.12988251115e-06
-3.02464090572e-07
9.10719026054e-06
-3.41695460326e-07
8.98829357999e-06
-3.80047340165e-07
8.79476744364e-06
-4.17274109414e-07
8.5444638846e-06
-4.53194705094e-07
8.25210097762e-06
-4.87686526831e-07
7.92976876124e-06
-5.20690924263e-07
7.58739178972e-06
-5.52136196504e-07
7.23305385894e-06
-5.81368039415e-07
6.87242775206e-06
-6.05492230035e-07
6.50566012553e-06
-6.17131585579e-07
6.12137595432e-06
-6.04539469355e-07
5.69299704014e-06
-5.57153107031e-07
5.18660744292e-06
-4.74206832798e-07
4.58165362333e-06
-3.68250767001e-07
3.88967118424e-06
-2.58851180448e-07
3.15308864761e-06
-1.62456791746e-07
2.42478441021e-06
-8.77168652151e-08
1.74734142388e-06
-3.69117578842e-08
1.1453317095e-06
-8.67965943751e-09
6.27641397933e-07
1.92780782422e-07
-5.52492785933e-09
1.34214622551e-06
-2.04447904539e-08
3.62495296096e-06
-4.26004203642e-08
5.38455076044e-06
-7.02091777439e-08
6.7124904105e-06
-1.01804953935e-07
7.6855171016e-06
-1.36187824126e-07
8.36794142781e-06
-1.72381040354e-07
8.81361652894e-06
-2.09594707242e-07
9.06758824381e-06
-2.47195050761e-07
9.16748285468e-06
-2.84678408301e-07
9.14467361803e-06
-3.21649295182e-07
9.02526446694e-06
-3.5780185533e-07
8.83092000367e-06
-3.92904052771e-07
8.57956608218e-06
-4.26785416194e-07
8.28598234093e-06
-4.59334098144e-07
7.96231744318e-06
-4.9048979129e-07
7.61854748286e-06
-5.20066340837e-07
7.26263040846e-06
-5.46927018618e-07
6.89928842985e-06
-5.6717473519e-07
6.52590784227e-06
-5.7258184578e-07
6.12678306489e-06
-5.52340538852e-07
5.6727557331e-06
-4.99437493526e-07
5.13370439763e-06
-4.1719728275e-07
4.49941341262e-06
-3.1920887508e-07
3.7916827765e-06
-2.22149459572e-07
3.0560292321e-06
-1.38514586209e-07
2.34114953685e-06
-7.44681906376e-08
1.68329502832e-06
-3.12707415762e-08
1.10213426044e-06
-7.35649897241e-09
6.03727155331e-07
1.85424283449e-07
-5.24894399679e-09
1.34739516951e-06
-1.94228300662e-08
3.63912684701e-06
-4.04705352652e-08
5.40559846564e-06
-6.66985682024e-08
6.73871844345e-06
-9.67141880919e-08
7.71553272149e-06
-1.2937760889e-07
8.40060484864e-06
-1.63761115462e-07
8.84800003553e-06
-1.99114548079e-07
9.10294167645e-06
-2.34836066393e-07
9.20320437299e-06
-2.70447420571e-07
9.18028497217e-06
-3.05573093161e-07
9.0603901396e-06
-3.39922636507e-07
8.86526954691e-06
-3.73275750517e-07
8.61291919632e-06
-4.05471893298e-07
8.31817848361e-06
-4.36408214234e-07
7.9932537641e-06
-4.66004801431e-07
7.64814407006e-06
-4.93898055262e-07
7.29052366227e-06
-5.18389808592e-07
6.92378018318e-06
-5.34689413381e-07
6.5422074472e-06
-5.34235822529e-07
6.12632947402e-06
-5.0774925307e-07
5.64626916354e-06
-4.51493534628e-07
5.07744867923e-06
-3.71471461643e-07
4.4193913397e-06
-2.8104311829e-07
3.70125443308e-06
-1.94214827846e-07
2.96920094165e-06
-1.20657962602e-07
2.26759267161e-06
-6.48140816294e-08
1.62745114736e-06
-2.72573311104e-08
1.06457750992e-06
-6.43577857484e-09
5.82905602798e-07
1.78988504875e-07
-5.01329208214e-09
1.3524084616e-06
-1.85520451837e-08
3.65266560009e-06
-3.86566049367e-08
5.42570302539e-06
-6.37090730545e-08
6.76377091158e-06
-9.23789553273e-08
7.74420260377e-06
-1.23577441614e-07
8.43180333496e-06
-1.56418320476e-07
8.88084091441e-06
-1.90185008091e-07
9.13670836408e-06
-2.24302602317e-07
9.23732196722e-06
-2.58314261638e-07
9.21429663145e-06
-2.91861270847e-07
9.09393714887e-06
-3.24666149285e-07
8.89807442524e-06
-3.56518657275e-07
8.64477170443e-06
-3.87267212388e-07
8.34892703862e-06
-4.16813634172e-07
8.02280018588e-06
-4.45033811113e-07
7.67636424701e-06
-4.7132521221e-07
7.31681506334e-06
-4.93393974117e-07
6.94584894508e-06
-5.05742688944e-07
6.55455616217e-06
-4.9994770966e-07
6.12053449472e-06
-4.68550733397e-07
5.61487218718e-06
-4.10573168435e-07
5.0194711143e-06
-3.3358318094e-07
4.34240135226e-06
-2.50101510141e-07
3.61777276223e-06
-1.71863837929e-07
2.89096326943e-06
-1.06463367249e-07
2.20219220093e-06
-5.71313347402e-08
1.57811911485e-06
-2.40259159566e-08
1.03147209114e-06
-5.67421646502e-09
5.64553903309e-07
1.7331428841e-07
-4.80223616989e-09
1.35721069778e-06
-1.77713019241e-08
3.66563466583e-06
-3.70301261912e-08
5.44496184966e-06
-6.10290223152e-08
6.78776980771e-06
-8.84936053379e-08
7.7716671868e-06
-1.18380954255e-07
8.46169068391e-06
-1.49842165747e-07
8.91230212592e-06
-1.82190786749e-07
9.1690569851e-06
-2.14876047321e-07
9.2700072278e-06
-2.47460248825e-07
9.24688083292e-06
-2.79599666753e-07
9.12607656685e-06
-3.11028385439e-07
8.92950314382e-06
-3.41545326044e-07
8.67528864516e-06
-3.71006962301e-07
8.37838867478e-06
-3.99313060588e-07
8.05110628415e-06
-4.26266426815e-07
7.70331761324e-06
-4.50973489316e-07
7.34152212582e-06
-4.70556594345e-07
6.96543205011e-06
-4.79039912658e-07
6.56303948062e-06
-4.68513419226e-07
6.11000800127e-06
-4.3340162657e-07
5.57976039444e-06
-3.74899131571e-07
4.96096861934e-06
-3.01348350476e-07
4.26885057122e-06
-2.24194444241e-07
3.54061885594e-06
-1.53295057996e-07
2.82006388319e-06
-9.4682117069e-08
2.14357926e-06
-5.07245726489e-08
1.53416157044e-06
-2.13090356928e-08
1.00205655418e-06
-5.027604686e-09
5.48272472307e-07
1.68286683723e-07
-4.61361251983e-09
1.3618243103e-06
-1.70730634101e-08
3.67809411671e-06
-3.5575293586e-08
5.46346407983e-06
-5.86317169485e-08
6.81082623108e-06
-8.50181985566e-08
7.79805366841e-06
-1.13732920166e-07
8.49040540555e-06
-1.43960407837e-07
8.9425296136e-06
-1.75041215342e-07
9.20013779263e-06
-2.06446210299e-07
9.30141222276e-06
-2.37754861506e-07
9.27818948409e-06
-2.68636888035e-07
9.15695859344e-06
-2.9883678917e-07
8.95970304486e-06
-3.2816193627e-07
8.70461379237e-06
-3.56475444645e-07
8.40670218306e-06
-3.83665708862e-07
8.07829654836e-06
-4.09431781642e-07
7.72908368602e-06
-4.32551712848e-07
7.364642057e-06
-4.49615712343e-07
6.98249604961e-06
-4.5440525193e-07
6.56782902034e-06
-4.39787597184e-07
6.09539034651e-06
-4.01973818179e-07
5.54194661535e-06
-3.43783420515e-07
4.90277822171e-06
-2.73806209662e-07
4.19887336041e-06
-2.02367176937e-07
3.46917982317e-06
-1.37780569196e-07
2.75547727545e-06
-8.48834591234e-08
2.09068214993e-06
-4.5412144484e-08
1.49469025581e-06
-1.90649283832e-08
9.75709338076e-07
-4.49722619275e-09
5.33704770119e-07
1.6378945753e-07
-4.44550923639e-09
1.36626981954e-06
-1.64509180277e-08
3.69009952548e-06
-3.42790062257e-08
5.48129216803e-06
-5.64955430272e-08
6.83304276789e-06
-8.19211022473e-08
7.82347922764e-06
-1.09590442925e-07
8.51807474625e-06
-1.3871785092e-07
8.97165702161e-06
-1.68667931503e-07
9.23008787323e-06
-1.98930832305e-07
9.33167512356e-06
-2.29101327361e-07
9.30835997911e-06
-2.58861131794e-07
9.18671839792e-06
-2.87964111533e-07
8.9888060245e-06
-3.16225373214e-07
8.73287505416e-06
-3.43512436118e-07
8.43398924588e-06
-3.69690617829e-07
8.10447473006e-06
-3.9432531789e-07
7.75371838608e-06
-4.1584627318e-07
7.38616301227e-06
-4.30392538235e-07
6.99704231467e-06
-4.31721269926e-07
6.56915775215e-06
-4.13634853691e-07
6.07730393026e-06
-3.73945695185e-07
5.50225745676e-06
-3.16631606162e-07
4.84546413271e-06
-2.50196277661e-07
4.13243803195e-06
-1.83890176519e-07
3.40287372199e-06
-1.24757173346e-07
2.69634427227e-06
-7.6705173329e-08
2.04263014991e-06
-4.09977484668e-08
1.45898283095e-06
-1.72072350408e-08
9.51918824652e-07
-4.05978673016e-09
5.20557321812e-07
1.59729670799e-07
-4.29430037865e-09
1.37056411993e-06
-1.58914057402e-08
3.70169663083e-06
-3.31132398743e-08
5.49851400216e-06
-5.45744034414e-08
6.85450393147e-06
-7.91356384301e-08
7.84804046263e-06
-1.05864568446e-07
8.5448036763e-06
-1.34002222601e-07
8.99979467578e-06
-1.629348228e-07
9.25902047344e-06
-1.92169849192e-07
9.36091014996e-06
-2.2131583802e-07
9.3375059679e-06
-2.50065302675e-07
9.21546786263e-06
-2.78180622687e-07
9.01692134442e-06
-3.05483904035e-07
8.76017833561e-06
-3.3184390029e-07
8.46034924205e-06
-3.57089325702e-07
8.12972015546e-06
-3.80625143265e-07
7.77725420365e-06
-4.0053056651e-07
7.4060684355e-06
-4.12592541175e-07
7.00910428933e-06
-4.10730505047e-07
6.56729571614e-06
-3.89752846459e-07
6.05632627166e-06
-3.48850365921e-07
5.46135497615e-06
-2.92784921773e-07
4.78939868859e-06
-2.29773190472e-07
4.06942630069e-06
-1.68074947511e-07
3.34117547899e-06
-1.13684501114e-07
2.64195382587e-06
-6.97788269011e-08
1.9987244757e-06
-3.72656840604e-08
1.42646968812e-06
-1.56366651417e-08
9.30289805732e-07
-3.68930680604e-09
5.08609963476e-07
1.56040363993e-07
-4.15692923027e-09
1.37472104916e-06
-1.53830746886e-08
3.71292277628e-06
-3.20540979663e-08
5.51518502543e-06
-5.28289660753e-08
6.87527879958e-06
-7.66049147916e-08
7.87181641136e-06
-1.0247942566e-07
8.57067818719e-06
-1.29717825272e-07
9.0270330754e-06
-1.5772597507e-07
9.28702862325e-06
-1.86027103014e-07
9.3892112779e-06
-2.14242248974e-07
9.36572111383e-06
-2.42073751799e-07
9.24329936551e-06
-2.69291815035e-07
9.04413940757e-06
-2.9572469371e-07
8.78661121439e-06
-3.21238216391e-07
8.48586276465e-06
-3.45609890354e-07
8.15409182942e-06
-3.68062428737e-07
7.79970674203e-06
-3.86338530934e-07
7.42434453768e-06
-3.95979717449e-07
7.01874547585e-06
-3.91216076128e-07
6.56253207493e-06
-3.67867550429e-07
6.03297774595e-06
-3.26275362544e-07
5.4197627882e-06
-2.71696263042e-07
4.73481958911e-06
-2.11946538619e-07
4.0096765763e-06
-1.54391664289e-07
3.28362060463e-06
-1.04155242365e-07
2.59171740395e-06
-6.38338344586e-08
1.95840306779e-06
-3.40649240023e-08
1.39670077766e-06
-1.42891111593e-08
9.10513992891e-07
-3.37104414536e-09
4.97691896463e-07
1.52669319847e-07
-4.03142545602e-09
1.37875247462e-06
-1.49186317992e-08
3.72380998261e-06
-3.10863845424e-08
5.53135277817e-06
-5.12341895e-08
6.89542660455e-06
-7.42926263209e-08
7.89487484818e-06
-9.93864572808e-08
8.59577201818e-06
-1.25803210022e-07
9.05344982816e-06
-1.52966691135e-07
9.31419210438e-06
-1.80414518385e-07
9.41665910516e-06
-2.07779157863e-07
9.39308575327e-06
-2.34771948942e-07
9.27029215663e-06
-2.61170319174e-07
9.07053777771e-06
-2.86807597223e-07
8.81224849254e-06
-3.11541558916e-07
8.51059672626e-06
-3.35083641442e-07
8.17763391193e-06
-3.56458672382e-07
7.82108177297e-06
-3.73100328411e-07
7.44098619369e-06
-3.80410472073e-07
7.02605561951e-06
-3.73039366247e-07
6.55516096922e-06
-3.47778768275e-07
6.00771714797e-06
-3.05905893316e-07
5.37788991317e-06
-2.52954664795e-07
4.68186836061e-06
-1.96284121954e-07
3.95300603349e-06
-1.42461989031e-07
3.22979847167e-06
-9.58862886453e-08
2.54514170356e-06
-5.86883654895e-08
1.92120514464e-06
-3.12980450458e-08
1.36931045722e-06
-1.31248816735e-08
8.92340829519e-07
-3.09618763024e-09
4.87663202421e-07
1.49573132217e-07
-3.9162794668e-09
1.38266875409e-06
-1.4492520247e-08
3.73438622337e-06
-3.01985311198e-08
5.54705878904e-06
-4.97710038095e-08
6.91499907725e-06
-7.21711035671e-08
7.91727494794e-06
-9.65486173938e-08
8.62014953203e-06
-1.2221143939e-07
9.07911265017e-06
-1.48599839297e-07
9.3405805043e-06
-1.75264637498e-07
9.44332390336e-06
-2.01848786575e-07
9.41966990232e-06
-2.28071913875e-07
9.29651528398e-06
-2.53718111875e-07
9.09618397563e-06
-2.78624404862e-07
8.83715478562e-06
-3.0263453363e-07
8.53460685495e-06
-3.25379544534e-07
8.20037892283e-06
-3.45677476037e-07
7.84137970448e-06
-3.60690632763e-07
7.45599935039e-06
-3.65779879869e-07
7.03114486661e-06
-3.56089524258e-07
6.54547061371e-06
-3.29314822348e-07
5.98094244604e-06
-2.87477252682e-07
5.33605234345e-06
-2.36227285135e-07
4.63061839309e-06
-1.82445771695e-07
3.89922452008e-06
-1.3199356573e-07
3.17934626568e-06
-8.86610971751e-08
2.501809235e-06
-5.42034862403e-08
1.88674753371e-06
-2.88896116738e-08
1.34399658266e-06
-1.21121788482e-08
8.75563396695e-07
-2.85719886368e-09
4.78408222436e-07
1.46715933354e-07
-3.81015435445e-09
1.38647890845e-06
-1.40997958602e-08
3.74467586487e-06
-2.93802395906e-08
5.56233923277e-06
-4.84224430785e-08
6.93404128074e-06
-7.02157550807e-08
7.93906825995e-06
-9.39330226059e-08
8.64386679958e-06
-1.18900908216e-07
9.10408053579e-06
-1.44574853752e-07
9.36625444985e-06
-1.70517847777e-07
9.46926689738e-06
-1.96382512282e-07
9.4455345668e-06
-2.21896146581e-07
9.32202891833e-06
-2.46848954158e-07
9.12113678312e-06
-2.71079927476e-07
8.86138575903e-06
-2.94412121065e-07
8.55793904846e-06
-3.16383125183e-07
8.22234992694e-06
-3.35602005861e-07
7.86059858516e-06
-3.4900411128e-07
7.46940145579e-06
-3.51996941748e-07
7.03413769708e-06
-3.40262205105e-07
6.53373587716e-06
-3.1231461009e-07
5.95299485102e-06
-2.70754094965e-07
5.29449182826e-06
-2.21231380776e-07
4.58109567892e-06
-1.70150582645e-07
3.84814372198e-06
-1.2274843525e-07
3.13194411826e-06
-8.23040365908e-08
2.46136483634e-06
-5.02658419829e-08
1.8547093391e-06
-2.67772661133e-08
1.32050800679e-06
-1.12243066976e-08
8.60010437282e-07
-2.64765990686e-09
4.69831575648e-07
1.44068273446e-07
-3.71191670171e-09
1.39019082516e-06
-1.37362588642e-08
3.75470020702e-06
-2.86227596368e-08
5.57722573354e-06
-4.71740927243e-08
6.95259261384e-06
-6.84056928358e-08
7.96029986007e-06
-9.15117511438e-08
8.66697285791e-06
-1.15836302697e-07
9.12840508735e-06
-1.40848833283e-07
9.39126698045e-06
-1.66123595508e-07
9.49454165961e-06
-1.91322168593e-07
9.47073313985e-06
-2.16178985848e-07
9.34688573563e-06
-2.40489776905e-07
9.1454475741e-06
-2.6409340291e-07
8.88498938513e-06
-2.86785142897e-07
8.58063078838e-06
-3.07997896585e-07
8.24356268062e-06
-3.26135838795e-07
7.87873652737e-06
-3.37955410152e-07
7.48122102713e-06
-3.3898530659e-07
7.03516759352e-06
-3.25463234595e-07
6.52021380526e-06
-2.96632788258e-07
5.92416440467e-06
-2.55532269735e-07
5.25339130968e-06
-2.07730147496e-07
4.5332935567e-06
-1.5916878878e-07
3.79958236329e-06
-1.14534734828e-07
3.08731006427e-06
-7.66746462262e-08
2.42350474774e-06
-4.67852487307e-08
1.82481994161e-06
-2.49116936795e-08
1.29863445175e-06
-1.04403645521e-08
8.45539108154e-07
-2.46263425634e-09
4.61853845355e-07
1.41605639188e-07
-3.62063891418e-09
1.39381146408e-06
-1.33984758226e-08
3.76447804391e-06
-2.79189379689e-08
5.59174619569e-06
-4.6014166338e-08
6.97068784221e-06
-6.67238314395e-08
7.98100952517e-06
-8.92619551138e-08
8.68951098161e-06
-1.12988713418e-07
9.15213184567e-06
-1.37386640804e-07
9.41566490785e-06
-1.62040456465e-07
9.51919547528e-06
-1.86620070931e-07
9.49531275429e-06
-2.10866571563e-07
9.3711322363e-06
-2.34580564156e-07
9.16916156662e-06
-2.57598308811e-07
8.90800712987e-06
-2.79680034858e-07
8.60271251435e-06
-3.0014496088e-07
8.26402760663e-06
-3.17201950958e-07
7.89579351745e-06
-3.2747754706e-07
7.49149662322e-06
-3.26682514694e-07
7.03437256115e-06
-3.11609966886e-07
6.50514125754e-06
-2.82141536613e-07
5.89469597439e-06
-2.41637508729e-07
5.21288728175e-06
-1.95527033891e-07
4.48718308188e-06
-1.49313486602e-07
3.75336881603e-06
-1.07198507347e-07
3.045195085e-06
-7.1661290306e-08
2.3879675307e-06
-4.36905857859e-08
1.79684923709e-06
-2.32542875883e-08
1.27819815355e-06
-9.74410268985e-09
8.32028923257e-07
-2.29830904587e-09
4.54408051712e-07
1.39307330142e-07
-3.53554579936e-09
1.39734700988e-06
-1.30835793246e-08
3.77402607743e-06
-2.72628009987e-08
5.60592541736e-06
-4.49328204935e-08
6.98835786171e-06
-6.51558999515e-08
8.00123260464e-06
-8.71645469071e-08
8.71151962859e-06
-1.1033398402e-07
9.17530128279e-06
-1.34158909921e-07
9.43948983377e-06
-1.582338021e-07
9.54327036746e-06
-1.82236348439e-07
9.5193153006e-06
-2.05913850751e-07
9.39480973866e-06
-2.29071047647e-07
9.19231876344e-06
-2.51538783954e-07
8.93047486626e-06
-2.73035035057e-07
8.62420876539e-06
-2.92758839535e-07
8.2837514111e-06
-3.08737884949e-07
7.91177256287e-06
-3.1751665624e-07
7.5002753945e-06
-3.1503556835e-07
7.03189147327e-06
-2.98628334452e-07
6.48873402374e-06
-2.68727483747e-07
5.86479512368e-06
-2.28919869722e-07
5.17307966767e-06
-1.84457233324e-07
4.4427204455e-06
-1.40430734855e-07
3.70934231758e-06
-1.00614393606e-07
3.00537874372e-06
-6.71737012886e-08
2.35452683838e-06
-4.09245596476e-08
1.77060009545e-06
-2.17739750606e-08
1.25904756897e-06
-9.12241683203e-09
8.19377365028e-07
-2.15159279192e-09
4.47437227674e-07
1.37155737349e-07
-3.45597467021e-09
1.40080298455e-06
-1.27891174348e-08
3.78335922018e-06
-2.66492405461e-08
5.61978554047e-06
-4.39216381142e-08
7.00563025929e-06
-6.36896961123e-08
8.02100066264e-06
-8.5203207048e-08
8.73303313954e-06
-1.07851463082e-07
9.19794953884e-06
-1.31140537328e-07
9.46277890803e-06
-1.54674033699e-07
9.56680386383e-06
-1.78136924434e-07
9.54277819131e-06
-2.01282310902e-07
9.41795512516e-06
-2.23918206435e-07
9.2149546589e-06
-2.45866928055e-07
8.95242358797e-06
-2.6679730264e-07
8.6451391399e-06
-2.85784277003e-07
8.30273838546e-06
-3.00692033654e-07
7.92668031952e-06
-3.08028096918e-07
7.50761145774e-06
-3.03997849579e-07
7.02786122593e-06
-2.86450790417e-07
6.47118696466e-06
-2.56289249503e-07
5.83463358275e-06
-2.1724927495e-07
5.13403969307e-06
-1.74381143167e-07
4.39985231373e-06
-1.3239220007e-07
3.66735337451e-06
-9.46789024722e-08
2.9676654461e-06
-6.31377494592e-08
2.32298568537e-06
-3.8440214107e-08
1.7459025601e-06
-2.04452824358e-08
1.2410526373e-06
-8.56454606137e-09
8.07496628653e-07
-2.01994044889e-09
4.40892622062e-07
1.351357969e-07
-3.38135643775e-09
1.404184341e-06
-1.25129840693e-08
3.7924908478e-06
-2.60738687623e-08
5.63334642516e-06
-4.29733890541e-08
7.02252977959e-06
-6.23147385178e-08
8.04034201211e-06
-8.33639178786e-08
8.75408231893e-06
-1.05523412502e-07
9.22010903347e-06
-1.28309961771e-07
9.48556545731e-06
-1.51335729939e-07
9.589829632e-06
-1.74292531961e-07
9.56573499331e-06
-1.96938864008e-07
9.44060145725e-06
-2.19085026722e-07
9.23710082154e-06
-2.40541460198e-07
8.97388002153e-06
-2.60921469602e-07
8.66551914924e-06
-2.79174549841e-07
8.32099146569e-06
-2.93021582768e-07
7.94052735245e-06
-2.9897440558e-07
7.51356428054e-06
-2.93527809674e-07
7.02241463002e-06
-2.75015667089e-07
6.45267482215e-06
-2.44736258357e-07
5.80435417401e-06
-2.06512688871e-07
5.09581612354e-06
-1.65180014951e-07
4.35851963983e-06
-1.25090274433e-07
3.62726363401e-06
-8.93060288414e-08
2.93188120049e-06
-5.94921482923e-08
2.29317180481e-06
-3.61988355729e-08
1.72260924738e-06
-1.92472388043e-08
1.22410104053e-06
-8.06164122912e-09
7.96311031079e-07
-1.90126210153e-09
4.34732242936e-07
1.33234534799e-07
-3.31120133958e-09
1.40749554234e-06
-1.22533668127e-08
3.80143301326e-06
-2.55329095841e-08
5.64662596793e-06
-4.20818510386e-08
7.03907872104e-06
-6.10220064688e-08
8.05928216754e-06
-8.16346146722e-08
8.77469492715e-06
-1.03334564644e-07
9.24180898345e-06
-1.25648623959e-07
9.50787951664e-06
-1.48197007855e-07
9.61237801589e-06
-1.70677974995e-07
9.58821596042e-06
-1.92855008315e-07
9.46277849061e-06
-2.1453957138e-07
9.25878538454e-06
-2.35526713986e-07
8.99486716421e-06
-2.55368542976e-07
8.68536097816e-06
-2.72890152887e-07
8.33851307559e-06
-2.8569092829e-07
7.95332812785e-06
-2.90323818083e-07
7.51819717032e-06
-2.83588111998e-07
7.01567892394e-06
-2.6426671898e-07
6.43335342921e-06
-2.33987692971e-07
5.774075148e-06
-1.96611760323e-07
5.05844019085e-06
-1.56752486788e-07
4.31866036631e-06
-1.18434287154e-07
3.58894543439e-06
-8.44238989787e-08
2.8978708123e-06
-5.61859375785e-08
2.26493384341e-06
-3.41683295506e-08
1.70059163935e-06
-1.81624902184e-08
1.2080952012e-06
-7.60638789001e-09
7.85754928753e-07
-1.79383179536e-09
4.28919686841e-07
1.31440703004e-07
-3.24508513154e-09
1.41074062747e-06
-1.20086957959e-08
3.81019662392e-06
-2.50230922625e-08
5.6596403644e-06
-4.12416343389e-08
7.05529726313e-06
-5.98036860035e-08
8.07784421921e-06
-8.00048462826e-08
8.79489608745e-06
-1.01271693315e-07
9.2630758305e-06
-1.23140445575e-07
9.52974826891e-06
-1.45238909071e-07
9.63447647939e-06
-1.67271422031e-07
9.61024847336e-06
-1.89006030802e-07
9.48451309942e-06
-2.10254099767e-07
9.28003345343e-06
-2.30791688971e-07
9.01540475349e-06
-2.50104861588e-07
8.70467415072e-06
-2.66897558013e-07
8.35530577201e-06
-2.78670240713e-07
7.96510081055e-06
-2.82048986364e-07
7.52157591596e-06
-2.74144850382e-07
7.00777478796e-06
-2.54152553372e-07
6.41336113228e-06
-2.23971353019e-07
5.74389394763e-06
-1.87460645913e-07
5.02192948371e-06
-1.49011612065e-07
4.28021133247e-06
-1.12347366363e-07
3.55228118871e-06
-7.99720269043e-08
2.86549547282e-06