/*--------------------------------*- C++ -*----------------------------------*\
| =========                 |                                                 |
| \\      /  F ield         | OpenFOAM: The Open Source CFD Toolbox           |
|  \\    /   O peration     | Version:  2206                                  |
|   \\  /    A nd           | Website:  www.openfoam.com                      |
|    \\/     M anipulation  |                                                 |
\*---------------------------------------------------------------------------*/
FoamFile
{
    version     2.0;
    format      ascii;
    arch        "LSB;label=32;scalar=64";
    class       volVectorField;
    location    "600";
    object      U;
}
// * * * * * * * * * * * * * * * * * * * * * * * * * * * * * * * * * * * * * //

dimensions      [0 1 -1 0 0 0 0];

internalField   nonuniform List<vector> 
3000
(
(1.00514458058 -0.00074452270585 -2.80576724586e-13)
(1.00519974501 -0.00170310632629 -9.03251683865e-14)
(1.00531043585 -0.002698262834 -6.04014619086e-14)
(1.00546243557 -0.00365899422544 -4.7855477356e-14)
(1.00564683019 -0.00457985139381 -3.88112307695e-14)
(1.00585649185 -0.00546342722149 -3.4081512505e-14)
(1.00608551792 -0.00631206599347 -2.97818501918e-14)
(1.00632890799 -0.00712708042256 -2.73845955514e-14)
(1.00658237121 -0.0079089914683 -2.57439623549e-14)
(1.00684220526 -0.00865780863814 -2.41091916959e-14)
(1.00710521504 -0.00937326445993 -2.29205512281e-14)
(1.00736865455 -0.0100549961296 -2.13664830573e-14)
(1.00763018162 -0.010702677785 -2.23483758411e-14)
(1.00788782059 -0.011316111306 -1.82150290652e-14)
(1.00813993925 -0.0118952842332 -2.09858180312e-14)
(1.00838525053 -0.0124404027859 -1.90313921808e-14)
(1.00862271865 -0.0129519031656 -2.02147939826e-14)
(1.00885085624 -0.0134304281663 -2.43561580907e-14)
(1.00906629155 -0.0138767537746 -2.28960238386e-14)
(1.00926649507 -0.0142918094358 -1.13389479869e-14)
(1.00947305484 -0.0146774029245 -1.56323714931e-14)
(1.0097901034 -0.0150381337862 -2.5224498088e-14)
(1.01043763909 -0.0153812308444 -1.55487682089e-14)
(1.01149155889 -0.0157035996817 -7.74332206197e-15)
(1.01178906063 -0.0159580706889 -2.50481691002e-14)
(1.00640478836 -0.0160112342508 -2.22822233272e-14)
(0.982512281327 -0.0155819836085 -2.17971817192e-14)
(0.91370681667 -0.0140618328098 -1.41565509662e-14)
(0.75065883322 -0.0103476457079 -8.02286979638e-15)
(0.396854543207 -0.00366081918168 -1.03275843269e-14)
(1.02739406077 -0.000572460173063 -7.25765407231e-13)
(1.02756270324 -0.00131409350836 -2.69578102129e-13)
(1.027903575 -0.00205341167997 -1.69551080638e-13)
(1.02836903452 -0.002744382834 -1.23695298842e-13)
(1.02892964844 -0.00337624342104 -1.0310951803e-13)
(1.02956199524 -0.00395211505774 -9.16972351053e-14)
(1.03024694395 -0.0044756765552 -7.74769967632e-14)
(1.0309686355 -0.00495116960118 -7.15887814709e-14)
(1.03171385078 -0.00538312021309 -6.57798454792e-14)
(1.03247156688 -0.00577607826666 -5.77089925468e-14)
(1.03323262074 -0.00613446712539 -5.97416547315e-14)
(1.03398944227 -0.0064624852344 -4.77111316855e-14)
(1.03473583497 -0.00676403766897 -5.79068690386e-14)
(1.03546679823 -0.00704269039572 -3.95094707986e-14)
(1.03617839762 -0.00730164324384 -4.96849773946e-14)
(1.03686756915 -0.00754371771758 -4.56260549427e-14)
(1.03753131983 -0.007771349279 -4.77307911993e-14)
(1.03816530668 -0.00798657315415 -5.55165631521e-14)
(1.03876818296 -0.00819106359752 -5.61727719794e-14)
(1.03937125704 -0.00838650173759 -2.87316906373e-14)
(1.04009628061 -0.00857557356484 -3.57800332518e-14)
(1.04109861044 -0.00876193594228 -5.43817453194e-14)
(1.04192554748 -0.00894100791088 -3.82640903015e-14)
(1.03959084349 -0.00906893657279 -2.64437629004e-14)
(1.0252489452 -0.00901810451988 -5.23188983226e-14)
(0.981179745672 -0.00856999173924 -4.79453065438e-14)
(0.881876216537 -0.00747530909848 -4.15984084455e-14)
(0.703343563578 -0.00554013740507 -2.69012278722e-14)
(0.44225735083 -0.00283907212677 -1.32668374093e-14)
(0.139647664065 -0.000247218215822 -7.51740099401e-15)
(1.04476400268 -0.000294306558225 -9.38753042692e-13)
(1.04492110378 -0.000684130957267 -3.71619665548e-13)
(1.04523857595 -0.0010650651712 -2.42356200333e-13)
(1.04567053242 -0.00143628829792 -1.69026423667e-13)
(1.04618902529 -0.00178623612456 -1.39918181223e-13)
(1.04677177085 -0.00211845483409 -1.22355350775e-13)
(1.04740072934 -0.00243415965446 -1.05101758987e-13)
(1.04806109901 -0.00273466732125 -9.75018197704e-14)
(1.04874071359 -0.00302110836369 -8.98358534321e-14)
(1.04942959267 -0.00329435380027 -7.85511184376e-14)
(1.05011958534 -0.00355505142968 -8.00784857067e-14)
(1.05080408081 -0.00380366534235 -6.62352427683e-14)
(1.05147777054 -0.00404051685212 -7.62298920311e-14)
(1.05213646605 -0.0042658254338 -5.18293752911e-14)
(1.0527769469 -0.0044797469533 -6.63665396749e-14)
(1.05339650114 -0.00468240264021 -6.22214406726e-14)
(1.05399160581 -0.00487388663804 -6.55920122552e-14)
(1.05455897287 -0.00505429655728 -7.46835643677e-14)
(1.05511477092 -0.00522400707681 -7.02609162261e-14)
(1.05574408032 -0.00538429301626 -4.44660944021e-14)
(1.05657215969 -0.00553679178516 -5.20149903222e-14)
(1.05722131333 -0.00567651101584 -6.71731320347e-14)
(1.05505233123 -0.00577094249665 -5.21224958321e-14)
(1.04213219955 -0.00572874502248 -4.5350149702e-14)
(1.00295313074 -0.00539161318272 -6.35382143636e-14)
(0.916976611813 -0.0045988670591 -5.7520036989e-14)
(0.768905690321 -0.00332334123868 -4.54355233289e-14)
(0.563372890361 -0.00180155812042 -3.00547882997e-14)
(0.330956354885 -0.000545069416753 -1.50594503356e-14)
(0.107742004256 -3.94265940332e-06 -4.94644863134e-15)
(1.052706044 -0.000287045120493 -1.06484712407e-12)
(1.05284838597 -0.000671771084621 -4.56557930736e-13)
(1.05313558708 -0.00104710943031 -2.8796314481e-13)
(1.05352718419 -0.00141094547309 -2.02663769128e-13)
(1.05399883747 -0.00174633276909 -1.70075605377e-13)
(1.05453096837 -0.00205805722979 -1.46305257483e-13)
(1.05510768825 -0.00234652807096 -1.27678321738e-13)
(1.05571581067 -0.00261295345698 -1.16870553935e-13)
(1.05634434607 -0.00285848721744 -1.08229829873e-13)
(1.05698412666 -0.00308423858709 -9.60348712049e-14)
(1.05762752059 -0.00329131049066 -9.54715756748e-14)
(1.05826820676 -0.00348080312334 -8.1168244505e-14)
(1.0589009971 -0.00365381431118 -8.90819088708e-14)
(1.05952170789 -0.00381143659005 -6.9385941057e-14)
(1.06012695669 -0.00395475086474 -7.9480384152e-14)
(1.06071338033 -0.00408481123589 -7.6599690942e-14)
(1.06127697415 -0.00420262198934 -8.0808438089e-14)
(1.06182154534 -0.00430921560704 -8.7475183591e-14)
(1.06239246619 -0.0044060592358 -7.90764488371e-14)
(1.06308597078 -0.00449517956761 -5.78407505855e-14)
(1.06372622706 -0.00457534744066 -6.54947053339e-14)
(1.06257812057 -0.00462799231257 -7.53143138235e-14)
(1.05381285493 -0.00459360776893 -6.27767257485e-14)
(1.02522459939 -0.00436151931841 -5.92015890665e-14)
(0.95979140463 -0.00381145914844 -6.82957540179e-14)
(0.843738488541 -0.00291404137812 -5.97918264857e-14)
(0.677905350848 -0.00182301094144 -4.53146103113e-14)
(0.481936368159 -0.000847836763137 -3.05171883235e-14)
(0.282001679737 -0.000250609889816 -1.64274123296e-14)
(0.0922358211498 -1.51502860073e-05 -5.43912880518e-15)
(1.05842793217 -0.000243669755093 -1.1612669665e-12)
(1.05857363262 -0.000574950795912 -5.29883683247e-13)
(1.05886701535 -0.000893351361533 -3.30085290435e-13)
(1.0592670067 -0.00120030734966 -2.33819019947e-13)
(1.05974834717 -0.00147775754179 -1.95454318282e-13)
(1.06029068252 -0.00173282579775 -1.67785985504e-13)
(1.06087756024 -0.00196565402909 -1.46473019779e-13)
(1.06149533857 -0.00217814672692 -1.33675273908e-13)
(1.06213269199 -0.00237199414642 -1.23111626256e-13)
(1.06278021727 -0.0025488089693 -1.10441473864e-13)
(1.06343013431 -0.00271011452955 -1.07714205179e-13)
(1.06407604833 -0.00285732093665 -9.28733989979e-14)
(1.06471276434 -0.00299172143733 -9.95033803811e-14)
(1.06533613177 -0.00311449424513 -8.10759751777e-14)
(1.06594267414 -0.00322670565127 -8.93059374201e-14)
(1.06652871191 -0.00332930864232 -8.8719716639e-14)
(1.06709231275 -0.00342316379931 -9.32471168595e-14)
(1.06765084316 -0.0035092260093 -9.65232237533e-14)
(1.06826696459 -0.00358886255071 -8.61289122763e-14)
(1.06891761719 -0.00366254602561 -6.8642729851e-14)
(1.06871748736 -0.00372201325798 -7.46990957214e-14)
(1.06399936838 -0.00373281150061 -8.15563465085e-14)
(1.04595354646 -0.00361963221838 -7.11161322692e-14)
(1.00063377935 -0.00328533931336 -6.77141651984e-14)
(0.914301203835 -0.00268030981528 -6.99567504899e-14)
(0.782707132868 -0.00187993044494 -5.94657372969e-14)
(0.616615355129 -0.00108180844252 -4.45305568984e-14)
(0.435827272026 -0.000482599416166 -3.02980137592e-14)
(0.256146575609 -0.000143785645413 -1.68697472849e-14)
(0.0842632978184 -6.14198594719e-06 -5.52928213569e-15)
(1.06474587045 -0.000197206062118 -1.21816612314e-12)
(1.0648900113 -0.000467611537623 -5.89663989702e-13)
(1.06518000965 -0.000724234606055 -3.60123194594e-13)
(1.06557530173 -0.000975919693253 -2.59390445156e-13)
(1.0660507534 -0.00120431857199 -2.15880852154e-13)
(1.06658619147 -0.00141751724506 -1.85257215147e-13)
(1.06716536659 -0.00161431554012 -1.61681393608e-13)
(1.06777481165 -0.00179634200798 -1.47369119885e-13)
(1.06840337834 -0.00196465636814 -1.35009198896e-13)
(1.06904183038 -0.00212029431118 -1.22186513088e-13)
(1.06968254134 -0.0022642250243 -1.17604239715e-13)
(1.0703192552 -0.00239734024846 -1.03537513633e-13)
(1.07094690116 -0.00252046214574 -1.0633584378e-13)
(1.07156139638 -0.00263434840021 -9.13903194435e-14)
(1.07215912856 -0.00273969374138 -9.83087014003e-14)
(1.0727366204 -0.00283713082411 -9.90417153064e-14)
(1.07329674691 -0.00292729259094 -1.02628150372e-13)
(1.07387011591 -0.0030110378318 -1.04472878341e-13)
(1.07449074476 -0.00308925657033 -9.26379964022e-14)
(1.07482349861 -0.00315932899509 -7.8518257084e-14)
(1.07290785823 -0.00320389835871 -8.25718349022e-14)
(1.06302274992 -0.00317543381101 -8.68604161895e-14)
(1.03444213754 -0.00299767760182 -7.75066310567e-14)
(0.974077450575 -0.0026071590042 -7.33179141572e-14)
(0.873599807546 -0.00201914458691 -7.03090098007e-14)
(0.736132456892 -0.00135306342024 -5.81635728907e-14)
(0.57531950155 -0.000766747222508 -4.43344653813e-14)
(0.406517900378 -0.000351735282873 -3.00593628083e-14)
(0.239620384323 -0.000110220489698 -1.68962255363e-14)
(0.0791579676495 -6.39204509537e-06 -5.51498705324e-15)
(1.07071292256 -0.000182250438462 -1.25521988776e-12)
(1.07085484384 -0.000431555340982 -6.42192975745e-13)
(1.07113989367 -0.00066719948196 -3.96079271421e-13)
(1.07152853847 -0.00090016632707 -2.81864269173e-13)
(1.07199622013 -0.0011111064142 -2.33838692954e-13)
(1.07252324909 -0.00130880200108 -2.00496463864e-13)
(1.07309374679 -0.00149118144685 -1.75113785029e-13)
(1.07369451147 -0.00166007350553 -1.59465227731e-13)
(1.07431459676 -0.001816295911 -1.45805651596e-13)
(1.07494490655 -0.00196077469804 -1.3257445519e-13)
(1.0755779079 -0.00209437627601 -1.263646376e-13)
(1.07620740391 -0.00221790707555 -1.12757117348e-13)
(1.07682835342 -0.00233212069994 -1.13024226752e-13)
(1.07743661617 -0.00243771829129 -1.00155165107e-13)
(1.07802841478 -0.00253534619707 -1.05680567997e-13)
(1.07860139774 -0.00262560649626 -1.07436073907e-13)
(1.07916521946 -0.00270916385834 -1.10357797526e-13)
(1.07975232065 -0.00278688399497 -1.11583068058e-13)
(1.08028714196 -0.00285868032182 -9.8827781864e-14)
(1.07990280935 -0.00291748845904 -8.65181170589e-14)
(1.07532795854 -0.00293664917417 -9.05387250463e-14)
(1.05907252174 -0.00286134397477 -9.1719397034e-14)
(1.01982625489 -0.00262655615788 -8.21886102773e-14)
(0.947049668146 -0.0022067257497 -7.62056277635e-14)
(0.837663443022 -0.00165786847224 -7.02219023755e-14)
(0.698859263438 -0.00109803147606 -5.74061812815e-14)
(0.543610121468 -0.000631530373633 -4.31795085382e-14)
(0.383543974246 -0.000298897182459 -2.95627611033e-14)
(0.225958048592 -9.73167070384e-05 -1.67082953358e-14)
(0.0746015594962 -6.42882416238e-06 -5.44790680002e-15)
(1.0759495957 -0.000172815124877 -1.28197716794e-12)
(1.07609154283 -0.000409230254031 -6.90506348814e-13)
(1.07637607789 -0.00063241716411 -4.11435873915e-13)
(1.07676404591 -0.000853539046281 -3.02694267258e-13)
(1.07723094885 -0.00105266864617 -2.50486381288e-13)
(1.07775715958 -0.00123936847573 -2.14595693779e-13)
(1.07832683755 -0.00141100125132 -1.87576252575e-13)
(1.0789268015 -0.00156974451579 -1.70622868525e-13)
(1.07954612472 -0.00171627792775 -1.54944923572e-13)
(1.08017572077 -0.00185155915469 -1.42130248929e-13)
(1.08080806296 -0.00197644552197 -1.34660128669e-13)
(1.08143695949 -0.00209173237712 -1.22698223451e-13)
(1.08205736043 -0.00219815859197 -1.21490608426e-13)
(1.08266503649 -0.00229640585832 -1.08380689188e-13)
(1.08325627903 -0.00238709916819 -1.12177716762e-13)
(1.08383110622 -0.002470838059 -1.14926175427e-13)
(1.08440513937 -0.00254832474025 -1.17079729737e-13)
(1.08498564707 -0.00262021687425 -1.1534952656e-13)
(1.08527786607 -0.00268465336369 -1.04768964348e-13)
(1.08368408201 -0.00272918732142 -9.21358658519e-14)
(1.07557588235 -0.00271949627427 -9.60532465865e-14)
(1.05226247892 -0.00260041821877 -9.59835907861e-14)
(1.0030277588 -0.00232550494559 -8.59284046289e-14)
(0.92053252153 -0.00190125973869 -7.92978604952e-14)
(0.805715401379 -0.0014008039246 -7.1014734075e-14)
(0.667405337099 -0.000922221589653 -5.76787600044e-14)
(0.517039737871 -0.000532042517207 -4.19138466974e-14)
(0.363942451799 -0.000252202104041 -2.92940395088e-14)
(0.214073394779 -8.16355607372e-05 -1.67264123094e-14)
(0.0705802105691 -5.05295322354e-06 -5.76951203483e-15)
(1.08077082177 -0.000161520070645 -1.29996305899e-12)
(1.08091303875 -0.000382938293452 -7.34915484757e-13)
(1.08119769438 -0.000591560428664 -4.38589503445e-13)
(1.08158584968 -0.000798922486125 -3.22093924047e-13)
(1.08205295842 -0.000985052278867 -2.65953164798e-13)
(1.08257939122 -0.00116007817349 -2.27677420851e-13)
(1.0831492993 -0.00132079405183 -1.9917728148e-13)
(1.0837494943 -0.00146961868984 -1.80800625853e-13)
(1.08436904917 -0.00160700821723 -1.6207911685e-13)
(1.08499887516 -0.00173390324043 -1.50903791353e-13)
(1.08563144595 -0.00185108624248 -1.425831135e-13)
(1.08626057095 -0.00195929304167 -1.3315879686e-13)
(1.08688117848 -0.00205920741243 -1.28467359205e-13)
(1.08748896767 -0.00215145969617 -1.16017803018e-13)
(1.08808071306 -0.00223663249288 -1.20784140073e-13)
(1.08865966786 -0.00231531343974 -1.21734579507e-13)
(1.08924129872 -0.0023881831304 -1.23180445706e-13)
(1.08976396495 -0.00245534946859 -1.20740328463e-13)
(1.08959270367 -0.00251240644246 -1.10328106088e-13)
(1.08626641026 -0.00254136399774 -9.96769146111e-14)
(1.07394344601 -0.00250317398184 -1.00815835832e-13)
(1.04340610336 -0.00234834677126 -9.96524519687e-14)
(0.985335440725 -0.00205100011358 -8.89296780978e-14)
(0.895494603522 -0.00163977449014 -8.10805087756e-14)
(0.777491121506 -0.00118932739965 -7.17032662714e-14)
(0.640506713651 -0.000776110101938 -5.73652654526e-14)
(0.494566264433 -0.000444649990855 -4.25881492143e-14)
(0.347484548361 -0.000208916842259 -2.90928002846e-14)
(0.204215963964 -6.67801124339e-05 -1.66930239817e-14)
(0.0673095562972 -3.93540355995e-06 -5.7595882099e-15)
(1.08536311763 -0.000151847431357 -1.31063317473e-12)
(1.08550530659 -0.000360188204617 -7.75655765524e-13)
(1.08578956064 -0.000556089813096 -4.5526241385e-13)
(1.08617719744 -0.000751384652516 -3.40162643816e-13)
(1.08664368991 -0.000926257279543 -2.80371666607e-13)
(1.0871694646 -0.00109116967705 -2.39867970612e-13)
(1.08773870306 -0.00124242817072 -2.09988332163e-13)
(1.08833823972 -0.00138267436945 -1.90263546496e-13)
(1.08895716635 -0.00151215164302 -1.70490354517e-13)
(1.08958640505 -0.00163180493403 -1.59060832276e-13)
(1.09021843814 -0.00174234554001 -1.49878197331e-13)
(1.09084707756 -0.00184446312742 -1.39482566221e-13)
(1.09146722165 -0.00193879639163 -1.34466274711e-13)
(1.09207457466 -0.00202593414776 -1.23012113817e-13)
(1.09266690034 -0.00210642923236 -1.26140773318e-13)
(1.09325036143 -0.00218086468724 -1.27974583986e-13)
(1.0938271972 -0.00224981097629 -1.28717022268e-13)
(1.09420967153 -0.00231243823224 -1.2511598593e-13)
(1.09331022288 -0.00236124613903 -1.15538299e-13)
(1.08775878108 -0.00237331791227 -1.05271957255e-13)
(1.07077596955 -0.00230819196856 -1.0634534284e-13)
(1.0332360466 -0.00212586924983 -1.02916845452e-13)
(0.967619595027 -0.00181901971674 -9.12058985502e-14)
(0.872325614672 -0.00142880036072 -8.1712623747e-14)
(0.752577785013 -0.00102383159174 -7.12974033153e-14)
(0.617350824431 -0.000663074372949 -5.69257014155e-14)
(0.475497682442 -0.000377930538265 -4.22341726154e-14)
(0.333679766691 -0.000177047013308 -2.88272610442e-14)
(0.196025373237 -5.66013067228e-05 -1.63970087677e-14)
(0.0646125682336 -3.40196073042e-06 -5.31858007833e-15)
(1.08973490107 -0.000144277493272 -1.31602424146e-12)
(1.08987707442 -0.000342259246363 -8.13483715423e-13)
(1.09016096895 -0.000528181733515 -4.81691000923e-13)
(1.09054813091 -0.000713899651301 -3.57279354101e-13)
(1.0910140586 -0.000879837416123 -2.93944562448e-13)
(1.09153923411 -0.00103664415629 -2.51338577076e-13)
(1.09210786479 -0.00118025808401 -2.20155011726e-13)
(1.09270680681 -0.00131353415283 -1.99116846323e-13)
(1.09332516872 -0.00143652870069 -1.77494068344e-13)
(1.09395388283 -0.00155021456934 -1.6667903928e-13)
(1.09458543937 -0.00165524302705 -1.56909278014e-13)
(1.09521364851 -0.00175227536051 -1.46990218776e-13)
(1.09583337918 -0.00184191747301 -1.40679875587e-13)
(1.09644048551 -0.00192472920068 -1.29689849691e-13)
(1.09703414051 -0.00200124775474 -1.32279247445e-13)
(1.09762105419 -0.00207204622125 -1.33636525537e-13)
(1.09816965362 -0.00213745155726 -1.33797873501e-13)
(1.09830128408 -0.00219531049568 -1.2975860729e-13)
(1.09638766505 -0.00223479196955 -1.20352431433e-13)
(1.08818757964 -0.00222924505021 -1.10502981537e-13)
(1.06631854461 -0.00213977825632 -1.10236562578e-13)
(1.02222489699 -0.00193746356736 -1.05613470335e-13)
(0.950280353372 -0.00162961020771 -9.30912755187e-14)
(0.850959911724 -0.00126269693328 -8.28935563029e-14)
(0.730392116422 -0.000896870114449 -7.16669194327e-14)
(0.597121142398 -0.000578032013455 -5.67938327137e-14)
(0.459009926623 -0.000328882494952 -4.20625038788e-14)
(0.321793699081 -0.000154237019358 -2.87461452472e-14)
(0.188966077699 -4.95048203915e-05 -1.64732044569e-14)
(0.0622754297033 -3.03638650937e-06 -5.66245356735e-15)
(1.09388964247 -0.00013781121036 -1.31752019468e-12)
(1.09403188271 -0.000326951445334 -8.48542376398e-13)
(1.09431560829 -0.000504435673516 -5.01991651991e-13)
(1.09470254821 -0.000681983004454 -3.7351612624e-13)
(1.09516821025 -0.000840333912509 -3.06861973401e-13)
(1.0956931143 -0.000990223817301 -2.62220407942e-13)
(1.0962614791 -0.00112731614095 -2.29790444175e-13)
(1.09686017371 -0.0012546453464 -2.07529267449e-13)
(1.0974783157 -0.00137209578975 -1.85289114808e-13)
(1.09810684243 -0.00148067491755 -1.73928934738e-13)
(1.09873824761 -0.00158097535963 -1.63712798304e-13)
(1.09936633305 -0.00167363743244 -1.53868935917e-13)
(1.09998595506 -0.00175923794142 -1.45278745846e-13)
(1.10059331304 -0.0018383139733 -1.3614373398e-13)
(1.10118905424 -0.00191139331197 -1.39855174659e-13)
(1.10177528666 -0.00197901030028 -1.3988715233e-13)
(1.10225909235 -0.00204107511282 -1.38794946932e-13)
(1.10200541762 -0.00209377938259 -1.33592338858e-13)
(1.09879131191 -0.00212305227543 -1.24902003465e-13)
(1.08760903008 -0.00210000323411 -1.16136512434e-13)
(1.06080854162 -0.00198959138356 -1.13288459398e-13)
(1.01072254913 -0.00177387241923 -1.07768686379e-13)
(0.933519989879 -0.00147061140986 -9.44735260755e-14)
(0.83123686234 -0.00112706405422 -8.31009994195e-14)
(0.710453451481 -0.000794917763518 -7.10904651476e-14)
(0.579202996753 -0.000510352730006 -5.59552913883e-14)
(0.444504585182 -0.000289936145473 -4.25219456465e-14)
(0.311352639834 -0.000135959222706 -2.89180694521e-14)
(0.182756069566 -4.36574451131e-05 -1.64599073272e-14)
(0.0602137103479 -2.67559015189e-06 -5.32481020412e-15)
(1.09785762964 -0.00013200826961 -1.31589065006e-12)
(1.09799995671 -0.000313215216494 -8.81141834131e-13)
(1.09828358406 -0.000483156261071 -5.16103941448e-13)
(1.09867039615 -0.000653355919645 -3.88984430595e-13)
(1.09913590593 -0.000804930910332 -3.19009556418e-13)
(1.09966066382 -0.000948622783753 -2.72575891237e-13)
(1.10022889482 -0.00107989210016 -2.38867797198e-13)
(1.10082747798 -0.0012019154445 -2.15607955501e-13)
(1.10144553654 -0.0013144221172 -1.93388160021e-13)
(1.10207401083 -0.00141845561371 -1.80814231606e-13)
(1.10270539524 -0.00151455053045 -1.7019987012e-13)
(1.10333347986 -0.00160333076588 -1.59923663909e-13)
(1.10395314936 -0.00168534567209 -1.50819125638e-13)
(1.1045611495 -0.00176111398624 -1.42147439679e-13)
(1.10515899457 -0.00183115387135 -1.44946691197e-13)
(1.10573577276 -0.00189591001753 -1.45138061427e-13)
(1.10610437192 -0.00195468276858 -1.43537663832e-13)
(1.10531401455 -0.00200177608499 -1.38795172459e-13)
(1.10053074253 -0.00202025347984 -1.29328404648e-13)
(1.08612913393 -0.00198051606553 -1.19058170377e-13)
(1.05449010168 -0.00185283048591 -1.16324409345e-13)
(0.999011307362 -0.00162913027154 -1.09669201429e-13)
(0.917462780812 -0.00133400238516 -9.55654971147e-14)
(0.813018107497 -0.00101295084487 -8.42835998153e-14)
(0.692426329363 -0.000710092166779 -7.07939199274e-14)
(0.563194460061 -0.000454239485123 -5.61656730232e-14)
(0.431622271271 -0.000257540552459 -4.2040004311e-14)
(0.302104643279 -0.000120626042317 -2.86997100194e-14)
(0.177263108026 -3.86950532163e-05 -1.63535960674e-14)
(0.0583923202121 -2.36314864136e-06 -5.28257424503e-15)
(1.10166648399 -0.000126826191379 -1.31184878387e-12)
(1.10180889224 -0.000300927103605 -9.11454771158e-13)
(1.10209243493 -0.000464133291362 -5.44093576344e-13)
(1.10247913488 -0.000627737659991 -4.03781341328e-13)
(1.10294451209 -0.000773267074719 -3.30755108338e-13)
(1.10346914544 -0.00091140637572 -2.82517150619e-13)
(1.10403726536 -0.00103747332309 -2.48056892683e-13)
(1.1046357607 -0.00115475384164 -2.23375727742e-13)
(1.10525375949 -0.00126284194095 -2.01021192366e-13)
(1.10588220475 -0.00136281656474 -1.8725939191e-13)
(1.1065135899 -0.00145515662214 -1.76369552612e-13)
(1.10714169534 -0.00154047382514 -1.65566960145e-13)
(1.10776149926 -0.00161929220749 -1.56409619569e-13)
(1.10837042433 -0.00169211639861 -1.47904761274e-13)
(1.10896925537 -0.00175944861446 -1.49173931301e-13)
(1.10952225784 -0.00182157449925 -1.49897845374e-13)
(1.10971229155 -0.00187699472815 -1.48026205509e-13)
(1.10822501925 -0.00191801815187 -1.4234558576e-13)
(1.10163429762 -0.0019254195364 -1.3355071839e-13)
(1.08386717436 -0.00187026227326 -1.23658302385e-13)
(1.0475776931 -0.0017288165401 -1.20538752146e-13)
(0.987295900067 -0.00150130696191 -1.11367383365e-13)
(0.902165527367 -0.00121631604933 -9.64088414268e-14)
(0.796168107077 -0.000916360248928 -8.32889305259e-14)
(0.676045805159 -0.000639049954362 -7.0428880513e-14)
(0.54879456791 -0.000407513581812 -5.59380093481e-14)
(0.420097987374 -0.000230649321452 -4.16029953911e-14)
(0.293855550804 -0.000107942240088 -2.84174148582e-14)
(0.172370963843 -3.46188874224e-05 -1.62176212044e-14)
(0.0567716518698 -2.11728374395e-06 -5.23857063563e-15)
(1.1053333102 -0.000122214115663 -1.30601067131e-12)
(1.10547579949 -0.000289971884173 -9.3969162189e-13)
(1.1057592772 -0.000447191849154 -5.58140713031e-13)
(1.10614588895 -0.000604902397147 -4.179995914e-13)
(1.10661116286 -0.000745056710643 -3.41242120624e-13)
(1.10713570348 -0.000878236624867 -2.92003268916e-13)
(1.10770374555 -0.000999667299746 -2.55067344973e-13)
(1.10830218701 -0.00111271529624 -2.3078764776e-13)
(1.10892015964 -0.00121685908298 -2.08137770253e-13)
(1.10954860863 -0.00131321053723 -1.9186274257e-13)
(1.11018002478 -0.00140219633516 -1.82282579392e-13)
(1.11080818739 -0.00148441957164 -1.70972233416e-13)
(1.11142824916 -0.00156038135827 -1.61770699423e-13)
(1.11203826854 -0.0016305754659 -1.52719401928e-13)
(1.11263544439 -0.0016954743141 -1.55471241108e-13)
(1.11314428128 -0.00175512072744 -1.5326582082e-13)
(1.11308136844 -0.00180704852904 -1.52302490893e-13)
(1.11073575248 -0.00184159276353 -1.47096197168e-13)
(1.10213685673 -0.00183792812473 -1.37271116946e-13)
(1.08093669403 -0.00176888185246 -1.26910842375e-13)
(1.04024362776 -0.00161682962373 -1.2239176042e-13)
(0.975711825104 -0.0013885979582 -1.12743440001e-13)
(0.887633724099 -0.00111471900476 -9.72682412324e-14)
(0.780548828981 -0.000834237421755 -8.40877126905e-14)
(0.661084117967 -0.000579253222332 -6.98070963135e-14)
(0.535753179709 -0.000368442734114 -5.584192053e-14)
(0.409708275278 -0.000208271777324 -4.14284342194e-14)
(0.286434288948 -9.74313037634e-05 -2.82648149092e-14)
(0.167972615288 -3.12549322666e-05 -1.61354388964e-14)
(0.0553143155548 -1.916002781e-06 -5.2096523765e-15)
(1.10887121216 -0.000118068126674 -1.29875002931e-12)
(1.10901378606 -0.0002801132044 -9.65959861149e-13)
(1.10929722384 -0.000431963036565 -5.77154264184e-13)
(1.10968377933 -0.00058436011578 -4.3159572163e-13)
(1.11014898868 -0.000719691023869 -3.52274183468e-13)
(1.11067347877 -0.000848401238083 -3.01091869482e-13)
(1.11124148725 -0.00096566394692 -2.62610172263e-13)
(1.11183991992 -0.00107490103275 -2.37892981905e-13)
(1.11245791117 -0.00117549377999 -2.14824432931e-13)
(1.11308640742 -0.00126858298665 -2.00570391957e-13)
(1.11371789573 -0.00135454697081 -1.87916938007e-13)
(1.11434617099 -0.00143398274049 -1.76215065708e-13)
(1.11496664061 -0.0015073706742 -1.66944952392e-13)
(1.11557767036 -0.00157519484548 -1.58039972922e-13)
(1.11616856923 -0.00163787557738 -1.60716556802e-13)
(1.11660656961 -0.001695120234 -1.58956716922e-13)
(1.11620779658 -0.00174336588279 -1.56208603038e-13)
(1.11284771611 -0.00177111022781 -1.50087900625e-13)
(1.10208019698 -0.00175664568196 -1.40699018351e-13)
(1.07744377653 -0.00167536198179 -1.29440291385e-13)
(1.03262566129 -0.00151543847444 -1.25289578924e-13)
(0.964348210523 -0.00128873229911 -1.13988021751e-13)
(0.873847136342 -0.00102631861012 -9.80511314814e-14)
(0.766032610721 -0.000763693872172 -8.4048832654e-14)
(0.647350914977 -0.000528310692 -7.06962780939e-14)
(0.523867577267 -0.000335319719521 -5.57343839863e-14)
(0.400274433303 -0.000189347397522 -4.13393486734e-14)
(0.279706563595 -8.85460331915e-05 -2.81911556063e-14)
(0.163986914245 -2.84061621952e-05 -1.60991262702e-14)
(0.0539934630923 -1.74294913801e-06 -5.19584851982e-15)
(1.11229233979 -0.000114302712405 -1.29041773961e-12)
(1.11243499947 -0.000271152002375 -9.90534411075e-13)
(1.11271841612 -0.000418132662173 -5.85104921566e-13)
(1.11310493924 -0.000565691586413 -4.44661130444e-13)
(1.11357011314 -0.000696649631547 -3.61855135295e-13)
(1.11409458422 -0.000821291807322 -3.09841319426e-13)
(1.11466259213 -0.000934771656494 -2.70785730887e-13)
(1.11526104955 -0.00104054453338 -2.44734508417e-13)
(1.11587909257 -0.00113791120002 -2.21164854937e-13)
(1.116507668 -0.00122803655929 -2.05477101617e-13)
(1.11713925956 -0.00131125464674 -1.93300675526e-13)
(1.11776770282 -0.00138815804484 -1.8129873803e-13)
(1.11838871386 -0.00145920832067 -1.71965132769e-13)
(1.11900023138 -0.0015248783302 -1.63124421181e-13)
(1.11957784083 -0.00158550587259 -1.63746797942e-13)
(1.11991220621 -0.0016403681082 -1.62941246149e-13)
(1.11908891665 -0.00168472210045 -1.59902641964e-13)
(1.11456863287 -0.00170545592779 -1.52875087502e-13)
(1.10151180821 -0.00168066209861 -1.43915630647e-13)
(1.07348615746 -0.00158880293123 -1.32873115116e-13)
(1.02483420782 -0.0014233205349 -1.27446252421e-13)
(0.953263787897 -0.00119974803218 -1.15205713555e-13)
(0.860774377914 -0.000948775325177 -9.86441151884e-14)
(0.752507284378 -0.000702482492292 -8.40603714115e-14)
(0.634690330814 -0.000484403751777 -7.02490088719e-14)
(0.512976834443 -0.000306873650871 -5.54415775263e-14)
(0.391657828174 -0.000173116553101 -4.1173546986e-14)
(0.273570578082 -8.09234245317e-05 -2.80964269863e-14)
(0.160353640769 -2.59587742849e-05 -1.60569454991e-14)
(0.0527895213532 -1.59339839762e-06 -5.181047673e-15)
(1.11560738288 -0.000110863920649 -1.28134583865e-12)
(1.11575012735 -0.000262961341813 -1.01340967631e-12)
(1.11603353558 -0.000405500631493 -6.0227281645e-13)
(1.11642004227 -0.000548630110121 -4.57243579938e-13)
(1.11688520027 -0.00067560066975 -3.71457486033e-13)
(1.11740967329 -0.000796519759995 -3.18257924613e-13)
(1.11797770254 -0.000906546979194 -2.76262523258e-13)
(1.11857620681 -0.00100915277534 -2.51306690661e-13)
(1.11919432329 -0.00110357233236 -2.27227545981e-13)
(1.11982299849 -0.00119098963378 -2.09287806399e-13)
(1.12045471542 -0.00127169865066 -1.98473887765e-13)
(1.1210833819 -0.00134628863766 -1.86228007736e-13)
(1.12170501649 -0.00141520398952 -1.76828684215e-13)
(1.12231588111 -0.00147890178131 -1.68026627251e-13)
(1.12287050424 -0.00153759991878 -1.67750329854e-13)
(1.12306280892 -0.00159005530689 -1.6594750608e-13)
(1.12172342565 -0.00163031221617 -1.63543478692e-13)
(1.11591114538 -0.00164393979516 -1.57131562671e-13)
(1.10048139731 -0.00160943440887 -1.47003000814e-13)
(1.06915107319 -0.0015085933599 -1.35530609715e-13)
(1.01695626348 -0.00133946578022 -1.28655173164e-13)
(0.942495139322 -0.00112014702986 -1.16112802336e-13)
(0.848378093826 -0.000880353831067 -9.92470506572e-14)
(0.739874046214 -0.000648980078319 -8.47257742201e-14)
(0.6229727715 -0.000446252021386 -7.07859911771e-14)
(0.502950437573 -0.000282237350366 -5.55188801884e-14)
(0.383747364864 -0.000159081797215 -4.11580278003e-14)
(0.26794489736 -7.43365451093e-05 -2.80681221507e-14)
(0.157024206417 -2.38446573389e-05 -1.60429093075e-14)
(0.0516863975743 -1.46443828643e-06 -5.1742976898e-15)
(1.11882533462 -0.000107710199169 -1.27168962233e-12)
(1.11896816242 -0.000255444016515 -1.03480517865e-12)
(1.11925157258 -0.000393914673438 -6.1746326264e-13)
(1.11963807573 -0.000532972852059 -4.69438997682e-13)
(1.12010323363 -0.000656291527864 -3.81277308216e-13)
(1.12062772548 -0.000773789079986 -3.26451315238e-13)