# Region        : all region0
# Cells         : 13056
# Volume        : 2.33333000e+00
# Time          	min(p)	min(k)	min(omega)	min(nut)
0.000120005     	7.94593833e-04	2.40395350e-05	7.45008293e+02	7.56743145e-14
0.000264017     	3.41657596e-04	8.64068911e-06	7.39285375e+02	3.76269254e-13
0.000436833     	3.37922831e-04	4.84935947e-06	7.32597143e+02	2.30224981e-13
0.000644211     	3.05480084e-04	3.19360242e-06	7.24747358e+02	2.12241779e-13
0.000893055     	2.67370895e-04	1.91941279e-06	7.15545140e+02	1.23009361e-13
0.00119165      	2.37047484e-04	1.31845895e-06	7.04793696e+02	1.04740192e-13
0.0015499       	2.13051764e-04	8.72917453e-07	6.92291243e+02	6.92397586e-14
0.00197972      	1.92405430e-04	6.05936064e-07	6.77833646e+02	5.75292877e-14
0.00249549      	1.74023757e-04	4.25132773e-07	6.61220135e+02	4.18393761e-14
0.00311429      	1.57656857e-04	3.11024963e-07	6.42276239e+02	3.41525444e-14
0.00385657      	1.42980955e-04	2.32957601e-07	6.20863909e+02	2.66876137e-14
0.00474757      	1.29639014e-04	1.74800534e-07	5.96881521e+02	2.26051447e-14
0.00581659      	-1.40673600e-03	1.34033827e-07	5.70327768e+02	1.89840124e-14
0.00709941      	-3.84099151e-03	1.05105762e-07	5.41280724e+02	1.64144529e-14
0.00863879      	-6.33447820e-03	8.39821837e-08	5.09933378e+02	1.42231656e-14
0.0104849       	-8.95933712e-03	6.66103376e-08	4.76617651e+02	1.24905161e-14
0.0126986       	-1.16829980e-02	5.35589729e-08	4.41766618e+02	1.10200558e-14
0.0153526       	-1.44372218e-02	4.36875134e-08	4.05914659e+02	9.79911613e-15
0.0185392       	-1.72067289e-02	3.61331884e-08	3.69614310e+02	8.75429320e-15
0.0223581       	-1.99091918e-02	2.94907872e-08	3.33572434e+02	7.86334221e-15
0.026948        	-2.25802604e-02	2.43546208e-08	2.98320972e+02	7.09241699e-15
0.0324454       	-2.51280435e-02	2.03393837e-08	2.64565170e+02	6.42390060e-15
0.0390274       	-2.75666974e-02	1.71726848e-08	2.32793766e+02	5.83937318e-15
0.0467152       	-2.97201370e-02	1.43138916e-08	2.04028650e+02	5.32646264e-15
0.0554609       	-3.16383881e-02	1.20426395e-08	1.78854552e+02	4.87393262e-15
0.0652999       	-3.34421083e-02	1.01806103e-08	1.57095147e+02	4.47324590e-15
0.0753504       	-3.46692264e-02	8.65243809e-09	1.39865283e+02	4.10338470e-15
0.085401        	-3.58262083e-02	7.25763086e-09	1.26202146e+02	3.76951297e-15
0.0954515       	-3.69857092e-02	6.13952218e-09	1.15101225e+02	3.47077869e-15
0.105502        	-3.81034847e-02	5.23617662e-09	1.05888089e+02	3.20276258e-15
0.115553        	-3.91668652e-02	4.43917970e-09	9.81045034e+01	2.96168864e-15
0.125603        	-4.01718633e-02	3.75589769e-09	9.14312126e+01	2.71342740e-15
0.135654        	-4.11123455e-02	3.20499981e-09	8.56393749e+01	2.48649887e-15
0.145704        	-4.19927813e-02	2.74696122e-09	8.05604381e+01	2.28121492e-15
0.155755        	-4.28211866e-02	2.32791300e-09	7.60672165e+01	2.09567715e-15
0.165805        	-4.36001515e-02	1.99058635e-09	7.20617093e+01	1.92853190e-15
0.175736        	-4.42596845e-02	1.71708757e-09	6.85076145e+01	1.77822897e-15
0.185667        	-4.49466006e-02	1.47098616e-09	6.52960353e+01	1.64301069e-15
0.195598        	-4.55806563e-02	1.26360721e-09	6.23785054e+01	1.52087247e-15
0.205408        	-4.60917579e-02	1.09527040e-09	5.97465443e+01	1.41006153e-15
0.215218        	-4.66331542e-02	9.57435993e-10	5.73321986e+01	1.30881190e-15
0.225027        	-4.71237878e-02	8.31280582e-10	5.51088972e+01	1.21604217e-15
0.234837        	-4.75711996e-02	7.25834745e-10	5.30544531e+01	1.13090308e-15
0.244523        	-4.79078596e-02	6.39049392e-10	5.11730687e+01	1.05262437e-15
0.254208        	-4.82897152e-02	5.66952569e-10	4.94228213e+01	9.80527177e-16
0.263894        	-4.86350448e-02	5.06498495e-10	4.77901228e+01	9.14011006e-16
0.273579        	-4.89415408e-02	4.53390961e-10	4.62633369e+01	8.52547440e-16
0.283265        	-4.92063557e-02	4.05890260e-10	4.48323641e+01	7.95680779e-16
0.292822        	-4.93612173e-02	3.65759332e-10	4.35055061e+01	7.43034380e-16
0.302378        	-4.95674226e-02	3.31567202e-10	4.22560771e+01	6.94318312e-16
0.311935        	-4.97515403e-02	3.02195010e-10	4.10773020e+01	6.49328824e-16
0.321491        	-4.99170357e-02	2.76767108e-10	3.99632629e+01	6.07901954e-16
0.331047        	-5.00648696e-02	2.54596560e-10	3.89087155e+01	5.69876400e-16
0.340604        	-5.01838295e-02	2.35141086e-10	3.79089785e+01	5.35045753e-16
0.35016         	-5.02638942e-02	2.17968646e-10	3.69598545e+01	5.03099597e-16
0.359717        	-5.03155271e-02	2.02731934e-10	3.60575674e+01	4.73542496e-16
0.369133        	-5.02797016e-02	1.89150173e-10	3.52108208e+01	4.44069459e-16
0.378549        	-5.03130734e-02	1.76992023e-10	3.44034310e+01	4.16652575e-16
0.387965        	-5.03440802e-02	1.66068003e-10	3.36326127e+01	3.91131604e-16
0.397381        	-5.03700099e-02	1.56220737e-10	3.28958943e+01	3.67329191e-16
0.406796        	-5.03719744e-02	1.47318811e-10	3.21910400e+01	3.45119388e-16
0.416212        	-5.03495178e-02	1.39251729e-10	3.15160119e+01	3.24411711e-16
0.425628        	-5.03060769e-02	1.31925716e-10	3.08689442e+01	3.05093164e-16
0.435044        	-5.02496437e-02	1.25261213e-10	3.02481251e+01	2.87060235e-16
0.44446         	-5.01884141e-02	1.19189563e-10	2.96519802e+01	2.70218005e-16
0.453876        	-5.01260685e-02	1.13651275e-10	2.90790594e+01	2.54479347e-16
0.463292        	-5.00450093e-02	1.08594612e-10	2.85280242e+01	2.39764210e-16
0.472708        	-4.99447697e-02	1.03974352e-10	2.79976378e+01	2.25998980e-16
0.482124        	-4.98250707e-02	9.97507442e-11	2.74867549e+01	2.13115905e-16
0.491372        	-4.96202776e-02	9.58888789e-11	2.70027701e+01	2.01052629e-16
0.500619        	-4.94864096e-02	9.18171444e-11	2.65357345e+01	1.89751534e-16
0.509867        	-4.93510609e-02	8.79119476e-11	2.60847130e+01	1.79159574e-16
0.519115        	-4.92186531e-02	8.43033457e-11	2.56488752e+01	1.69227749e-16
0.528363        	-4.90668429e-02	8.09690412e-11	2.52274584e+01	1.59910788e-16
0.537611        	-4.88991137e-02	7.78894412e-11	2.48197539e+01	1.51166841e-16
0.546858        	-4.87319596e-02	7.50473401e-11	2.44250997e+01	1.42957197e-16
0.556106        	-4.85674846e-02	7.24271174e-11	2.40428764e+01	1.35246014e-16
0.565354        	-4.84019355e-02	7.00131715e-11	2.36725033e+01	1.28000077e-16
0.574602        	-4.82354738e-02	6.77906503e-11	2.33134353e+01	1.21188584e-16
0.58385         	-4.80695834e-02	6.57436532e-11	2.29651607e+01	1.14782942e-16
0.593097        	-4.78924594e-02	6.38572054e-11	2.26271980e+01	1.08756605e-16
0.602345        	-4.76906184e-02	6.21176223e-11	2.22990941e+01	1.03084923e-16
0.611593        	-4.74850441e-02	6.00109125e-11	2.19804222e+01	9.77449948e-17
0.620841        	-4.72866359e-02	5.79732789e-11	2.16707798e+01	9.27155344e-17
0.630089        	-4.70960280e-02	5.60721330e-11	2.13697871e+01	8.79767527e-17
0.639336        	-4.69081671e-02	5.42982623e-11	2.10770854e+01	8.35102472e-17
0.648584        	-4.67194823e-02	5.26442155e-11	2.07923354e+01	7.92989020e-17
0.657832        	-4.65297881e-02	5.11040748e-11	2.05152164e+01	7.53267882e-17
0.66708         	-4.63167644e-02	4.96717833e-11	2.02454246e+01	7.15790487e-17
0.676327        	-4.60778040e-02	4.83426091e-11	1.99826721e+01	6.80418381e-17
0.685575        	-4.58367511e-02	4.71091372e-11	1.97266861e+01	6.47021919e-17
0.694823        	-4.56105403e-02	4.59637171e-11	1.94772076e+01	6.15479910e-17
0.704071        	-4.54028132e-02	4.48993727e-11	1.92339909e+01	5.85679224e-17
0.713319        	-4.52027325e-02	4.36356923e-11	1.89968022e+01	5.57514254e-17
0.722566        	-4.50036000e-02	4.23082570e-11	1.87654196e+01	5.30886387e-17
0.731814        	-4.48076096e-02	4.10620631e-11	1.85396318e+01	5.05703525e-17
0.741062        	-4.45882520e-02	3.98919865e-11	1.83192375e+01	4.81879662e-17
0.75031         	-4.43447241e-02	3.87938382e-11	1.81040453e+01	4.59334515e-17
0.759558        	-4.40975575e-02	3.77644879e-11	1.78938725e+01	4.37993166e-17
0.768805        	-4.38616084e-02	3.68013905e-11	1.76885451e+01	4.17785550e-17
0.778053        	-4.36443448e-02	3.59021975e-11	1.74878968e+01	3.98646001e-17
0.787301        	-4.34431970e-02	3.50653185e-11	1.72917691e+01	3.80513109e-17
0.796549        	-4.32510987e-02	3.42864293e-11	1.71000104e+01	3.63328486e-17
0.805796        	-4.30643988e-02	3.35611130e-11	1.69124760e+01	3.47037269e-17
0.815044        	-4.28764798e-02	3.28853794e-11	1.67290274e+01	3.31588086e-17
0.824292        	-4.26619869e-02	3.20330017e-11	1.65495321e+01	3.16932827e-17
0.83354         	-4.24273392e-02	3.11565180e-11	1.63738634e+01	3.03026404e-17
0.842788        	-4.21905408e-02	3.03308632e-11	1.62018998e+01	2.89826549e-17
0.852035        	-4.19641430e-02	2.95529105e-11	1.60335250e+01	2.77293654e-17
0.861283        	-4.17553160e-02	2.88199847e-11	1.58686276e+01	2.65390643e-17
0.870531        	-4.15635905e-02	2.81299907e-11	1.57071006e+01	2.54082878e-17
0.879779        	-4.13862549e-02	2.74814943e-11	1.55488415e+01	2.43338027e-17
0.889027        	-4.12199808e-02	2.68719321e-11	1.53937518e+01	2.33124978e-17
0.898274        	-4.10606816e-02	2.63030865e-11	1.52417371e+01	2.23416634e-17
0.907522        	-4.09002887e-02	2.57733701e-11	1.50927065e+01	2.14185557e-17
0.91677         	-4.07165010e-02	2.52798752e-11	1.49465728e+01	2.05405250e-17
0.926018        	-4.05154613e-02	2.48198558e-11	1.48032522e+01	1.97050909e-17
0.935265        	-4.03088384e-02	2.43909079e-11	1.46626640e+01	1.89099344e-17
0.944513        	-4.01065070e-02	2.38270061e-11	1.45247306e+01	1.81528817e-17
0.953761        	-3.99147220e-02	2.32467773e-11	1.43893773e+01	1.74318900e-17
0.963009        	-3.97358334e-02	2.26987431e-11	1.42565323e+01	1.67450386e-17
0.972257        	-3.95717734e-02	2.21809817e-11	1.41261263e+01	1.60905209e-17
0.981504        	-3.94220950e-02	2.16917622e-11	1.39980925e+01	1.54666408e-17
0.990752        	-3.92849010e-02	2.12296011e-11	1.38723668e+01	1.48718110e-17
1               	-3.91546820e-02	2.07933510e-11	1.37488871e+01	1.43045539e-17
1.00917         	-3.90166999e-02	2.03809905e-11	1.36285241e+01	1.37633810e-17
1.01835         	-3.88906763e-02	1.99924363e-11	1.35102652e+01	1.32470714e-17
1.02752         	-3.87634320e-02	1.96301951e-11	1.33940502e+01	1.27546695e-17
1.0367          	-3.86191518e-02	1.92933064e-11	1.32798248e+01	1.22849006e-17
1.04587         	-3.84586779e-02	1.89797875e-11	1.31675377e+01	1.18365103e-17
1.05505         	-3.82913438e-02	1.86878370e-11	1.30571397e+01	1.14073643e-17
1.06422         	-3.81264474e-02	1.84159455e-11	1.29485835e+01	1.09946560e-17
1.07339         	-3.79711514e-02	1.80996126e-11	1.28418233e+01	1.06002246e-17
1.08257         	-3.78287503e-02	1.77124449e-11	1.27368148e+01	1.02231564e-17
1.09174         	-3.76994445e-02	1.73461271e-11	1.26335155e+01	9.86258824e-18
1.10092         	-3.75817337e-02	1.69995034e-11	1.25318841e+01	9.51770444e-18
1.11009         	-3.74753479e-02	1.66714939e-11	1.24318807e+01	9.18773360e-18
1.11927         	-3.73761303e-02	1.63610979e-11	1.23334666e+01	8.87194679e-18
1.12844         	-3.72819962e-02	1.60674151e-11	1.22366043e+01	8.56965645e-18
1.13761         	-3.71904915e-02	1.57896878e-11	1.21412578e+01	8.28021625e-18
1.14679         	-3.70988295e-02	1.55257801e-11	1.20473928e+01	8.00292913e-18
1.15596         	-3.70082511e-02	1.52750140e-11	1.19549758e+01	7.73723785e-18
1.16514         	-3.69190356e-02	1.50407598e-11	1.18639742e+01	7.48282389e-18
1.17431         	-3.68322488e-02	1.48240563e-11	1.17743593e+01	7.23919060e-18
1.18349         	-3.67473838e-02	1.46236760e-11	1.16861033e+01	7.00576276e-18
1.19266         	-3.66661258e-02	1.44382150e-11	1.15991781e+01	6.78201631e-18
1.20183         	-3.65831311e-02	1.42665457e-11	1.15135560e+01	6.56747530e-18
1.21101         	-3.65025202e-02	1.41077791e-11	1.14292099e+01	6.36170226e-18
1.22018         	-3.64194837e-02	1.39221662e-11	1.13461135e+01	6.16428485e-18
1.22936         	-3.63375100e-02	1.36741217e-11	1.12642408e+01	5.97483190e-18
1.23853         	-3.62480636e-02	1.34394165e-11	1.11835666e+01	5.79297254e-18
1.24771         	-3.61557524e-02	1.32174029e-11	1.11040662e+01	5.61835503e-18
1.25688         	-3.60575309e-02	1.30074700e-11	1.10257156e+01	5.45064560e-18
1.26606         	-3.59604530e-02	1.28090370e-11	1.09484912e+01	5.28952731e-18
1.27523         	-3.58657027e-02	1.26215525e-11	1.08723698e+01	5.13469935e-18
1.2844          	-3.57761951e-02	1.24444997e-11	1.07973291e+01	4.98587686e-18
1.29358         	-3.56919871e-02	1.22774106e-11	1.07233470e+01	4.84279144e-18
1.30275         	-3.56183767e-02	1.21173484e-11	1.06504021e+01	4.70492828e-18
1.31193         	-3.55471423e-02	1.19643547e-11	1.05784733e+01	4.57218992e-18
1.3211          	-3.54823052e-02	1.18212336e-11	1.05075401e+01	4.44466590e-18
1.33028         	-3.54198592e-02	1.16903356e-11	1.04375826e+01	4.32229385e-18
1.33945         	-3.53588670e-02	1.15714514e-11	1.03685812e+01	4.20476303e-18
1.34862         	-3.52983145e-02	1.14634176e-11	1.03005169e+01	4.09075943e-18
1.3578          	-3.52434451e-02	1.13652717e-11	1.02333710e+01	3.97980877e-18
1.36697         	-3.51859158e-02	1.12763251e-11	1.01671256e+01	3.87295084e-18
1.37615         	-3.51333689e-02	1.11960715e-11	1.01017629e+01	3.77000750e-18
1.38532         	-3.50795843e-02	1.10957289e-11	1.00372657e+01	3.67081082e-18
1.3945          	-3.50249335e-02	1.09425662e-11	9.97361724e+00	3.57520166e-18
1.40367         	-3.49731810e-02	1.07981577e-11	9.91080126e+00	3.48302872e-18
1.41284         	-3.49237197e-02	1.06621645e-11	9.84880182e+00	3.39414785e-18
1.42202         	-3.48764394e-02	1.05342677e-11	9.78760344e+00	3.30842153e-18
1.43119         	-3.48314824e-02	1.04141639e-11	9.72719106e+00	3.22571843e-18
1.44037         	-3.47862824e-02	1.03015602e-11	9.66754999e+00	3.14591304e-18
1.44954         	-3.47392650e-02	1.01961723e-11	9.60866595e+00	3.06888536e-18
1.45872         	-3.46969328e-02	1.00977233e-11	9.55052503e+00	2.99452066e-18
1.46789         	-3.46524176e-02	1.00051733e-11	9.49311367e+00	2.92266262e-18
1.47706         	-3.46120713e-02	9.91646908e-12	9.43641870e+00	2.85311958e-18
1.48624         	-3.45723943e-02	9.83167634e-12	9.38042727e+00	2.78585758e-18
1.49541         	-3.45311270e-02	9.75229458e-12	9.32512686e+00	2.72087902e-18
1.50459         	-3.44913724e-02	9.68099868e-12	9.27050529e+00	2.65822242e-18
1.51376         	-3.44531094e-02	9.61929012e-12	9.21655068e+00	2.59782813e-18
1.52294         	-3.44156773e-02	9.56656528e-12	9.16325145e+00	2.53954403e-18
1.53211         	-3.43810358e-02	9.52182047e-12	9.11059633e+00	2.48324545e-18
1.54128         	-3.43461771e-02	9.48436616e-12	9.05857432e+00	2.42883849e-18
1.55046         	-3.43097490e-02	9.45376740e-12	9.00717468e+00	2.37624241e-18
1.55963         	-3.42771409e-02	9.42973922e-12	8.95638695e+00	2.32538413e-18
1.56881         	-3.42428822e-02	9.38782654e-12	8.90620092e+00	2.27619566e-18
1.57798         	-3.42122744e-02	9.29851981e-12	8.85660663e+00	2.22861288e-18
1.58716         	-3.41823520e-02	9.21543589e-12	8.80759436e+00	2.18257485e-18
1.59633         	-3.41507020e-02	9.13841445e-12	8.75915461e+00	2.13802341e-18
1.6055          	-3.41201197e-02	9.06730865e-12	8.71127811e+00	2.09490282e-18
1.61468         	-3.40906464e-02	9.00198104e-12	8.66395580e+00	2.05315955e-18
1.62385         	-3.40642294e-02	8.94230025e-12	8.61717886e+00	2.01274209e-18
1.63303         	-3.40389444e-02	8.88813821e-12	8.57093862e+00	1.97360070e-18
1.6422          	-3.40127073e-02	8.83936772e-12	8.52522667e+00	1.93568727e-18
1.65138         	-3.39853745e-02	8.79547945e-12	8.48003474e+00	1.89864221e-18
1.66055         	-3.39609152e-02	8.75499724e-12	8.43535477e+00	1.86158917e-18
1.66972         	-3.39345496e-02	8.71753003e-12	8.39117890e+00	1.82560709e-18
1.6789          	-3.39109129e-02	8.68274578e-12	8.34749942e+00	1.79065252e-18
1.68807         	-3.38871026e-02	8.65093837e-12	8.30430880e+00	1.75670459e-18
1.69725         	-3.38613368e-02	8.62395575e-12	8.26159969e+00	1.72377866e-18
1.70642         	-3.38371850e-02	8.60462921e-12	8.21936490e+00	1.69189705e-18
1.7156          	-3.38123845e-02	8.59400458e-12	8.17759739e+00	1.66101857e-18
1.72477         	-3.37911702e-02	8.59115815e-12	8.13629029e+00	1.63107203e-18
1.73394         	-3.37699132e-02	8.59516593e-12	8.09543688e+00	1.60201022e-18
1.74312         	-3.37470343e-02	8.60551389e-12	8.05503058e+00	1.57379677e-18
1.75229         	-3.37245441e-02	8.62193770e-12	8.01506498e+00	1.54640011e-18
1.76147         	-3.37029539e-02	8.64430737e-12	7.97553378e+00	1.51979147e-18
1.77064         	-3.36823633e-02	8.62606583e-12	7.93643084e+00	1.49394398e-18
1.77982         	-3.36634408e-02	8.58198166e-12	7.89775016e+00	1.46883222e-18
1.78899         	-3.36436317e-02	8.54300882e-12	7.85948585e+00	1.44443194e-18
1.79817         	-3.36225443e-02	8.50910775e-12	7.82163217e+00	1.42071992e-18
1.80734         	-3.36039242e-02	8.48025083e-12	7.78418350e+00	1.39767389e-18
1.81651         	-3.35836834e-02	8.45641980e-12	7.74713432e+00	1.37527244e-18
1.82569         	-3.35668492e-02	8.43760373e-12	7.71047927e+00	1.35349491e-18
1.83486         	-3.35496556e-02	8.42379735e-12	7.67421307e+00	1.33232140e-18
1.84404         	-3.35302744e-02	8.41491788e-12	7.63833058e+00	1.31172796e-18
1.85321         	-3.35127894e-02	8.41006673e-12	7.60282675e+00	1.29164730e-18
1.86239         	-3.34938239e-02	8.40917451e-12	7.56769664e+00	1.27208282e-18
1.87156         	-3.34782832e-02	8.41193109e-12	7.53293543e+00	1.25300042e-18
1.88073         	-3.34623461e-02	8.41780079e-12	7.49853839e+00	1.23436557e-18
1.88991         	-3.34459939e-02	8.42612724e-12	7.46450089e+00	1.21614260e-18
1.89908         	-3.34278032e-02	8.43662948e-12	7.43081839e+00	1.19832050e-18
1.90826         	-3.34117518e-02	8.45066010e-12	7.39748645e+00	1.18096479e-18
1.91743         	-3.33958540e-02	8.47194414e-12	7.36450074e+00	1.16422110e-18
1.92661         	-3.33816592e-02	8.50333076e-12	7.33185698e+00	1.14812853e-18
1.93578         	-3.33666321e-02	8.54408718e-12	7.29955102e+00	1.13256745e-18
1.94495         	-3.33499199e-02	8.59284781e-12	7.26757876e+00	1.11746933e-18
1.95413         	-3.33353097e-02	8.64894535e-12	7.23593621e+00	1.10280828e-18
1.9633          	-3.33198100e-02	8.71211766e-12	7.20461944e+00	1.08856651e-18
1.97248         	-3.33064297e-02	8.78229960e-12	7.17362463e+00	1.07473073e-18
1.98165         	-3.32931059e-02	8.79563638e-12	7.14294801e+00	1.06128970e-18
1.99083         	-3.32780044e-02	8.78657867e-12	7.11258592e+00	1.04815764e-18
2               	-3.32641130e-02	8.78276706e-12	7.08253474e+00	1.03420503e-18
2.00917         	-3.32486253e-02	8.78424598e-12	7.05279096e+00	1.02059164e-18
2.01835         	-3.32363914e-02	8.79107312e-12	7.02335113e+00	1.00730802e-18
2.02752         	-3.32235920e-02	8.80331702e-12	6.99421188e+00	9.94345097e-19
2.0367          	-3.32106955e-02	8.82105542e-12	6.96536991e+00	9.81694112e-19
2.04587         	-3.31955210e-02	8.84397660e-12	6.93682201e+00	9.69336811e-19
2.05505         	-3.31824653e-02	8.87213942e-12	6.90856503e+00	9.57269739e-19
2.06422         	-3.31693515e-02	8.90557894e-12	6.88059588e+00	9.45482962e-19
2.07339         	-3.31577443e-02	8.94421678e-12	6.85291155e+00	9.33966203e-19
2.08257         	-3.31453611e-02	8.98784502e-12	6.82550910e+00	9.22707256e-19
2.09174         	-3.31310294e-02	9.03606819e-12	6.79838563e+00	9.11691610e-19
2.10092         	-3.31190145e-02	9.08821345e-12	6.77153831e+00	9.00901104e-19
2.11009         	-3.31054473e-02	9.14326633e-12	6.74496435e+00	8.90313889e-19
2.11927         	-3.30940929e-02	9.20010490e-12	6.71866100e+00	8.79910453e-19
2.12844         	-3.30829476e-02	9.25887287e-12	6.69262554e+00	8.69700505e-19
2.13761         	-3.30694754e-02	9.32388661e-12	6.66685525e+00	8.59767969e-19
2.14679         	-3.30576476e-02	9.40208661e-12	6.64134742e+00	8.50203423e-19
2.15596         	-3.30437597e-02	9.49422296e-12	6.61609932e+00	8.40943405e-19
2.16514         	-3.30329814e-02	9.56364440e-12	6.59110820e+00	8.31923610e-19
2.17431         	-3.30217188e-02	9.53152683e-12	6.56637122e+00	8.23133111e-19
2.18349         	-3.30094790e-02	9.50019781e-12	6.54188548e+00	8.14560962e-19
2.19266         	-3.29963491e-02	9.46961061e-12	6.51764798e+00	8.06201423e-19
2.20183         	-3.29840821e-02	9.43972495e-12	6.49365556e+00	7.98049398e-19
2.21101         	-3.29717280e-02	9.41050635e-12	6.46990492e+00	7.90100728e-19
2.22018         	-3.29615378e-02	9.38192525e-12	6.44639256e+00	7.82351560e-19
2.22936         	-3.29498098e-02	9.35395601e-12	6.42311475e+00	7.74790128e-19
2.23853         	-3.29354774e-02	9.32657602e-12	6.40006753e+00	7.67419772e-19
2.24771         	-3.29254119e-02	9.29976499e-12	6.37724663e+00	7.60235668e-19
2.25688         	-3.29112535e-02	9.27350444e-12	6.35464749e+00	7.53234604e-19
2.26606         	-3.29011132e-02	9.24777730e-12	6.33226521e+00	7.46412429e-19
2.27523         	-3.28901776e-02	9.22256765e-12	6.31009455e+00	7.39764862e-19
2.2844          	-3.28763878e-02	9.19786052e-12	6.28812987e+00	7.33285675e-19
2.29358         	-3.28651209e-02	9.17364178e-12	6.26636515e+00	7.26968502e-19
2.30275         	-3.28512611e-02	9.14989800e-12	6.24479399e+00	7.20806651e-19
2.31193         	-3.28401223e-02	9.12661639e-12	6.22340958e+00	7.14788751e-19
2.3211          	-3.28294469e-02	9.10378471e-12	6.20220471e+00	7.08898774e-19
2.33028         	-3.28162720e-02	9.08139124e-12	6.18117181e+00	7.03112275e-19
2.33945         	-3.28031969e-02	9.05942472e-12	6.16030294e+00	6.97391569e-19
2.34862         	-3.27907437e-02	9.03787431e-12	6.13958982e+00	6.91680044e-19
2.3578          	-3.27778363e-02	9.01663954e-12	6.11902389e+00	6.85741792e-19
2.36697         	-3.27663820e-02	8.99560790e-12	6.09859633e+00	6.79462404e-19
2.37615         	-3.27545575e-02	8.97497515e-12	6.07829812e+00	6.73310030e-19
2.38532         	-3.27399291e-02	8.95059414e-12	6.05812010e+00	6.67349122e-19
2.3945          	-3.27290384e-02	8.92355100e-12	6.03805302e+00	6.61559284e-19
2.40367         	-3.27135594e-02	8.89704246e-12	6.01808765e+00	6.55892807e-19
2.41284         	-3.27024621e-02	8.87105527e-12	5.99821480e+00	6.50352666e-19
2.42202         	-3.26909472e-02	8.84557655e-12	5.97842543e+00	6.44929723e-19
2.43119         	-3.26764232e-02	8.82059382e-12	5.95871074e+00	6.39623402e-19
2.44037         	-3.26636703e-02	8.79609493e-12	5.93906748e+00	6.34430669e-19
2.44954         	-3.26488852e-02	8.77206811e-12	5.91952096e+00	6.29350207e-19
2.45872         	-3.26366194e-02	8.74850191e-12	5.90005569e+00	6.24380131e-19
2.46789         	-3.26242309e-02	8.72538521e-12	5.88064774e+00	6.19519041e-19
2.47706         	-3.26100688e-02	8.70270725e-12	5.86127571e+00	6.14765418e-19
2.48624         	-3.25957021e-02	8.68043543e-12	5.84192338e+00	6.10117924e-19
2.49541         	-3.25822536e-02	8.65855534e-12	5.82257954e+00	6.05575205e-19
2.50459         	-3.25676505e-02	8.63707159e-12	5.80323702e+00	6.01135980e-19
2.51376         	-3.25550875e-02	8.61597985e-12	5.78389178e+00	5.96798958e-19
2.52294         	-3.25419150e-02	8.59527340e-12	5.76454200e+00	5.92562844e-19
2.53211         	-3.25262852e-02	8.57494454e-12	5.74518742e+00	5.88426284e-19
2.54128         	-3.25138341e-02	8.55498531e-12	5.72582905e+00	5.84387807e-19
2.55046         	-3.24973539e-02	8.53538772e-12	5.70646900e+00	5.80445743e-19
2.55963         	-3.24850232e-02	8.51614391e-12	5.68711042e+00	5.76598087e-19
2.56881         	-3.24717761e-02	8.49724616e-12	5.66775746e+00	5.72842299e-19
2.57798         	-3.24568385e-02	8.47868692e-12	5.64841499e+00	5.69174976e-19
2.58716         	-3.24420783e-02	8.46045883e-12	5.62908858e+00	5.65591322e-19
2.59633         	-3.24278290e-02	8.44255467e-12	5.60978334e+00	5.62084261e-19
2.6055          	-3.24135022e-02	8.42496745e-12	5.59050434e+00	5.58642961e-19
2.61468         	-3.23999819e-02	8.40769030e-12	5.57125922e+00	5.55250394e-19
2.62385         	-3.23857039e-02	8.39071656e-12	5.55205923e+00	5.51879687e-19
2.63303         	-3.23702300e-02	8.37403971e-12	5.53294119e+00	5.48490692e-19
2.6422          	-3.23574560e-02	8.35765338e-12	5.51391965e+00	5.45037787e-19
2.65138         	-3.23413696e-02	8.34155139e-12	5.49500068e+00	5.41531667e-19
2.66055         	-3.23288195e-02	8.32572768e-12	5.47618796e+00	5.38197453e-19
2.66972         	-3.23152417e-02	8.31017636e-12	5.45748495e+00	5.35341892e-19
2.6789          	-3.22999686e-02	8.29489167e-12	5.43889562e+00	5.32748310e-19
2.68807         	-3.22865516e-02	8.27986801e-12	5.42042483e+00	5.30250561e-19
2.69725         	-3.22708874e-02	8.26509987e-12	5.40208301e+00	5.27869044e-19
2.70642         	-3.22582498e-02	8.25058193e-12	5.38389152e+00	5.25582591e-19
2.7156          	-3.22449058e-02	8.23630898e-12	5.36587959e+00	5.23396198e-19
2.72477         	-3.22309561e-02	8.22227592e-12	5.34808028e+00	5.21306107e-19
2.73394         	-3.22165152e-02	8.20847780e-12	5.33052814e+00	5.19313319e-19
2.74312         	-3.22028838e-02	8.19490978e-12	5.31325815e+00	5.17416855e-19
2.75229         	-3.21885010e-02	8.18156714e-12	5.29630508e+00	5.15616838e-19
2.76147         	-3.21764759e-02	8.16844527e-12	5.27970314e+00	5.13912824e-19
2.77064         	-3.21636778e-02	8.15553967e-12	5.26348565e+00	5.12304628e-19
2.77982         	-3.21491147e-02	8.14284597e-12	5.24768479e+00	5.10791826e-19
2.78899         	-3.21373447e-02	8.13035989e-12	5.23233139e+00	5.09373990e-19
2.79817         	-3.21226230e-02	8.11807724e-12	5.21745463e+00	5.08050524e-19
2.80734         	-3.21113827e-02	8.10599396e-12	5.20308190e+00	5.06820716e-19
2.81651         	-3.20997388e-02	8.09410606e-12	5.18923854e+00	5.05683679e-19
2.82569         	-3.20868288e-02	8.08240966e-12	5.17594766e+00	5.04638355e-19
2.83486         	-3.20738680e-02	8.07090099e-12	5.16322996e+00	5.03114823e-19
2.84404         	-3.20620641e-02	8.05957632e-12	5.15110354e+00	5.01235529e-19
2.85321         	-3.20494872e-02	8.04843204e-12	5.13958381e+00	4.99432621e-19
2.86239         	-3.20384128e-02	8.03746463e-12	5.12868327e+00	4.97706006e-19
2.87156         	-3.20275823e-02	8.02667063e-12	5.11841145e+00	4.96055575e-19
2.88073         	-3.20146074e-02	8.01604667e-12	5.10877484e+00	4.94481194e-19
2.88991         	-3.20052060e-02	8.00558944e-12	5.09977677e+00	4.92982706e-19
2.89908         	-3.19917483e-02	7.99529573e-12	5.09141740e+00	4.91559921e-19
2.90826         	-3.19825480e-02	7.98516239e-12	5.08369373e+00	4.90212612e-19
2.91743         	-3.19732316e-02	7.97518633e-12	5.07659958e+00	4.88940512e-19
2.92661         	-3.19618463e-02	7.96536455e-12	5.07012567e+00	4.87743306e-19
2.93578         	-3.19508636e-02	7.95569409e-12	5.06425969e+00	4.86620630e-19
2.94495         	-3.19413193e-02	7.94617206e-12	5.05898643e+00	4.85572062e-19
2.95413         	-3.19304831e-02	7.93679565e-12	5.05428789e+00	4.84597123e-19
2.9633          	-3.19219054e-02	7.92756210e-12	5.05014350e+00	4.83695268e-19
2.97248         	-3.19130336e-02	7.91846869e-12	5.04653030e+00	4.82865885e-19
2.98165         	-3.19019370e-02	7.90951278e-12	5.04342315e+00	4.82108292e-19
2.99083         	-3.18947435e-02	7.90069179e-12	5.04079501e+00	4.81421734e-19
3               	-3.18830859e-02	7.89200316e-12	5.03861721e+00	4.80805385e-19
3.00917         	-3.18759322e-02	7.88344442e-12	5.03685972e+00	4.80258347e-19
3.01835         	-3.18691210e-02	7.87501313e-12	5.03549147e+00	4.79779650e-19
3.02752         	-3.18593534e-02	7.86670691e-12	5.03448063e+00	4.79368262e-19
3.0367          	-3.18512117e-02	7.85852343e-12	5.03379495e+00	4.79023094e-19
3.04587         	-3.18422659e-02	7.85046039e-12	5.03340205e+00	4.78743012e-19
3.05505         	-3.18346157e-02	7.84251556e-12	5.03326975e+00	4.78526848e-19
3.06422         	-3.18276410e-02	7.83468674e-12	5.03336630e+00	4.78373423e-19
3.07339         	-3.18211354e-02	7.82697177e-12	5.03366076e+00	4.78281561e-19
3.08257         	-3.18113176e-02	7.81936856e-12	5.03412314e+00	4.78250117e-19
3.09174         	-3.18060511e-02	7.81187503e-12	5.03472474e+00	4.78277992e-19
3.10092         	-3.17962246e-02	7.80448915e-12	5.03543830e+00	4.78364157e-19
3.11009         	-3.17909507e-02	7.79720895e-12	5.03623823e+00	4.78507660e-19
3.11927         	-3.17849613e-02	7.79003247e-12	5.03710071e+00	4.78707633e-19
3.12844         	-3.17773997e-02	7.78295782e-12	5.03800388e+00	4.78963277e-19
3.13761         	-3.17706545e-02	7.77598312e-12	5.03892788e+00	4.79273839e-19
3.14679         	-3.17630850e-02	7.76910654e-12	5.03985495e+00	4.79638576e-19
3.15596         	-3.17570696e-02	7.76232628e-12	5.04076944e+00	4.80056706e-19
3.16514         	-3.17518790e-02	7.75564058e-12	5.04165780e+00	4.80527360e-19
3.17431         	-3.17460875e-02	7.74904771e-12	5.04250858e+00	4.81049536e-19
3.18349         	-3.17379982e-02	7.74254598e-12	5.04331238e+00	4.81622060e-19
3.19266         	-3.17337416e-02	7.73613373e-12	5.04406174e+00	4.82243565e-19
3.20183         	-3.17253561e-02	7.72980932e-12	5.04475103e+00	4.82912481e-19
3.21101         	-3.17210985e-02	7.72357117e-12	5.04537641e+00	4.83627049e-19
3.22018         	-3.17160496e-02	7.71741771e-12	5.04593558e+00	4.84385336e-19
3.22936         	-3.17098981e-02	7.71134739e-12	5.04642774e+00	4.85185268e-19
3.23853         	-3.17038030e-02	7.70535873e-12	5.04685337e+00	4.86024665e-19
3.24771         	-3.16971586e-02	7.69945023e-12	5.04721409e+00	4.86901275e-19
3.25688         	-3.16921031e-02	7.69362044e-12	5.04751249e+00	4.87812802e-19
3.26606         	-3.16878405e-02	7.68786794e-12	5.04775197e+00	4.88756940e-19
3.27523         	-3.16826860e-02	7.68219135e-12	5.04793660e+00	4.89731388e-19
3.2844          	-3.16758414e-02	7.67658929e-12	5.04807093e+00	4.90733870e-19
3.29358         	-3.16718919e-02	7.67106041e-12	5.04815986e+00	4.91762144e-19
3.30275         	-3.16642361e-02	7.66560342e-12	5.04820851e+00	4.92814008e-19
3.31193         	-3.16605236e-02	7.66021701e-12	5.04822209e+00	4.93887307e-19
3.3211          	-3.16560834e-02	7.65489993e-12	5.04820580e+00	4.94979932e-19
3.33028         	-3.16506249e-02	7.64965093e-12	5.04816469e+00	4.96089824e-19
3.33945         	-3.16448573e-02	7.64446881e-12	5.04810364e+00	4.97214971e-19
3.34862         	-3.16387048e-02	7.63935235e-12	5.04802722e+00	4.98353407e-19
3.3578          	-3.16339938e-02	7.63430040e-12	5.04793970e+00	4.99503216e-19
3.36697         	-3.16301100e-02	7.62931179e-12	5.04784494e+00	5.00662524e-19