/*--------------------------------*- C++ -*----------------------------------*\
| =========                 |                                                 |
| \\      /  F ield         | OpenFOAM: The Open Source CFD Toolbox           |
|  \\    /   O peration     | Version:  2206                                  |
|   \\  /    A nd           | Website:  www.openfoam.com                      |
|    \\/     M anipulation  |                                                 |
\*---------------------------------------------------------------------------*/
FoamFile
{
    version     2.0;
    format      ascii;
    arch        "LSB;label=32;scalar=64";
    class       volScalarField;
    location    "300";
    object      epsilon;
}
// * * * * * * * * * * * * * * * * * * * * * * * * * * * * * * * * * * * * * //

dimensions      [0 2 -3 0 0 0 0];

internalField   nonuniform List<scalar> 
13056
(
0.0097218983
0.0097160262
0.0097138745
0.0097131958
0.0097129061
0.0097127443
0.0097126492
0.0097125994
0.0097125833
0.0097125938
0.0097126265
0.0097126788
0.0097127497
0.0097128392
0.0097129491
0.0097130831
0.0097132512
0.0097134666
0.0097137889
0.0097142396
0.009715364
0.0097168416
0.009721202
0.01348706
0.32635634
0.015946828
0.11735533
0.11046193
0.10741044
0.10541553
0.10393638
0.10283602
0.10198981
0.10131625
0.10076752
0.10031259
0.099929728
0.099603238
0.099321575
0.099076102
0.098860238
0.098668875
0.098497985
0.098344345
0.098205355
0.098078895
0.097963218
0.097856874
0.097758647
0.097667514
0.097582606
0.097503183
0.097428608
0.097358335
0.097291888
0.097228855
0.097168875
0.097111633
0.09705685
0.097004282
0.096953713
0.09690495
0.096857823
0.09681218
0.096767886
0.096724818
0.096682869
0.096641941
0.096601948
0.09656281
0.096524456
0.096486825
0.096449858
0.096413504
0.096377717
0.096342457
0.096307685
0.096273368
0.096239476
0.096205984
0.096172866
0.096140103
0.096107676
0.096075567
0.096043764
0.096012254
0.095981037
0.095950059
0.09591938
0.095888953
0.095858782
0.095828864
0.095799196
0.09576978
0.095740614
0.0957117
0.09568304
0.095654637
0.095626496
0.095598621
0.095571018
0.095543694
0.095516655
0.09548991
0.095463469
0.09543734
0.095411536
0.095386067
0.095360949
0.095336203
0.09531184
0.095287985
0.09526431
0.095245253
0.095231432
0.095220635
0.095211804
0.095204348
0.095197923
0.095192313
0.09518737
0.095182979
0.095179055
0.095175527
0.095172339
0.095169447
0.095166811
0.095164398
0.095162179
0.095160123
0.09515822
0.095156372
0.095154735
0.095152574
0.095151209
0.095149022
0.0097204356
0.0097144976
0.0097123165
0.0097116262
0.0097113308
0.0097111652
0.0097110676
0.0097110159
0.0097109984
0.0097110078
0.0097110395
0.0097110909
0.0097111606
0.0097112487
0.0097113565
0.0097114872
0.0097116499
0.0097118564
0.009712161
0.0097125838
0.0097136225
0.0097149994
0.0097186235
0.013483426
0.45007682
0.057923853
0.18457272
0.17814432
0.17528932
0.17341857
0.17202351
0.17098741
0.17019387
0.16956394
0.16905171
0.16862782
0.16827171
0.16796848
0.16770719
0.16747968
0.16727975
0.16710258
0.16694439
0.16680216
0.16667346
0.16655629
0.16644904
0.16635034
0.16625907
0.16617428
0.16609516
0.16602102
0.16595129
0.16588544
0.16582306
0.16576375
0.16570718
0.16565307
0.16560117
0.16555124
0.16550309
0.16545656
0.16541147
0.16536771
0.16532513
0.16528365
0.16524314
0.16520354
0.16516477
0.16512674
0.16508941
0.16505272
0.1650166
0.16498103
0.16494596
0.16491136
0.16487719
0.16484342
0.16481003
0.16477701
0.16474432
0.16471195
0.16467989
0.16464812
0.16461663
0.16458542
0.16455449
0.16452378
0.16449336
0.16446318
0.16443326
0.16440358
0.16437416
0.16434498
0.16431606
0.1642874
0.16425899
0.16423085
0.16420298
0.16417539
0.16414808
0.16412107
0.16409435
0.16406794
0.16404186
0.1640161
0.16399068
0.16396562
0.16394093
0.16391663
0.16389273
0.16386936
0.16384618
0.16382809
0.16381547
0.16380577
0.16379792
0.16379133
0.16378568
0.16378077
0.16377646
0.16377264
0.16376924
0.16376619
0.16376344
0.16376095
0.16375869
0.16375662
0.16375472
0.16375296
0.16375134
0.16374976
0.16374836
0.16374647
0.16374531
0.16374342
0.0097157457
0.0097096057
0.0097073347
0.0097066091
0.0097062958
0.0097061191
0.0097060137
0.0097059565
0.009705935
0.0097059415
0.009705971
0.0097060207
0.009706089
0.0097061756
0.0097062814
0.0097064092
0.0097065667
0.0097067647
0.0097070513
0.0097074453
0.0097083925
0.0097096686
0.0097124162
0.01347167
0.54566689
0.098438833
0.24665593
0.24070759
0.23805439
0.23631142
0.2350045
0.23403538
0.23329604
0.2327106
0.23223534
0.23184271
0.23151337
0.2312333
0.23099221
0.23078243
0.23059817
0.23043492
0.23028917
0.23015808
0.2300394
0.22993129
0.22983222
0.22974096
0.22965646
0.22957783
0.22950435
0.22943537
0.22937035
0.22930884
0.22925044
0.22919479
0.2291416
0.2290906
0.22904156
0.22899428
0.22894858
0.22890431
0.22886132
0.22881949
0.22877872
0.22873889
0.22869994
0.22866178
0.22862434
0.22858756
0.22855138
0.22851577
0.22848067
0.22844604
0.22841185
0.22837808
0.22834469
0.22831166
0.22827896
0.22824659
0.22821453
0.22818276
0.22815126
0.22812004
0.22808908
0.22805838
0.22802794
0.22799771
0.22796777
0.22793806
0.22790859
0.22787937
0.2278504
0.22782167
0.2277932
0.22776499
0.22773705
0.22770937
0.22768197
0.22765486
0.22762804
0.22760152
0.2275753
0.22754941
0.22752385
0.22749863
0.22747376
0.22744927
0.22742515
0.22740144
0.22737814
0.22735538
0.22733282
0.22731571
0.22730422
0.22729554
0.22728858
0.22728277
0.22727782
0.22727353
0.22726977
0.22726646
0.22726352
0.22726089
0.22725852
0.22725638
0.22725444
0.22725267
0.22725104
0.22724954
0.22724816
0.22724681
0.22724562
0.22724396
0.22724298
0.22724134
0.0097076658
0.0097011791
0.0096987534
0.0096979666
0.0096976225
0.0096974264
0.0096973077
0.009697241
0.0096972128
0.0096972144
0.0096972405
0.0096972878
0.0096973544
0.0096974396
0.009697544
0.0096976697
0.0096978236
0.0096980149
0.0096982869
0.0096986569
0.0096995233
0.009700719
0.0097025766
0.013451613
0.61939152
0.13626697
0.30225117
0.29678914
0.29433956
0.29272595
0.29150968
0.29060911
0.28992466
0.28938394
0.28894566
0.28858412
0.28828128
0.28802403
0.28780277
0.28761035
0.28744139
0.28729171
0.28715804
0.28703777
0.28692881
0.28682946
0.28673833
0.28665428
0.28657633
0.28650369
0.28643568
0.28637171
0.28631131
0.28625403
0.28619954
0.28614749
0.28609764
0.28604972
0.28600355
0.28595893
0.28591571
0.28587374
0.28583289
0.28579307
0.28575417
0.28571611
0.2856788
0.28564219
0.28560621
0.2855708
0.28553592
0.28550153
0.28546759
0.28543407
0.28540094
0.28536816
0.28533573
0.28530361
0.2852718
0.28524028
0.28520903
0.28517805
0.28514732
0.28511685
0.28508662
0.28505663
0.28502689
0.28499735
0.28496808
0.28493904
0.28491024
0.28488167
0.28485335
0.28482528
0.28479746
0.28476991
0.28474261
0.28471559
0.28468885
0.2846624
0.28463624
0.28461039
0.28458486
0.28455965
0.28453478
0.28451025
0.28448609
0.2844623
0.2844389
0.28441591
0.28439334
0.28437132
0.28434949
0.28433338
0.28432297
0.28431522
0.28430906
0.28430396
0.28429963
0.28429589
0.28429263
0.28428976
0.28428722
0.28428495
0.28428292
0.28428108
0.28427942
0.28427791
0.28427652
0.28427524
0.28427406
0.28427291
0.2842719
0.28427045
0.28426962
0.2842682
0.0096959379
0.0096889452
0.0096862929
0.0096854163
0.0096850266
0.0096848019
0.0096846635
0.0096845829
0.0096845446
0.0096845391
0.0096845603
0.0096846043
0.0096846687
0.0096847526
0.0096848559
0.0096849805
0.0096851319
0.0096853185
0.0096855786
0.0096859288
0.0096867233
0.0096878575
0.0096887862
0.013422703
0.67463039
0.17022488
0.35006363
0.34508708
0.34284025
0.34135601
0.3402317
0.33940043
0.33877092
0.33827471
0.33787306
0.33754218
0.33726537
0.33703046
0.33682855
0.33665302
0.33649892
0.33636239
0.33624042
0.33613061
0.33603105
0.33594018
0.33585672
0.33577964
0.33570804
0.3356412
0.33557851
0.33551943
0.33546352
0.3354104
0.33535974
0.33531126
0.33526471
0.33521988
0.33517657
0.33513464
0.33509392
0.33505431
0.33501568
0.33497794
0.334941
0.33490479
0.33486924
0.3348343
0.3347999
0.334766
0.33473256
0.33469955
0.33466693
0.33463467
0.33460275
0.33457116
0.33453986
0.33450884
0.33447809
0.33444761
0.33441737
0.33438737
0.33435761
0.33432808
0.33429878
0.3342697
0.33424086
0.33421221
0.33418382
0.33415565
0.33412771
0.3341
0.33407253
0.33404531
0.33401834
0.33399162
0.33396517
0.33393899
0.33391309
0.33388747
0.33386216
0.33383715
0.33381246
0.3337881
0.33376407
0.3337404
0.33371709
0.33369415
0.33367161
0.33364947
0.33362776
0.33360659
0.33358562
0.33357052
0.33356112
0.33355423
0.3335488
0.33354433
0.33354055
0.3335373
0.33353448
0.333532
0.33352981
0.33352787
0.33352612
0.33352455
0.33352313
0.33352184
0.33352066
0.33351958
0.33351857
0.33351759
0.33351674
0.33351547
0.33351477
0.33351354
0.009680209
0.0096725314
0.0096695708
0.009668571
0.0096681187
0.0096678545
0.0096676889
0.009667589
0.0096675369
0.0096675216
0.009667536
0.0096675754
0.0096676371
0.0096677193
0.0096678219
0.0096679459
0.0096680961
0.0096682795
0.0096685303
0.0096688644
0.0096695945
0.0096706856
0.0096706207
0.01338421
0.71312485
0.19919049
0.38888335
0.38438563
0.38233843
0.38098233
0.37995033
0.37918842
0.37861343
0.37816114
0.37779551
0.37749467
0.37724327
0.37703011
0.37684698
0.37668783
0.3765481
0.37642427
0.3763136
0.37621389
0.37612339
0.37604071
0.37596466
0.37589432
0.37582888
0.37576767
0.37571015
0.37565584
0.37560433
0.37555529
0.37550842
0.37546347
0.37542021
0.37537846
0.37533804
0.37529882
0.37526066
0.37522346
0.37518712
0.37515155
0.37511667
0.37508242
0.37504875
0.37501559
0.37498291
0.37495066
0.37491881
0.37488733
0.37485619
0.37482536
0.37479483
0.37476459
0.3747346
0.37470487
0.37467537
0.37464611
0.37461708
0.37458826
0.37455966
0.37453127
0.37450309
0.37447513
0.37444739
0.37441982
0.37439251
0.3743654
0.37433852
0.37431186
0.37428544
0.37425926
0.37423332
0.37420763
0.3741822
0.37415704
0.37413216
0.37410757
0.37408326
0.37405927
0.37403558
0.37401223
0.3739892
0.37396653
0.37394421
0.37392227
0.37390072
0.37387957
0.37385884
0.37383863
0.37381863
0.37380457
0.37379611
0.37379001
0.37378524
0.37378134
0.37377806
0.37377525
0.37377281
0.37377068
0.3737688
0.37376714
0.37376565
0.37376431
0.3737631
0.37376201
0.37376101
0.37376008
0.37375923
0.3737584
0.37375768
0.37375657
0.37375599
0.37375492
0.0096600322
0.0096514646
0.0096481007
0.0096469388
0.0096464036
0.009646087
0.0096458852
0.0096457595
0.0096456889
0.0096456604
0.0096456656
0.0096456989
0.0096457568
0.009645837
0.0096459389
0.0096460628
0.0096462126
0.0096463944
0.0096466381
0.0096469595
0.0096476317
0.0096486981
0.0096475479
0.013335231
0.73573307
0.22214481
0.41763636
0.41360582
0.41175322
0.41052297
0.40958282
0.40888973
0.40836844
0.4079592
0.40762876
0.40735718
0.40713046
0.40693836
0.4067734
0.40663005
0.40650418
0.4063926
0.4062928
0.40620282
0.40612107
0.40604627
0.40597739
0.40591357
0.40585409
0.40579836
0.40574587
0.40569622
0.40564904
0.40560401
0.40556089
0.40551944
0.40547947
0.40544082
0.40540332
0.40536686
0.40533131
0.4052966
0.40526262
0.40522931
0.4051966
0.40516443
0.40513275
0.40510151
0.40507068
0.40504023
0.40501012
0.40498033
0.40495083
0.4049216
0.40489263
0.40486391
0.40483542
0.40480715
0.4047791
0.40475125
0.4047236
0.40469616
0.40466891
0.40464186
0.404615
0.40458835
0.4045619
0.40453562
0.40450957
0.40448373
0.4044581
0.40443268
0.4044075
0.40438254
0.40435782
0.40433335
0.40430912
0.40428517
0.40426148
0.40423807
0.40421494
0.40419212
0.40416961
0.40414741
0.40412554
0.40410401
0.40408284
0.40406202
0.40404159
0.40402155
0.40400192
0.4039828
0.40396389
0.40395086
0.4039433
0.40393792
0.40393376
0.40393038
0.40392754
0.40392512
0.40392302
0.4039212
0.40391959
0.40391817
0.40391691
0.40391577
0.40391475
0.40391382
0.40391297
0.40391219
0.40391148
0.40391077
0.40391016
0.4039092
0.40390872
0.40390779
0.0096348662
0.009625171
0.0096212925
0.0096199219
0.0096192793
0.0096188947
0.0096186458
0.0096184863
0.0096183914
0.0096183455
0.0096183384
0.0096183634
0.0096184162
0.0096184937
0.0096185946
0.0096187188
0.009618869
0.0096190505
0.0096192891
0.0096196011
0.0096202207
0.009621282
0.0096189255
0.013274702
0.74291759
0.23823134
0.43545678
0.43187745
0.43021267
0.42910505
0.42825556
0.42763026
0.42716147
0.42679417
0.42649792
0.42625468
0.42605182
0.42588004
0.42573258
0.42560444
0.42549189
0.42539208
0.42530274
0.42522211
0.42514877
0.42508158
0.42501961
0.4249621
0.4249084
0.42485799
0.42481043
0.42476534
0.4247224
0.42468135
0.42464194
0.42460399
0.42456731
0.42453177
0.42449723
0.42446357
0.42443071
0.42439856
0.42436703
0.42433608
0.42430564
0.42427566
0.4242461
0.42421692
0.42418808
0.42415957
0.42413135
0.4241034
0.42407571
0.42404825
0.42402101
0.42399399
0.42396717
0.42394055
0.42391412
0.42388787
0.42386181
0.42383592
0.42381022
0.42378469
0.42375935
0.42373419
0.42370922
0.42368442
0.42365983
0.42363544
0.42361125
0.42358726
0.42356349
0.42353994
0.42351662
0.42349354
0.4234707
0.42344811
0.42342578
0.42340372
0.42338194
0.42336045
0.42333926
0.42331837
0.4232978
0.42327756
0.42325766
0.42323811
0.42321893
0.42320013
0.42318172
0.42316379
0.42314607
0.4231341
0.42312738
0.42312268
0.42311906
0.42311614
0.4231137
0.42311162
0.42310984
0.42310828
0.42310692
0.42310571
0.42310464
0.42310368
0.42310282
0.42310203
0.42310132
0.42310067
0.42310007
0.42309947
0.42309896
0.42309813
0.42309773
0.42309693
0.0096040753
0.0095929755
0.0095884505
0.0095868154
0.0095860358
0.0095855641
0.0095852545
0.0095850515
0.0095849251
0.0095848564
0.0095848331
0.0095848471
0.0095848928
0.0095849665
0.0095850659
0.0095851903
0.0095853414
0.0095855237
0.0095857591
0.0095860647
0.0095866366
0.009587714
0.009583997
0.01320141
0.73508506
0.24682702
0.44177314
0.43862534
0.43714011
0.43615105
0.43539036
0.43483134
0.43441358
0.43408687
0.43382364
0.43360773
0.43342782
0.43327556
0.43314487
0.43303131
0.43293154
0.432843
0.43276369
0.43269204
0.43262679
0.43256692
0.43251162
0.43246021
0.43241212
0.43236689
0.43232413
0.43228351
0.43224476
0.43220762
0.43217191
0.43213744
0.43210407
0.43207166
0.43204011
0.43200932
0.43197921
0.43194969
0.43192071
0.43189221
0.43186415
0.43183648
0.43180916
0.43178216
0.43175545
0.43172902
0.43170284
0.43167689
0.43165116
0.43162563
0.43160029
0.43157514
0.43155016
0.43152536
0.43150073
0.43147626
0.43145195
0.4314278
0.43140382
0.43138001
0.43135636
0.43133288
0.43130958
0.43128643
0.43126348
0.43124072
0.43121814
0.43119576
0.43117359
0.43115162
0.43112987
0.43110834
0.43108705
0.43106599
0.43104518
0.43102463
0.43100435
0.43098434
0.43096461
0.43094518
0.43092605
0.43090723
0.43088873
0.43087057
0.43085276
0.43083531
0.43081823
0.43080161
0.43078518
0.43077429
0.43076836
0.43076427
0.43076115
0.43075865
0.43075656
0.4307548
0.43075328
0.43075196
0.43075081
0.4307498
0.43074889
0.43074809
0.43074736
0.43074671
0.43074611
0.43074557
0.43074506
0.43074456
0.43074414
0.43074342
0.4307431
0.43074241
0.0095669294
0.0095541003
0.0095487725
0.0095468054
0.0095458527
0.0095452705
0.0095448838
0.0095446252
0.0095444583
0.0095443601
0.0095443157
0.0095443149
0.009544351
0.009544419
0.009544516
0.0095446402
0.0095447926
0.0095449766
0.0095452104
0.0095455125
0.0095460406
0.0095471577
0.0095418891
0.013114003
0.71283214
0.24761675
0.43640001
0.4336608
0.4323455
0.43147019
0.43079579
0.43030111
0.42993258
0.42964491
0.42941339
0.42922367
0.42906572
0.42893211
0.42881745
0.42871781
0.42863024
0.42855247
0.42848275
0.4284197
0.4283622
0.42830937
0.4282605
0.42821498
0.42817233
0.42813213
0.42809406
0.42805782
0.42802318
0.42798992
0.42795786
0.42792687
0.42789681
0.42786757
0.42783905
0.42781117
0.42778386
0.42775705
0.42773069
0.42770474
0.42767915
0.42765389
0.42762893
0.42760424
0.42757979
0.42755557
0.42753157
0.42750776
0.42748413
0.42746068
0.42743739
0.42741426
0.42739129
0.42736847
0.42734579
0.42732326
0.42730088
0.42727864
0.42725655
0.42723461
0.42721282
0.42719119
0.42716972
0.42714839
0.42712726
0.42710629
0.42708549
0.42706488
0.42704445
0.42702423
0.4270042
0.42698439
0.42696479
0.42694541
0.42692627
0.42690737
0.42688872
0.42687033
0.4268522
0.42683435
0.42681678
0.42679951
0.42678254
0.42676588
0.42674955
0.42673356
0.42671791
0.42670269
0.42668765
0.42667784
0.42667266
0.42666913
0.42666647
0.42666434
0.42666257
0.42666108
0.4266598
0.4266587
0.42665773
0.42665688
0.42665613
0.42665546
0.42665486
0.42665431
0.42665382
0.42665336
0.42665295
0.42665253
0.42665218
0.42665157
0.4266513
0.42665072
0.0095226034
0.0095076647
0.0095013477
0.0094989674
0.0094977977
0.0094970762
0.0094965921
0.0094962631
0.0094960444
0.0094959083
0.0094958364
0.0094958161
0.009495839
0.009495899
0.009495992
0.0094961153
0.0094962688
0.009496455
0.0094966885
0.0094969899
0.0094974774
0.009498661
0.0094916077
0.01301101
0.6771303
0.2406615
0.41962401
0.41726735
0.41611129
0.41534416
0.41475291
0.41432018
0.41399879
0.41374841
0.41354714
0.41338237
0.4132453
0.41312943
0.41303
0.41294359
0.41286761
0.41280009
0.41273951
0.41268466
0.41263457
0.41258849
0.41254578
0.41250594
0.41246854
0.41243324
0.41239973
0.41236777
0.41233716
0.41230772
0.41227929
0.41225176
0.412225
0.41219893
0.41217347
0.41214853
0.41212407
0.41210003
0.41207636
0.41205303
0.41203
0.41200724
0.41198473
0.41196245
0.41194036
0.41191848
0.41189676
0.41187522
0.41185382
0.41183258
0.41181147
0.4117905
0.41176967
0.41174897
0.41172839
0.41170795
0.41168763
0.41166744
0.41164739
0.41162747
0.41160769
0.41158805
0.41156856
0.4115492
0.41153002
0.41151098
0.41149211
0.4114734
0.41145487
0.41143652
0.41141836
0.41140039
0.41138261
0.41136505
0.4113477
0.41133058
0.41131368
0.41129702
0.41128061
0.41126446
0.41124856
0.41123294
0.41121759
0.41120254
0.41118778
0.41117333
0.41115921
0.41114547
0.4111319
0.41112318
0.4111187
0.41111569
0.41111344
0.41111164
0.41111016
0.41110892
0.41110785
0.41110693
0.41110613
0.41110543
0.4111048
0.41110425
0.41110375
0.4111033
0.4111029
0.41110252
0.41110218
0.41110184
0.41110155
0.41110104
0.41110082
0.41110033
0.0094701781
0.0094526839
0.0094451564
0.0094422648
0.0094408244
0.0094399288
0.0094393223
0.0094389042
0.00943862
0.0094384354
0.0094383278
0.009438282
0.0094382871
0.0094383357
0.0094384224
0.0094385434
0.0094386974
0.009438886
0.0094391202
0.0094394234
0.0094398728
0.0094411536
0.0094320345
0.012890855
0.62944977
0.22644884
0.39227172
0.39026854
0.38926019
0.38859496
0.38808306
0.38770943
0.3874328
0.38721775
0.38704509
0.38690392
0.38678658
0.38668744
0.3866024
0.38652847
0.38646345
0.38640563
0.38635371
0.38630664
0.38626361
0.38622395
0.38618715
0.38615275
0.38612041
0.38608982
0.38606073
0.38603294
0.38600627
0.38598057
0.38595572
0.3859316
0.38590813
0.38588522
0.38586281
0.38584084
0.38581925
0.38579801
0.38577707
0.38575641
0.385736
0.38571581
0.38569582
0.38567602
0.38565638
0.38563691
0.38561758
0.38559838
0.38557932
0.38556038
0.38554156
0.38552286
0.38550427
0.3854858
0.38546744
0.38544919
0.38543106
0.38541304
0.38539514
0.38537736
0.3853597
0.38534217
0.38532478
0.3853075
0.38529038
0.3852734
0.38525656
0.38523987
0.38522334
0.38520698
0.38519078
0.38517476
0.38515892
0.38514326
0.38512781
0.38511255
0.38509751
0.38508268
0.38506807
0.3850537
0.38503956
0.38502567
0.38501203
0.38499865
0.38498554
0.38497271
0.38496018
0.38494798
0.38493594
0.38492831
0.38492449
0.38492195
0.38492007
0.38491858
0.38491735
0.38491632
0.38491544
0.38491469
0.38491403
0.38491346
0.38491295
0.38491249
0.38491209
0.38491172
0.38491139
0.38491109
0.38491081
0.38491053
0.3849103
0.38490987
0.3849097
0.38490929
0.009408641
0.0093880699
0.0093790691
0.0093755481
0.0093737721
0.0093726594
0.0093718999
0.0093713701
0.0093710031
0.0093707568
0.0093706034
0.0093705241
0.0093705056
0.0093705384
0.0093706154
0.009370732
0.0093708852
0.0093710759
0.0093713114
0.0093716186
0.0093720314
0.0093734448
0.0093619253
0.012751879
0.57182275
0.2059144
0.35574611
0.35406436
0.35319158
0.35262126
0.35218425
0.35186638
0.35163182
0.35144989
0.35130406
0.35118498
0.35108612
0.35100264
0.35093106
0.35086884
0.35081409
0.35076538
0.35072159
0.35068186
0.35064548
0.35061192
0.35058072
0.35055151
0.350524
0.35049793
0.3504731
0.35044933
0.35042648
0.35040442
0.35038305
0.35036228
0.35034204
0.35032225
0.35030287
0.35028383
0.35026511
0.35024667
0.35022848
0.3502105
0.35019273
0.35017513
0.3501577
0.35014042
0.35012328
0.35010626
0.35008937
0.35007259
0.35005592
0.35003935
0.35002288
0.35000651
0.34999024
0.34997406
0.34995799
0.34994201
0.34992613
0.34991036
0.34989468
0.34987912
0.34986366
0.34984832
0.3498331
0.34981798
0.34980301
0.34978815
0.34977342
0.34975883
0.34974437
0.34973006
0.3497159
0.3497019
0.34968806
0.34967438
0.34966088
0.34964756
0.34963443
0.34962148
0.34960874
0.3495962
0.34958388
0.34957177
0.34955989
0.34954823
0.34953682
0.34952566
0.34951475
0.34950414
0.34949367
0.3494871
0.34948389
0.34948179
0.34948025
0.34947902
0.34947802
0.34947718
0.34947647
0.34947586
0.34947533
0.34947486
0.34947445
0.34947409
0.34947376
0.34947347
0.34947321
0.34947296
0.34947274
0.34947252
0.34947233
0.34947198
0.34947184
0.3494715
0.0093368904
0.0093126339
0.0093018487
0.0092975565
0.009295366
0.0092939841
0.0092930341
0.0092923647
0.0092918937
0.0092915693
0.0092913575
0.0092912348
0.0092911849
0.0092911959
0.009291259
0.0092913679
0.0092915183
0.0092917101
0.0092919466
0.00929226
0.0092926365
0.0092942236
0.0092799089
0.012592368
0.50683507
0.18042341
0.31201784
0.31062252
0.30987291
0.3093898
0.3090225
0.30875656
0.30856103
0.30840978
0.3082888
0.30819017
0.30810841
0.30803943
0.30798031
0.30792893
0.30788371
0.30784346
0.30780725
0.30777435
0.30774421
0.30771635
0.30769041
0.30766609
0.30764315
0.30762137
0.30760059
0.30758066
0.30756147
0.30754291
0.3075249
0.30750737
0.30749026
0.30747351
0.30745708
0.30744093
0.30742503
0.30740934
0.30739385
0.30737853
0.30736338
0.30734836
0.30733347
0.30731871
0.30730405
0.3072895
0.30727505
0.30726069
0.30724641
0.30723223
0.30721812
0.30720411
0.30719017
0.30717632
0.30716255
0.30714887
0.30713528
0.30712177
0.30710836
0.30709504
0.30708181
0.30706869
0.30705567
0.30704274
0.30702993
0.30701723
0.30700464
0.30699217
0.30697982
0.30696759
0.30695549
0.30694353
0.30693171
0.30692004
0.30690851
0.30689715
0.30688594
0.30687491
0.30686405
0.30685336
0.30684287
0.30683256
0.30682244
0.30681253
0.30680282
0.30679333
0.30678406
0.30677505
0.30676615
0.30676063
0.30675798
0.30675627
0.30675502
0.30675404
0.30675324
0.30675257
0.306752
0.30675151
0.30675109
0.30675072
0.3067504
0.30675011
0.30674986
0.30674963
0.30674942
0.30674922
0.30674905
0.30674887
0.30674873
0.30674844
0.30674834
0.30674806
0.0092537403
0.0092250912
0.0092121541
0.0092069209
0.0092042207
0.0092025065
0.0092013205
0.0092004774
0.0091998762
0.0091994535
0.0091991674
0.009198989
0.0091988979
0.0091988795
0.0091989228
0.0091990197
0.0091991641
0.0091993551
0.0091995919
0.009199913
0.0092002522
0.0092020605
0.0091844901
0.012410584
0.43753611
0.15170302
0.26355809
0.26241221
0.26177299
0.26136871
0.26106525
0.26084689
0.260687
0.26056374
0.26046541
0.26038543
0.26031925
0.26026349
0.26021574
0.26017426
0.26013776
0.26010525
0.26007599
0.26004939
0.26002499
0.2600024
0.25998134
0.25996157
0.25994288
0.25992511
0.25990812
0.2598918
0.25987606
0.25986081
0.259846
0.25983155
0.25981742
0.25980358
0.25978998
0.2597766
0.25976341
0.25975038
0.2597375
0.25972476
0.25971214
0.25969963
0.25968723
0.25967491
0.25966269
0.25965054
0.25963848
0.25962649
0.25961457
0.25960272
0.25959095
0.25957924
0.25956761
0.25955604
0.25954455
0.25953313
0.25952179
0.25951052
0.25949934
0.25948824
0.25947722
0.25946628
0.25945544
0.25944467
0.25943401
0.25942344
0.25941296
0.25940258
0.2593923
0.25938213
0.25937207
0.25936212
0.2593523
0.25934259
0.25933302
0.25932358
0.25931428
0.25930512
0.25929612
0.25928726
0.25927856
0.25927003
0.25926165
0.25925345
0.25924542
0.25923757
0.25922991
0.25922246
0.25921511
0.25921058
0.25920845
0.25920709
0.25920611
0.25920533
0.25920471
0.25920418
0.25920374
0.25920336
0.25920304
0.25920275
0.2592025
0.25920228
0.25920208
0.2592019
0.25920174
0.25920159
0.25920146
0.25920132
0.25920121
0.25920099
0.25920091
0.25920069
0.0091579307
0.0091240695
0.0091085485
0.0091021718
0.0090988474
0.0090967244
0.0090952472
0.0090941889
0.0090934258
0.00909288
0.0090924999
0.0090922502
0.0090921057
0.0090920481
0.0090920639
0.0090921428
0.0090922769
0.0090924641
0.0090926993
0.0090930291
0.0090933284
0.0090954133
0.0090740551
0.012204809
0.36726007
0.12171995
0.21320327
0.21226866
0.21172685
0.21139249
0.21114632
0.21097067
0.21084269
0.21074445
0.21066638
0.21060307
0.21055081
0.21050687
0.2104693
0.21043669
0.210408
0.21038246
0.21035946
0.21033854
0.21031932
0.21030152
0.21028489
0.21026926
0.21025446
0.21024036
0.21022686
0.21021387
0.21020131
0.21018913
0.21017728
0.21016569
0.21015436
0.21014323
0.21013228
0.2101215
0.21011085
0.21010033
0.21008992
0.21007961
0.21006939
0.21005926
0.2100492
0.21003922
0.2100293
0.21001945
0.21000966
0.20999993
0.20999025
0.20998064
0.20997109
0.20996159
0.20995216
0.20994278
0.20993347
0.20992422
0.20991504
0.20990592
0.20989687
0.2098879
0.20987899
0.20987016
0.2098614
0.20985271
0.20984411
0.20983558
0.20982712
0.20981875
0.20981046
0.20980225
0.20979414
0.20978612
0.2097782
0.20977039
0.20976268
0.20975509
0.20974761
0.20974025
0.20973302
0.20972591
0.20971893
0.20971209
0.20970538
0.20969882
0.20969239
0.20968611
0.20967998
0.20967403
0.20966815
0.20966455
0.20966289
0.20966184
0.20966108
0.20966049
0.20966001
0.20965962
0.20965928
0.209659
0.20965875
0.20965854
0.20965835
0.20965818
0.20965804
0.2096579
0.20965778
0.20965767
0.20965757
0.20965747
0.20965739
0.20965722
0.20965716
0.20965699
0.0090481403
0.009008123
0.0089895116
0.0089817508
0.0089776651
0.0089750415
0.0089732064
0.0089718827
0.0089709189
0.0089702196
0.0089697216
0.0089693814
0.008969168
0.0089690589
0.0089690373
0.0089690905
0.0089692082
0.0089693873
0.0089696178
0.0089699567
0.0089702116
0.0089726368
0.008946884
0.011973385
0.29936036
0.092505646
0.16394599
0.1631846
0.16272735
0.16245364
0.16225767
0.16211943
0.1620193
0.16194288
0.16188245
0.16183367
0.16179354
0.1617599
0.1617312
0.16170634
0.16168449
0.16166505
0.16164755
0.16163162
0.16161698
0.1616034
0.16159071
0.16157876
0.16156742
0.1615566
0.16154622
0.16153621
0.16152652
0.16151711
0.16150792
0.16149893
0.16149012
0.16148146
0.16147293
0.16146451
0.16145619
0.16144795
0.1614398
0.16143172
0.1614237
0.16141575
0.16140785
0.16140001
0.16139222
0.16138447
0.16137678
0.16136913
0.16136154
0.16135399
0.16134648
0.16133903
0.16133163
0.16132429
0.16131699
0.16130975
0.16130257
0.16129545
0.16128838
0.16128137
0.16127443
0.16126754
0.16126072
0.16125396
0.16124726
0.16124061
0.16123403
0.16122751
0.16122106
0.16121467
0.16120836
0.16120213
0.16119597
0.1611899
0.16118392
0.16117803
0.16117223
0.16116654
0.16116095
0.16115546
0.16115007
0.1611448
0.16113964
0.16113458
0.16112964
0.16112481
0.1611201
0.16111553
0.16111101
0.16110826
0.161107
0.16110622
0.16110566
0.16110522
0.16110487
0.16110458
0.16110434
0.16110413
0.16110395
0.16110379
0.16110366
0.16110354
0.16110343
0.16110333
0.16110325
0.16110317
0.1611031
0.16110302
0.16110296
0.16110284
0.1611028
0.16110268
0.0089230072
0.008875751
0.0088534586
0.0088440294
0.0088390188
0.0088357847
0.0088335116
0.0088318621
0.0088306507
0.0088297611
0.0088291158
0.0088286615
0.0088283601
0.0088281841
0.0088281126
0.00882813
0.0088282232
0.0088283883
0.0088286096
0.0088289569
0.0088291605
0.0088319994
0.0088011691
0.011714766
0.23687769
0.065940396
0.11865755
0.11803337
0.11764833
0.11742605
0.11727287
0.11716642
0.11708987
0.11703187
0.11698633
0.11694978
0.11691987
0.11689492
0.11687371
0.1168554
0.11683934
0.11682508
0.11681225
0.11680057
0.11678984
0.11677988
0.11677056
0.11676176
0.11675341
0.11674542
0.11673775
0.11673033
0.11672313
0.11671612
0.11670927
0.11670255
0.11669595
0.11668945
0.11668303
0.11667669
0.11667042
0.1166642
0.11665804
0.11665192
0.11664586
0.11663983
0.11663384
0.1166279
0.11662199
0.11661612
0.11661028
0.11660449
0.11659873
0.11659302
0.11658734
0.11658171
0.11657612
0.11657058
0.11656508
0.11655963
0.11655423
0.11654888
0.11654358
0.11653833
0.11653313
0.11652798
0.11652287
0.11651781
0.1165128
0.11650784
0.11650291
0.11649804
0.11649321
0.11648844
0.11648372
0.11647907
0.11647448
0.11646995
0.1164655
0.11646112
0.11645682
0.1164526
0.11644846
0.11644441
0.11644045
0.11643657
0.11643277
0.11642906
0.11642544
0.1164219
0.11641845
0.1164151
0.11641179
0.11640978
0.11640887
0.11640831
0.11640791
0.1164076
0.11640735
0.11640715
0.11640698
0.11640683
0.11640671
0.1164066
0.11640651
0.11640642
0.11640635
0.11640628
0.11640622
0.11640617
0.11640612
0.11640607
0.11640603
0.11640594
0.11640591
0.11640583
0.0087811543
0.0087254259
0.0086987672
0.0086873347
0.0086812054
0.0086772297
0.0086744231
0.0086723752
0.00867086
0.0086697356
0.0086689074
0.0086683102
0.0086678974
0.0086676353
0.0086674982
0.008667467
0.0086675254
0.0086676684
0.0086678741
0.0086682281
0.0086683707
0.0086717069
0.0086350438
0.01142758
0.18218824
0.04352076
0.07976245
0.079244037
0.078920023
0.078740558
0.078622761
0.078542415
0.078485102
0.07844206
0.078408565
0.078381914
0.078360277
0.078342347
0.078327206
0.078314198
0.078302844
0.07829279
0.078283766
0.078275568
0.078268036
0.078261045
0.078254497
0.078248313
0.078242427
0.078236789
0.078231356
0.078226093
0.078220973
0.078215971
0.078211069
0.078206251
0.078201507
0.078196824
0.078192192
0.078187604
0.078183056
0.078178542
0.07817406
0.07816961
0.078165188
0.078160794
0.078156428
0.078152088
0.078147775
0.078143492
0.078139238
0.078135014
0.078130822
0.078126663
0.078122538
0.07811845
0.0781144
0.07811039
0.07810642
0.078102491
0.078098605
0.078094761
0.078090959
0.078087198
0.078083475
0.07807979
0.07807614
0.078072521
0.078068935
0.078065378
0.078061851
0.078058356
0.078054898
0.078051481
0.078048107
0.078044781
0.078041505
0.078038282
0.078035117
0.078032013
0.078028974
0.078026002
0.078023097
0.07802026
0.078017493
0.078014794
0.078012161
0.07800959
0.078007082
0.078004633
0.078002242
0.077999922
0.077997636
0.077996243
0.077995613
0.077995228
0.077994956
0.077994748
0.077994583
0.077994448
0.077994335
0.077994239