/*--------------------------------*- C++ -*----------------------------------*\
| =========                 |                                                 |
| \\      /  F ield         | OpenFOAM: The Open Source CFD Toolbox           |
|  \\    /   O peration     | Version:  2206                                  |
|   \\  /    A nd           | Website:  www.openfoam.com                      |
|    \\/     M anipulation  |                                                 |
\*---------------------------------------------------------------------------*/
FoamFile
{
    version     2.0;
    format      ascii;
    arch        "LSB;label=32;scalar=64";
    class       volScalarField;
    location    "300";
    object      k;
}
// * * * * * * * * * * * * * * * * * * * * * * * * * * * * * * * * * * * * * //

dimensions      [0 2 -2 0 0 0 0];

internalField   nonuniform List<scalar> 
13056
(
0.00014695288
0.00014645673
0.00014634443
0.00014630729
0.00014628845
0.0001462768
0.00014626915
0.00014626409
0.00014626084
0.00014625891
0.000146258
0.00014625789
0.00014625843
0.0001462595
0.00014626103
0.00014626293
0.00014626514
0.00014626761
0.00014627024
0.00014627314
0.00014627533
0.00014628285
0.00014625023
0.00014634216
8.3212493e-05
1.1550934e-05
4.3629903e-05
4.1876301e-05
4.1088024e-05
4.0568565e-05
4.0181442e-05
3.98922e-05
3.9668965e-05
3.9490777e-05
3.9345279e-05
3.9224419e-05
3.9122538e-05
3.9035533e-05
3.8960381e-05
3.8894813e-05
3.88371e-05
3.8785894e-05
3.8740131e-05
3.8698961e-05
3.8661694e-05
3.8627769e-05
3.8596723e-05
3.8568169e-05
3.8541785e-05
3.8517299e-05
3.8494479e-05
3.8473128e-05
3.8453076e-05
3.8434177e-05
3.8416305e-05
3.8399349e-05
3.8383212e-05
3.8367811e-05
3.8353071e-05
3.8338926e-05
3.8325319e-05
3.8312197e-05
3.8299515e-05
3.8287233e-05
3.8275314e-05
3.8263725e-05
3.8252437e-05
3.8241425e-05
3.8230663e-05
3.8220133e-05
3.8209814e-05
3.8199689e-05
3.8189743e-05
3.8179963e-05
3.8170335e-05
3.8160849e-05
3.8151494e-05
3.8142261e-05
3.8133144e-05
3.8124133e-05
3.8115223e-05
3.8106408e-05
3.8097684e-05
3.8089045e-05
3.8080488e-05
3.8072009e-05
3.8063608e-05
3.8055272e-05
3.8047015e-05
3.8038826e-05
3.8030705e-05
3.8022651e-05
3.8014665e-05
3.8006745e-05
3.7998891e-05
3.7991105e-05
3.7983386e-05
3.7975736e-05
3.7968155e-05
3.7960645e-05
3.7953207e-05
3.7945844e-05
3.7938556e-05
3.7931346e-05
3.7924217e-05
3.7917172e-05
3.7910212e-05
3.7903342e-05
3.7896565e-05
3.7889888e-05
3.7883312e-05
3.7876873e-05
3.787048e-05
3.7865323e-05
3.7861571e-05
3.7858633e-05
3.7856228e-05
3.7854195e-05
3.7852442e-05
3.785091e-05
3.7849559e-05
3.7848359e-05
3.7847286e-05
3.7846321e-05
3.7845448e-05
3.7844656e-05
3.7843934e-05
3.7843273e-05
3.7842665e-05
3.7842101e-05
3.7841579e-05
3.7841072e-05
3.7840623e-05
3.7840032e-05
3.7839658e-05
3.7839058e-05
0.00014693757
0.00014643586
0.00014632197
0.0001462842
0.00014626501
0.00014625313
0.00014624532
0.00014624015
0.00014623682
0.00014623483
0.00014623388
0.00014623373
0.00014623425
0.00014623531
0.00014623682
0.00014623873
0.00014624094
0.00014624342
0.00014624606
0.00014624897
0.00014625116
0.00014625877
0.00014622568
0.00014632124
9.5633596e-05
1.3649921e-05
4.8463479e-05
4.6858104e-05
4.6138181e-05
4.566277e-05
4.530726e-05
4.5041977e-05
4.4837791e-05
4.4675098e-05
4.4542431e-05
4.4432381e-05
4.4339733e-05
4.4260704e-05
4.4192509e-05
4.4133062e-05
4.4080772e-05
4.4034405e-05
4.3992984e-05
4.395573e-05
4.3922012e-05
4.3891318e-05
4.3863224e-05
4.383738e-05
4.381349e-05
4.3791306e-05
4.377062e-05
4.3751251e-05
4.3733045e-05
4.3715871e-05
4.3699613e-05
4.3684172e-05
4.3669462e-05
4.3655404e-05
4.3641934e-05
4.3628991e-05
4.3616523e-05
4.3604485e-05
4.3592836e-05
4.3581538e-05
4.357056e-05
4.3559873e-05
4.354945e-05
4.3539268e-05
4.3529307e-05
4.3519548e-05
4.3509974e-05
4.350057e-05
4.3491322e-05
4.3482219e-05
4.347325e-05
4.3464405e-05
4.3455674e-05
4.3447052e-05
4.343853e-05
4.3430102e-05
4.3421764e-05
4.341351e-05
4.3405336e-05
4.3397238e-05
4.3389214e-05
4.338126e-05
4.3373378e-05
4.3365553e-05
4.3357801e-05
4.3350112e-05
4.3342485e-05
4.3334922e-05
4.3327421e-05
4.3319982e-05
4.3312607e-05
4.3305295e-05
4.3298048e-05
4.3290866e-05
4.3283751e-05
4.3276704e-05
4.3269726e-05
4.3262821e-05
4.3255989e-05
4.3249234e-05
4.3242557e-05
4.3235961e-05
4.3229449e-05
4.3223024e-05
4.321669e-05
4.3210453e-05
4.3204316e-05
4.319831e-05
4.319235e-05
4.3187623e-05
4.3184259e-05
4.3181655e-05
4.3179537e-05
4.3177756e-05
4.3176225e-05
4.3174892e-05
4.317372e-05
4.3172681e-05
4.3171753e-05
4.3170921e-05
4.317017e-05
4.3169489e-05
4.316887e-05
4.3168303e-05
4.3167783e-05
4.3167301e-05
4.3166856e-05
4.3166422e-05
4.316604e-05
4.3165526e-05
4.3165208e-05
4.3164692e-05
0.00014688835
0.00014636965
0.00014625089
0.00014621118
0.00014619093
0.00014617837
0.00014617008
0.00014616456
0.00014616097
0.0001461588
0.00014615771
0.00014615747
0.00014615791
0.00014615893
0.00014616042
0.00014616231
0.00014616453
0.00014616703
0.00014616969
0.00014617264
0.00014617484
0.00014618272
0.00014614818
0.00014625383
0.00010308048
1.5636865e-05
5.2448945e-05
5.0999238e-05
5.035102e-05
4.9921882e-05
4.9599923e-05
4.9360045e-05
4.9175945e-05
4.902952e-05
4.8910281e-05
4.8811503e-05
4.872845e-05
4.8657686e-05
4.8596681e-05
4.8543543e-05
4.8496834e-05
4.8455434e-05
4.8418463e-05
4.8385217e-05
4.8355128e-05
4.8327734e-05
4.8302654e-05
4.8279574e-05
4.8258228e-05
4.8238395e-05
4.8219886e-05
4.8202541e-05
4.8186222e-05
4.8170812e-05
4.8156207e-05
4.814232e-05
4.8129074e-05
4.8116399e-05
4.8104238e-05
4.8092537e-05
4.8081251e-05
4.8070338e-05
4.8059764e-05
4.8049494e-05
4.8039502e-05
4.8029762e-05
4.802025e-05
4.8010947e-05
4.8001834e-05
4.7992895e-05
4.7984116e-05
4.7975484e-05
4.7966987e-05
4.7958614e-05
4.7950357e-05
4.7942207e-05
4.7934156e-05
4.7926199e-05
4.7918329e-05
4.7910541e-05
4.7902831e-05
4.7895195e-05
4.7887629e-05
4.7880131e-05
4.7872698e-05
4.7865328e-05
4.7858022e-05
4.7850767e-05
4.784358e-05
4.7836449e-05
4.7829376e-05
4.782236e-05
4.7815403e-05
4.7808504e-05
4.7801663e-05
4.7794883e-05
4.7788163e-05
4.7781505e-05
4.7774911e-05
4.7768381e-05
4.7761919e-05
4.7755524e-05
4.7749201e-05
4.774295e-05
4.7736774e-05
4.7730677e-05
4.772466e-05
4.7718727e-05
4.7712882e-05
4.7707129e-05
4.7701472e-05
4.769594e-05
4.7690452e-05
4.7686174e-05
4.76832e-05
4.7680924e-05
4.7679085e-05
4.7677545e-05
4.7676227e-05
4.7675083e-05
4.7674079e-05
4.7673192e-05
4.7672401e-05
4.7671694e-05
4.7671056e-05
4.7670479e-05
4.7669955e-05
4.7669476e-05
4.7669037e-05
4.7668631e-05
4.7668256e-05
4.766789e-05
4.7667569e-05
4.7667127e-05
4.7666861e-05
4.7666424e-05
0.00014680359
0.00014625575
0.00014612859
0.00014608555
0.00014606346
0.0001460497
0.00014604058
0.00014603446
0.00014603044
0.00014602794
0.00014602661
0.0001460262
0.00014602652
0.00014602746
0.00014602891
0.00014603078
0.00014603301
0.00014603553
0.00014603823
0.00014604125
0.00014604346
0.00014605181
0.00014601478
0.00014613747
0.00010687215
1.7425356e-05
5.5454745e-05
5.4162297e-05
5.358631e-05
5.3203824e-05
5.2915948e-05
5.2701876e-05
5.2538077e-05
5.2408026e-05
5.2302258e-05
5.2214754e-05
5.2141272e-05
5.2078729e-05
5.2024859e-05
5.1977969e-05
5.1936775e-05
5.1900278e-05
5.1867692e-05
5.1838392e-05
5.1811871e-05
5.178772e-05
5.1765601e-05
5.1745236e-05
5.1726389e-05
5.1708863e-05
5.1692493e-05
5.1677138e-05
5.1662675e-05
5.1649002e-05
5.1636027e-05
5.1623675e-05
5.1611876e-05
5.1600571e-05
5.1589708e-05
5.1579242e-05
5.1569132e-05
5.1559343e-05
5.1549843e-05
5.1540605e-05
5.1531604e-05
5.1522818e-05
5.1514227e-05
5.1505814e-05
5.1497563e-05
5.148946e-05
5.1481494e-05
5.1473652e-05
5.1465925e-05
5.1458304e-05
5.1450781e-05
5.144335e-05
5.1436004e-05
5.1428738e-05
5.1421546e-05
5.1414426e-05
5.1407373e-05
5.1400384e-05
5.1393456e-05
5.1386588e-05
5.1379777e-05
5.1373022e-05
5.1366324e-05
5.1359671e-05
5.135308e-05
5.1346539e-05
5.1340051e-05
5.1333616e-05
5.1327233e-05
5.1320905e-05
5.1314632e-05
5.1308414e-05
5.1302252e-05
5.1296149e-05
5.1290105e-05
5.1284123e-05
5.1278203e-05
5.1272348e-05
5.126656e-05
5.1260841e-05
5.1255193e-05
5.1249619e-05
5.1244121e-05
5.1238703e-05
5.1233369e-05
5.1228121e-05
5.1222964e-05
5.1217925e-05
5.1212928e-05
5.12091e-05
5.1206503e-05
5.1204537e-05
5.120296e-05
5.1201647e-05
5.1200526e-05
5.1199555e-05
5.1198707e-05
5.1197958e-05
5.1197293e-05
5.1196698e-05
5.1196164e-05
5.1195681e-05
5.1195243e-05
5.1194844e-05
5.1194478e-05
5.1194139e-05
5.1193827e-05
5.1193522e-05
5.1193255e-05
5.1192881e-05
5.119266e-05
5.1192293e-05
0.00014668072
0.00014609038
0.00014595094
0.000145903
0.0001458782
0.00014586268
0.00014585233
0.00014584533
0.00014584065
0.00014583767
0.00014583599
0.00014583532
0.00014583546
0.00014583628
0.00014583765
0.0001458395
0.00014584173
0.00014584429
0.00014584704
0.00014585015
0.00014585237
0.0001458614
0.00014582072
0.00014596821
0.0001078466
1.8927822e-05
5.7372543e-05
5.623466e-05
5.5729419e-05
5.5392689e-05
5.513843e-05
5.4949858e-05
5.4806007e-05
5.4691979e-05
5.4599355e-05
5.4522819e-05
5.4458622e-05
5.4404035e-05
5.4357058e-05
5.4316191e-05
5.4280306e-05
5.4248521e-05
5.4220146e-05
5.419463e-05
5.417153e-05
5.4150486e-05
5.4131203e-05
5.4113436e-05
5.4096982e-05
5.4081667e-05
5.4067347e-05
5.40539e-05
5.4041219e-05
5.4029215e-05
5.4017809e-05
5.4006934e-05
5.3996531e-05
5.398655e-05
5.3976944e-05
5.3967675e-05
5.3958709e-05
5.3950014e-05
5.3941564e-05
5.3933335e-05
5.3925305e-05
5.3917457e-05
5.3909773e-05
5.3902239e-05
5.3894841e-05
5.3887567e-05
5.3880408e-05
5.3873354e-05
5.3866396e-05
5.3859528e-05
5.3852742e-05
5.3846034e-05
5.3839397e-05
5.3832829e-05
5.3826324e-05
5.3819879e-05
5.3813492e-05
5.380716e-05
5.3800882e-05
5.3794655e-05
5.3788478e-05
5.378235e-05
5.3776273e-05
5.3770236e-05
5.3764254e-05
5.3758317e-05
5.3752428e-05
5.3746587e-05
5.3740794e-05
5.3735051e-05
5.3729358e-05
5.3723716e-05
5.3718126e-05
5.371259e-05
5.370711e-05
5.3701687e-05
5.3696322e-05
5.3691017e-05
5.3685775e-05
5.3680598e-05
5.3675488e-05
5.3670446e-05
5.3665476e-05
5.3660581e-05
5.3655764e-05
5.3651028e-05
5.3646377e-05
5.3641835e-05
5.3637332e-05
5.3633944e-05
5.3631701e-05
5.3630024e-05
5.3628687e-05
5.3627579e-05
5.3626637e-05
5.3625825e-05
5.3625116e-05
5.3624492e-05
5.3623939e-05
5.3623445e-05
5.3623002e-05
5.3622603e-05
5.3622241e-05
5.3621912e-05
5.362161e-05
5.3621332e-05
5.3621075e-05
5.3620824e-05
5.3620605e-05
5.362029e-05
5.362011e-05
5.3619804e-05
0.00014651625
0.00014586842
0.00014571225
0.00014565761
0.00014562909
0.00014561116
0.00014559912
0.00014559089
0.00014558532
0.00014558167
0.00014557949
0.00014557846
0.00014557835
0.00014557899
0.00014558026
0.00014558206
0.00014558429
0.00014558688
0.0001455897
0.00014559294
0.00014559516
0.00014560511
0.00014555946
0.00014574063
0.00010654153
2.0059289e-05
5.812087e-05
5.7131622e-05
5.6694174e-05
5.6401447e-05
5.6179625e-05
5.6015773e-05
5.5891127e-05
5.5792461e-05
5.5712398e-05
5.5646316e-05
5.5590947e-05
5.5543909e-05
5.5503456e-05
5.5468283e-05
5.5437409e-05
5.5410066e-05
5.5385657e-05
5.5363702e-05
5.534382e-05
5.5325697e-05
5.530908e-05
5.5293757e-05
5.5279553e-05
5.5266318e-05
5.5253929e-05
5.524228e-05
5.523128e-05
5.5220851e-05
5.5210928e-05
5.5201452e-05
5.5192375e-05
5.5183651e-05
5.5175242e-05
5.5167115e-05
5.5159241e-05
5.5151594e-05
5.5144151e-05
5.5136892e-05
5.5129799e-05
5.5122857e-05
5.5116052e-05
5.510937e-05
5.5102802e-05
5.5096337e-05
5.5089967e-05
5.5083683e-05
5.507748e-05
5.5071351e-05
5.5065292e-05
5.5059296e-05
5.5053361e-05
5.5047482e-05
5.5041658e-05
5.5035884e-05
5.5030159e-05
5.5024482e-05
5.501885e-05
5.5013263e-05
5.5007719e-05
5.5002218e-05
5.4996762e-05
5.4991341e-05
5.4985969e-05
5.4980637e-05
5.4975348e-05
5.4970102e-05
5.49649e-05
5.4959743e-05
5.4954631e-05
5.4949566e-05
5.4944549e-05
5.4939582e-05
5.4934665e-05
5.4929801e-05
5.4924991e-05
5.4920237e-05
5.4915541e-05
5.4910904e-05
5.4906329e-05
5.4901818e-05
5.4897373e-05
5.4892997e-05
5.4888693e-05
5.4884465e-05
5.4880314e-05
5.4876263e-05
5.4872249e-05
5.4869281e-05
5.4867368e-05
5.4865953e-05
5.4864834e-05
5.4863911e-05
5.4863129e-05
5.4862457e-05
5.4861871e-05
5.4861358e-05
5.4860903e-05
5.4860498e-05
5.4860136e-05
5.485981e-05
5.4859514e-05
5.4859246e-05
5.4859e-05
5.4858774e-05
5.4858565e-05
5.4858361e-05
5.4858183e-05
5.4857922e-05
5.4857777e-05
5.4857525e-05
0.00014630577
0.00014558332
0.00014540531
0.00014534184
0.00014530842
0.00014528729
0.00014527301
0.00014526316
0.00014525639
0.00014525186
0.00014524902
0.00014524749
0.00014524703
0.00014524743
0.00014524855
0.00014525028
0.00014525249
0.00014525512
0.00014525801
0.00014526139
0.00014526361
0.00014527476
0.00014522261
0.00014544782
0.00010332232
2.0742944e-05
5.7651434e-05
5.6802536e-05
5.6428756e-05
5.6177802e-05
5.5986709e-05
5.5845558e-05
5.5738547e-05
5.5654027e-05
5.5585543e-05
5.5529094e-05
5.5481851e-05
5.5441756e-05
5.5407298e-05
5.5377353e-05
5.5351074e-05
5.5327803e-05
5.5307026e-05
5.5288332e-05
5.5271395e-05
5.5255946e-05
5.524177e-05
5.5228686e-05
5.5216543e-05
5.5205216e-05
5.5194598e-05
5.51846e-05
5.5175146e-05
5.5166169e-05
5.5157613e-05
5.514943e-05
5.5141578e-05
5.513402e-05
5.5126723e-05
5.5119659e-05
5.5112804e-05
5.5106136e-05
5.5099637e-05
5.5093289e-05
5.5087077e-05
5.508099e-05
5.5075014e-05
5.506914e-05
5.5063359e-05
5.5057662e-05
5.5052044e-05
5.5046497e-05
5.5041015e-05
5.5035595e-05
5.5030232e-05
5.5024922e-05
5.5019662e-05
5.5014449e-05
5.5009281e-05
5.5004157e-05
5.4999073e-05
5.499403e-05
5.4989025e-05
5.4984059e-05
5.497913e-05
5.4974239e-05
5.4969387e-05
5.4964565e-05
5.4959787e-05
5.4955045e-05
5.4950341e-05
5.4945675e-05
5.4941048e-05
5.4936462e-05
5.4931917e-05
5.4927414e-05
5.4922955e-05
5.4918541e-05
5.4914173e-05
5.4909853e-05
5.4905583e-05
5.4901363e-05
5.4897196e-05
5.4893084e-05
5.4889028e-05
5.4885031e-05
5.4881094e-05
5.4877219e-05
5.4873411e-05
5.4869671e-05
5.4866003e-05
5.4862425e-05
5.485888e-05
5.4856305e-05
5.4854688e-05
5.4853507e-05
5.4852579e-05
5.4851818e-05
5.4851175e-05
5.4850624e-05
5.4850146e-05
5.4849727e-05
5.4849357e-05
5.4849028e-05
5.4848735e-05
5.4848471e-05
5.4848232e-05
5.4848015e-05
5.4847818e-05
5.4847635e-05
5.4847467e-05
5.4847303e-05
5.484716e-05
5.4846945e-05
5.4846829e-05
5.4846623e-05
0.00014604402
0.00014522717
0.00014502129
0.00014494649
0.00014490675
0.00014488149
0.00014486431
0.00014485236
0.00014484403
0.00014483833
0.00014483461
0.00014483245
0.00014483151
0.00014483159
0.0001448325
0.0001448341
0.00014483628
0.00014483893
0.0001448419
0.00014484545
0.00014484764
0.0001448603
0.00014479986
0.00014508135
9.8466961e-05
2.0917275e-05
5.5955882e-05
5.5238857e-05
5.4921244e-05
5.4707715e-05
5.4545133e-05
5.4425162e-05
5.4334509e-05
5.4263076e-05
5.4205286e-05
5.4157718e-05
5.4117958e-05
5.4084245e-05
5.4055293e-05
5.4030144e-05
5.4008078e-05
5.3988538e-05
5.3971088e-05
5.3955382e-05
5.3941142e-05
5.3928143e-05
5.3916204e-05
5.3905173e-05
5.3894922e-05
5.3885348e-05
5.387636e-05
5.3867883e-05
5.3859855e-05
5.3852219e-05
5.384493e-05
5.3837946e-05
5.3831233e-05
5.382476e-05
5.38185e-05
5.381243e-05
5.380653e-05
5.3800782e-05
5.3795171e-05
5.3789682e-05
5.3784304e-05
5.3779026e-05
5.3773839e-05
5.3768734e-05
5.3763704e-05
5.3758743e-05
5.3753844e-05
5.3749004e-05
5.3744216e-05
5.3739479e-05
5.3734788e-05
5.373014e-05
5.3725534e-05
5.3720966e-05
5.3716436e-05
5.3711942e-05
5.3707482e-05
5.3703056e-05
5.3698663e-05
5.3694302e-05
5.3689974e-05
5.3685679e-05
5.3681417e-05
5.3677181e-05
5.3672984e-05
5.3668819e-05
5.3664686e-05
5.3660588e-05
5.3656525e-05
5.3652498e-05
5.3648507e-05
5.3644555e-05
5.3640641e-05
5.3636768e-05
5.3632937e-05
5.3629148e-05
5.3625405e-05
5.3621707e-05
5.3618056e-05
5.3614455e-05
5.3610905e-05
5.3607407e-05
5.3603964e-05
5.3600578e-05
5.359725e-05
5.3593985e-05
5.3590783e-05
5.3587662e-05
5.3584571e-05
5.3582365e-05
5.3581017e-05
5.3580044e-05
5.3579286e-05
5.3578667e-05
5.3578146e-05
5.3577701e-05
5.3577315e-05
5.3576979e-05
5.3576682e-05
5.3576419e-05
5.3576184e-05
5.3575974e-05
5.3575784e-05
5.3575611e-05
5.3575454e-05
5.3575309e-05
5.3575176e-05
5.3575045e-05
5.3574932e-05
5.3574757e-05
5.3574666e-05
5.35745e-05
0.0001457249
0.00014479063
0.0001445498
0.00014446067
0.0001444129
0.00014438237
0.00014436149
0.00014434684
0.00014433651
0.00014432931
0.00014432447
0.00014432146
0.00014431991
0.00014431954
0.00014432016
0.00014432159
0.00014432368
0.00014432635
0.00014432938
0.00014433312
0.00014433526
0.0001443498
0.00014427895
0.00014463124
9.2221412e-05
2.0544148e-05
5.3079333e-05
5.2482586e-05
5.2215657e-05
5.2036474e-05
5.190004e-05
5.1799527e-05
5.1723821e-05
5.1664308e-05
5.1616237e-05
5.1576726e-05
5.154374e-05
5.1515799e-05
5.1491818e-05
5.1470994e-05
5.1452726e-05
5.1436547e-05
5.1422094e-05
5.1409077e-05
5.1397267e-05
5.1386476e-05
5.1376553e-05
5.1367374e-05
5.1358833e-05
5.1350842e-05
5.1343329e-05
5.1336232e-05
5.1329498e-05
5.1323083e-05
5.1316947e-05
5.1311058e-05
5.1305387e-05
5.1299909e-05
5.1294602e-05
5.1289448e-05
5.128443e-05
5.1279533e-05
5.1274745e-05
5.1270055e-05
5.1265453e-05
5.1260932e-05
5.1256482e-05
5.1252097e-05
5.1247773e-05
5.1243503e-05
5.1239284e-05
5.123511e-05
5.123098e-05
5.1226889e-05
5.1222836e-05
5.1218818e-05
5.1214834e-05
5.1210881e-05
5.1206959e-05
5.1203067e-05
5.1199203e-05
5.1195368e-05
5.119156e-05
5.118778e-05
5.1184028e-05
5.1180304e-05
5.1176608e-05
5.1172936e-05
5.1169297e-05
5.1165685e-05
5.1162102e-05
5.1158549e-05
5.1155027e-05
5.1151537e-05
5.1148079e-05
5.1144655e-05
5.1141265e-05
5.1137911e-05
5.1134594e-05
5.1131315e-05
5.1128076e-05
5.1124878e-05
5.1121722e-05
5.111861e-05
5.1115543e-05
5.1112523e-05
5.1109551e-05
5.110663e-05
5.1103761e-05
5.1100947e-05
5.1098189e-05
5.1095502e-05
5.1092842e-05
5.1090976e-05
5.1089866e-05
5.1089077e-05
5.1088466e-05
5.1087969e-05
5.1087553e-05
5.1087198e-05
5.1086892e-05
5.1086625e-05
5.1086391e-05
5.1086183e-05
5.1085998e-05
5.1085832e-05
5.1085683e-05
5.1085548e-05
5.1085424e-05
5.1085311e-05
5.1085207e-05
5.1085104e-05
5.1085016e-05
5.1084876e-05
5.1084805e-05
5.1084673e-05
0.0001453415
0.00014426299
0.00014397879
0.00014387173
0.00014381387
0.0001437767
0.00014375116
0.0001437331
0.00014372023
0.00014371111
0.00014370482
0.00014370072
0.00014369836
0.00014369741
0.00014369762
0.00014369879
0.00014370076
0.0001437034
0.00014370648
0.00014371042
0.00014371245
0.00014372931
0.00014364556
0.00014408592
8.4834468e-05
1.9616751e-05
4.9122256e-05
4.8633311e-05
4.8411487e-05
4.826321e-05
4.8150393e-05
4.8067469e-05
4.8005217e-05
4.79564e-05
4.7917036e-05
4.7884729e-05
4.7857792e-05
4.7834996e-05
4.7815443e-05
4.7798469e-05
4.7783579e-05
4.7770389e-05
4.77586e-05
4.7747975e-05
4.7738326e-05
4.77295e-05
4.7721374e-05
4.7713847e-05
4.7706831e-05
4.7700257e-05
4.7694066e-05
4.7688206e-05
4.7682636e-05
4.7677319e-05
4.7672224e-05
4.7667325e-05
4.7662598e-05
4.7658024e-05
4.7653585e-05
4.7649266e-05
4.7645054e-05
4.7640938e-05
4.7636906e-05
4.7632952e-05
4.7629067e-05
4.7625244e-05
4.7621478e-05
4.7617763e-05
4.7614095e-05
4.761047e-05
4.7606884e-05
4.7603335e-05
4.759982e-05
4.7596337e-05
4.7592883e-05
4.7589457e-05
4.7586059e-05
4.7582686e-05
4.7579338e-05
4.7576015e-05
4.7572715e-05
4.7569439e-05
4.7566186e-05
4.7562957e-05
4.7559751e-05
4.7556568e-05
4.755341e-05
4.7550273e-05
4.7547163e-05
4.7544077e-05
4.7541017e-05
4.7537982e-05
4.7534974e-05
4.7531994e-05
4.7529042e-05
4.7526119e-05
4.7523226e-05
4.7520364e-05
4.7517535e-05
4.751474e-05
4.7511979e-05
4.7509254e-05
4.7506566e-05
4.7503916e-05
4.7501306e-05
4.7498737e-05
4.7496211e-05
4.7493728e-05
4.7491291e-05
4.7488902e-05
4.7486561e-05
4.7484282e-05
4.7482027e-05
4.7480471e-05
4.7479572e-05
4.747894e-05
4.7478455e-05
4.7478063e-05
4.7477736e-05
4.7477458e-05
4.7477218e-05
4.747701e-05
4.7476827e-05
4.7476666e-05
4.7476523e-05
4.7476394e-05
4.7476279e-05
4.7476174e-05
4.7476079e-05
4.7475992e-05
4.7475911e-05
4.7475832e-05
4.7475764e-05
4.7475653e-05
4.74756e-05
4.7475495e-05
0.00014488617
0.00014363209
0.00014329459
0.00014316528
0.00014309484
0.00014304938
0.00014301798
0.00014299563
0.00014297956
0.00014296802
0.00014295989
0.00014295439
0.00014295097
0.00014294925
0.00014294891
0.00014294973
0.00014295148
0.00014295405
0.00014295714
0.00014296129
0.00014296314
0.00014298282
0.0001428832
0.0001434322
7.6577564e-05
1.8166013e-05
4.4246075e-05
4.3851913e-05
4.3669603e-05
4.3548629e-05
4.3456803e-05
4.3389518e-05
4.3339184e-05
4.3299818e-05
4.3268134e-05
4.3242172e-05
4.3220555e-05
4.3202279e-05
4.3186613e-05
4.3173017e-05
4.316109e-05
4.3150521e-05
4.3141069e-05
4.3132544e-05
4.3124793e-05
4.3117695e-05
4.311115e-05
4.3105077e-05
4.3099408e-05
4.3094086e-05
4.3089064e-05
4.3084302e-05
4.3079766e-05
4.3075427e-05
4.3071262e-05
4.3067248e-05
4.3063369e-05
4.3059608e-05
4.3055951e-05
4.3052386e-05
4.3048904e-05
4.3045495e-05
4.3042152e-05
4.3038869e-05
4.3035638e-05
4.3032455e-05
4.3029316e-05
4.3026216e-05
4.3023153e-05
4.3020122e-05
4.3017123e-05
4.3014152e-05
4.3011207e-05
4.3008287e-05
4.300539e-05
4.3002516e-05
4.2999663e-05
4.2996831e-05
4.2994019e-05
4.2991228e-05
4.2988455e-05
4.2985702e-05
4.2982969e-05
4.2980255e-05
4.2977561e-05
4.2974886e-05
4.2972233e-05
4.2969597e-05
4.2966984e-05
4.2964392e-05
4.2961821e-05
4.2959273e-05
4.2956747e-05
4.2954245e-05
4.2951767e-05
4.2949314e-05
4.2946888e-05
4.2944488e-05
4.2942116e-05
4.2939772e-05
4.2937459e-05
4.2935177e-05
4.2932927e-05
4.2930709e-05
4.2928526e-05
4.2926378e-05
4.2924266e-05
4.2922193e-05
4.2920158e-05
4.2918164e-05
4.2916212e-05
4.2914312e-05
4.2912432e-05
4.2911157e-05
4.291044e-05
4.2909943e-05
4.2909565e-05
4.2909261e-05
4.2909008e-05
4.2908794e-05
4.290861e-05
4.290845e-05
4.290831e-05
4.2908187e-05
4.2908078e-05
4.290798e-05
4.2907892e-05
4.2907813e-05
4.2907741e-05
4.2907675e-05
4.2907614e-05
4.2907554e-05
4.2907502e-05
4.2907416e-05
4.2907376e-05
4.2907296e-05
0.00014435055
0.00014288441
0.00014248184
0.00014232512
0.00014223909
0.00014218334
0.00014214465
0.00014211696
0.00014209687
0.00014208228
0.00014207181
0.00014206453
0.00014205976
0.00014205703
0.00014205596
0.00014205627
0.00014205772
0.00014206013
0.00014206319
0.00014206753
0.0001420691
0.00014209219
0.00014197321
0.00014265525
6.7752174e-05
1.6263889e-05
3.8671663e-05
3.835907e-05
3.8210799e-05
3.8113508e-05
3.8040019e-05
3.7986394e-05
3.7946437e-05
3.791528e-05
3.7890258e-05
3.7869793e-05
3.785278e-05
3.7838412e-05
3.7826104e-05
3.7815426e-05
3.7806058e-05
3.7797753e-05
3.7790321e-05
3.7783611e-05
3.7777504e-05
3.7771902e-05
3.7766729e-05
3.7761922e-05
3.7757425e-05
3.7753195e-05
3.7749195e-05
3.7745394e-05
3.7741766e-05
3.7738289e-05
3.7734943e-05
3.7731713e-05
3.7728585e-05
3.7725545e-05
3.7722585e-05
3.7719694e-05
3.7716865e-05
3.7714092e-05
3.7711368e-05
3.7708688e-05
3.7706048e-05
3.7703445e-05
3.7700874e-05
3.7698333e-05
3.7695819e-05
3.7693331e-05
3.7690866e-05
3.7688422e-05
3.7685999e-05
3.7683595e-05
3.768121e-05
3.7678842e-05
3.7676492e-05
3.7674157e-05
3.7671839e-05
3.7669538e-05
3.7667252e-05
3.7664982e-05
3.7662728e-05
3.7660491e-05
3.765827e-05
3.7656065e-05
3.7653878e-05
3.7651706e-05
3.7649554e-05
3.7647419e-05
3.7645301e-05
3.7643203e-05
3.7641123e-05
3.7639063e-05
3.7637024e-05
3.7635006e-05
3.763301e-05
3.7631036e-05
3.7629086e-05
3.7627161e-05
3.7625261e-05
3.7623387e-05
3.762154e-05
3.7619721e-05
3.7617931e-05
3.7616171e-05
3.7614441e-05
3.7612743e-05
3.7611078e-05
3.7609447e-05
3.7607851e-05
3.7606299e-05
3.7604763e-05
3.7603737e-05
3.7603177e-05
3.7602794e-05
3.7602505e-05
3.7602274e-05
3.7602082e-05
3.760192e-05
3.7601782e-05
3.7601662e-05
3.7601557e-05
3.7601465e-05
3.7601384e-05
3.7601311e-05
3.7601246e-05
3.7601187e-05
3.7601133e-05
3.7601084e-05
3.7601039e-05
3.7600994e-05
3.7600956e-05
3.7600891e-05
3.7600861e-05
3.76008e-05
0.00014372571
0.00014200507
0.00014152356
0.00014133325
0.00014122805
0.00014115959
0.00014111187
0.00014107754
0.00014105245
0.00014103404
0.00014102065
0.00014101111
0.00014100461
0.00014100057
0.00014099853
0.00014099816
0.00014099914
0.0001410013
0.00014100423
0.00014100874
0.00014100991
0.00014103709
0.00014089463
0.00014173856
5.8686219e-05
1.4022006e-05
3.2671022e-05
3.2426954e-05
3.2307519e-05
3.2230377e-05
3.2172609e-05
3.2130691e-05
3.2099598e-05
3.2075439e-05
3.2056089e-05
3.2040299e-05
3.2027197e-05
3.2016146e-05
3.2006688e-05
3.1998486e-05
3.199129e-05
3.1984908e-05
3.1979193e-05
3.1974027e-05
3.1969319e-05
3.1964995e-05
3.1960995e-05
3.1957269e-05
3.1953778e-05
3.1950486e-05
3.1947367e-05
3.1944396e-05
3.1941554e-05
3.1938824e-05
3.1936192e-05
3.1933644e-05
3.1931172e-05
3.1928766e-05
3.1926417e-05
3.1924119e-05
3.1921867e-05
3.1919655e-05
3.191748e-05
3.1915337e-05
3.1913223e-05
3.1911136e-05
3.1909073e-05
3.1907032e-05
3.1905011e-05
3.1903009e-05
3.1901025e-05
3.1899057e-05
3.1897104e-05
3.1895167e-05
3.1893243e-05
3.1891333e-05
3.1889437e-05
3.1887554e-05
3.1885684e-05
3.1883827e-05
3.1881983e-05
3.1880152e-05
3.1878334e-05
3.187653e-05
3.187474e-05
3.1872963e-05
3.1871201e-05
3.1869451e-05
3.1867717e-05
3.1865998e-05
3.1864293e-05
3.1862604e-05
3.186093e-05
3.1859272e-05
3.1857632e-05
3.1856009e-05
3.1854404e-05
3.1852818e-05
3.1851251e-05
3.1849705e-05
3.184818e-05
3.1846677e-05
3.1845196e-05
3.1843739e-05
3.1842305e-05
3.1840896e-05
3.1839512e-05
3.1838154e-05
3.1836824e-05
3.1835521e-05
3.1834247e-05
3.1833008e-05
3.1831783e-05
3.1830976e-05
3.1830547e-05
3.1830259e-05
3.1830043e-05
3.1829871e-05
3.182973e-05
3.182961e-05
3.1829509e-05
3.1829421e-05
3.1829344e-05
3.1829277e-05
3.1829217e-05
3.1829164e-05
3.1829117e-05
3.1829074e-05
3.1829035e-05
3.1829e-05
3.1828967e-05
3.1828934e-05
3.1828907e-05
3.1828858e-05
3.1828837e-05
3.1828792e-05
0.00014300221
0.00014097789
0.00014040116
0.00014016994
0.00014004124
0.00013995717
0.00013989835
0.00013985581
0.00013982453
0.00013980139
0.00013978432
0.00013977194
0.00013976325
0.00013975753
0.00013975423
0.00013975293
0.00013975326
0.00013975502
0.00013975771
0.00013976235
0.00013976293
0.00013979498
0.00013962422
0.00014066397
4.9720618e-05
1.1584551e-05
2.6551158e-05
2.6363188e-05
2.626777e-05
2.6207431e-05
2.6162864e-05
2.6130768e-05
2.6107089e-05
2.608877e-05
2.6074149e-05
2.6062253e-05
2.6052405e-05
2.6044113e-05
2.6037024e-05
2.6030881e-05
2.6025491e-05
2.6020711e-05
2.6016426e-05
2.6012549e-05
2.6009011e-05
2.6005756e-05
2.6002739e-05
2.5999923e-05
2.5997278e-05
2.599478e-05
2.5992406e-05
2.5990139e-05
2.5987966e-05
2.5985873e-05
2.598385e-05
2.5981889e-05
2.5979981e-05
2.5978119e-05
2.5976299e-05
2.5974515e-05
2.5972764e-05
2.597104e-05
2.5969343e-05
2.5967669e-05
2.5966015e-05
2.5964381e-05
2.5962764e-05
2.5961162e-05
2.5959575e-05
2.5958003e-05
2.5956443e-05
2.5954895e-05
2.5953359e-05
2.5951834e-05
2.595032e-05
2.5948817e-05
2.5947325e-05
2.5945843e-05
2.5944371e-05
2.594291e-05
2.594146e-05
2.594002e-05
2.5938591e-05
2.5937174e-05
2.5935767e-05
2.5934372e-05
2.5932989e-05
2.5931616e-05
2.5930256e-05
2.5928908e-05
2.5927571e-05
2.5926247e-05
2.5924935e-05
2.5923636e-05
2.5922351e-05
2.592108e-05
2.5919824e-05
2.5918583e-05
2.5917358e-05
2.5916149e-05
2.5914958e-05
2.5913785e-05
2.5912629e-05
2.5911493e-05
2.5910376e-05
2.5909279e-05
2.5908202e-05
2.5907146e-05
2.5906112e-05
2.59051e-05
2.5904111e-05
2.5903149e-05
2.5902199e-05
2.5901581e-05
2.5901262e-05
2.5901051e-05
2.5900894e-05
2.590077e-05
2.5900668e-05
2.5900582e-05
2.5900509e-05
2.5900447e-05
2.5900392e-05
2.5900344e-05
2.5900302e-05
2.5900265e-05
2.5900231e-05
2.5900201e-05
2.5900174e-05
2.5900148e-05
2.5900125e-05
2.5900102e-05
2.5900083e-05
2.5900048e-05
2.5900034e-05
2.5900001e-05
0.00014217033
0.00013978557
0.00013909456
0.00013881375
0.00013865645
0.00013855331
0.00013848088
0.00013842827
0.00013838937
0.00013836036
0.00013833874
0.00013832281
0.00013831135
0.00013830348
0.00013829854
0.00013829601
0.00013829545
0.00013829662
0.00013829892
0.0001383036
0.00013830337
0.00013834119
0.00013813653
0.00013941171
4.1187704e-05
9.1150866e-06
2.0630263e-05
2.0486974e-05
2.0411254e-05
2.0364641e-05
2.0330916e-05
2.0306871e-05
2.0289248e-05
2.0275689e-05
2.0264917e-05
2.0256185e-05
2.024898e-05
2.0242927e-05
2.0237762e-05
2.023329e-05
2.0229368e-05
2.022589e-05
2.022277e-05
2.0219945e-05
2.0217362e-05
2.0214983e-05
2.0212772e-05
2.0210705e-05
2.0208759e-05
2.0206915e-05
2.0205159e-05
2.0203478e-05
2.0201862e-05
2.0200302e-05
2.019879e-05
2.019732e-05
2.0195887e-05
2.0194486e-05
2.0193114e-05
2.0191766e-05
2.0190439e-05
2.0189132e-05
2.0187843e-05
2.0186569e-05
2.018531e-05
2.0184064e-05
2.018283e-05
2.0181607e-05
2.0180395e-05
2.0179192e-05
2.0177999e-05
2.0176815e-05
2.017564e-05
2.0174473e-05
2.0173314e-05
2.0172164e-05
2.0171022e-05
2.0169889e-05
2.0168764e-05
2.0167648e-05
2.016654e-05
2.0165441e-05
2.0164351e-05
2.0163271e-05
2.0162199e-05
2.0161137e-05
2.0160084e-05
2.0159039e-05
2.0158005e-05
2.0156979e-05
2.0155963e-05
2.0154956e-05
2.0153959e-05
2.0152973e-05
2.0151997e-05
2.0151032e-05
2.0150078e-05
2.0149137e-05
2.0148209e-05
2.0147293e-05
2.0146392e-05
2.0145504e-05
2.0144632e-05
2.0143774e-05
2.0142932e-05
2.0142105e-05
2.0141295e-05
2.01405e-05
2.0139723e-05
2.0138963e-05
2.013822e-05
2.0137498e-05
2.0136785e-05
2.0136327e-05
2.0136097e-05
2.0135947e-05
2.0135836e-05
2.0135749e-05
2.0135678e-05
2.0135619e-05
2.0135569e-05
2.0135525e-05
2.0135488e-05
2.0135455e-05
2.0135426e-05
2.01354e-05
2.0135378e-05
2.0135357e-05
2.0135338e-05
2.0135321e-05
2.0135306e-05
2.013529e-05
2.0135277e-05
2.0135252e-05
2.0135243e-05
2.013522e-05
0.00014122021
0.00013840985
0.0001375824
0.0001372418
0.00013704984
0.00013692351
0.00013683451
0.0001367696
0.00013672135
0.00013668513
0.00013665789
0.00013663754
0.00013662262
0.00013661204
0.00013660499
0.00013660085
0.00013659909
0.00013659942
0.00013660112
0.00013660572
0.0001366044
0.00013664901
0.00013640397
0.00013796049
3.3384432e-05
6.7780826e-06
1.5207533e-05
1.5098893e-05
1.5039134e-05
1.5003516e-05
1.4978484e-05
1.4960875e-05
1.4948069e-05
1.4938287e-05
1.4930561e-05
1.4924331e-05
1.4919211e-05
1.4914925e-05
1.4911277e-05
1.4908125e-05
1.4905364e-05
1.4902915e-05
1.4900718e-05
1.4898728e-05
1.4896906e-05
1.4895224e-05
1.4893658e-05
1.4892191e-05
1.4890806e-05
1.488949e-05
1.4888233e-05
1.4887027e-05
1.4885864e-05
1.4884738e-05