/*--------------------------------*- C++ -*----------------------------------*\
| =========                 |                                                 |
| \\      /  F ield         | OpenFOAM: The Open Source CFD Toolbox           |
|  \\    /   O peration     | Version:  2206                                  |
|   \\  /    A nd           | Website:  www.openfoam.com                      |
|    \\/     M anipulation  |                                                 |
\*---------------------------------------------------------------------------*/
FoamFile
{
    version     2.0;
    format      ascii;
    arch        "LSB;label=32;scalar=64";
    class       volScalarField;
    location    "300";
    object      nut;
}
// * * * * * * * * * * * * * * * * * * * * * * * * * * * * * * * * * * * * * //

dimensions      [0 2 -1 0 0 0 0];

internalField   nonuniform List<scalar> 
13056
(
6.8069767e-09
6.7643466e-09
6.7552978e-09
6.7522827e-09
6.7507145e-09
6.7497328e-09
6.7490798e-09
6.7486388e-09
6.7483444e-09
6.748156e-09
6.7480471e-09
6.7479995e-09
6.7479997e-09
6.7480374e-09
6.7481031e-09
6.7481873e-09
6.7482766e-09
6.7483565e-09
6.7483755e-09
6.7483288e-09
6.7477383e-09
6.7473992e-09
6.7412462e-09
4.8383314e-09
6.3739672e-11
2.5132407e-11
4.8727127e-11
4.7690052e-11
4.7215781e-11
4.6900497e-11
4.6664422e-11
4.648715e-11
4.6349707e-11
4.6239608e-11
4.6149444e-11
4.6074357e-11
4.601092e-11
4.5956641e-11
4.5909676e-11
4.586864e-11
4.5832471e-11
4.5800343e-11
4.57716e-11
4.5745718e-11
4.5722272e-11
4.5700912e-11
4.5681354e-11
4.5663356e-11
4.564672e-11
4.5631275e-11
4.5616876e-11
4.5603402e-11
4.5590747e-11
4.5578818e-11
4.5567537e-11
4.5556834e-11
4.554665e-11
4.5536931e-11
4.552763e-11
4.5518707e-11
4.5510124e-11
4.5501851e-11
4.5493856e-11
4.5486116e-11
4.5478606e-11
4.5471307e-11
4.54642e-11
4.5457268e-11
4.5450496e-11
4.5443872e-11
4.5437382e-11
4.5431017e-11
4.5424766e-11
4.541862e-11
4.5412572e-11
4.5406614e-11
4.540074e-11
4.5394944e-11
4.5389221e-11
4.5383567e-11
4.5377976e-11
4.5372446e-11
4.5366974e-11
4.5361555e-11
4.5356188e-11
4.5350871e-11
4.5345603e-11
4.5340376e-11
4.5335198e-11
4.5330063e-11
4.532497e-11
4.531992e-11
4.5314911e-11
4.5309943e-11
4.5305017e-11
4.5300132e-11
4.5295289e-11
4.5290488e-11
4.528573e-11
4.5281016e-11
4.5276346e-11
4.5271721e-11
4.5267143e-11
4.5262613e-11
4.5258133e-11
4.5253703e-11
4.5249327e-11
4.5245005e-11
4.5240741e-11
4.5236537e-11
4.5232396e-11
4.5228339e-11
4.5224311e-11
4.522104e-11
4.5218638e-11
4.5216749e-11
4.5215196e-11
4.521388e-11
4.5212744e-11
4.5211749e-11
4.521087e-11
4.5210088e-11
4.5209388e-11
4.5208757e-11
4.5208187e-11
4.5207668e-11
4.5207195e-11
4.5206762e-11
4.5206363e-11
4.5205992e-11
4.5205649e-11
4.5205317e-11
4.5205021e-11
4.5204636e-11
4.520439e-11
4.5203996e-11
6.8065741e-09
6.7634658e-09
6.7542877e-09
6.7512213e-09
6.7496247e-09
6.7486244e-09
6.7479585e-09
6.7475082e-09
6.747207e-09
6.7470138e-09
6.7469014e-09
6.7468514e-09
6.7468504e-09
6.7468877e-09
6.7469541e-09
6.7470404e-09
6.7471337e-09
6.7472204e-09
6.7472528e-09
6.7472272e-09
6.7466976e-09
6.7464381e-09
6.7407612e-09
4.8382503e-09
6.1045774e-11
9.6617721e-12
3.8225487e-11
3.7024333e-11
3.6479978e-11
3.6117487e-11
3.5845618e-11
3.5641729e-11
3.5483976e-11
3.5357792e-11
3.5254598e-11
3.5168781e-11
3.5096379e-11
3.5034508e-11
3.4981043e-11
3.4934381e-11
3.48933e-11
3.4856845e-11
3.4824262e-11
3.4794948e-11
3.4768412e-11
3.4744256e-11
3.4722149e-11
3.4701819e-11
3.4683033e-11
3.4665599e-11
3.4649352e-11
3.463415e-11
3.4619873e-11
3.4606416e-11
3.459369e-11
3.4581615e-11
3.4570124e-11
3.4559154e-11
3.4548654e-11
3.4538577e-11
3.4528881e-11
3.4519529e-11
3.4510489e-11
3.4501732e-11
3.4493232e-11
3.4484966e-11
3.4476912e-11
3.4469052e-11
3.446137e-11
3.445385e-11
3.444648e-11
3.4439246e-11
3.4432137e-11
3.4425145e-11
3.441826e-11
3.4411474e-11
3.440478e-11
3.4398172e-11
3.4391644e-11
3.4385191e-11
3.4378808e-11
3.4372492e-11
3.4366239e-11
3.4360045e-11
3.4353908e-11
3.4347826e-11
3.4341799e-11
3.4335816e-11
3.4329889e-11
3.432401e-11
3.4318178e-11
3.4312393e-11
3.4306655e-11
3.4300964e-11
3.429532e-11
3.4289723e-11
3.4284174e-11
3.4278673e-11
3.4273221e-11
3.426782e-11
3.426247e-11
3.4257172e-11
3.4251929e-11
3.4246742e-11
3.4241612e-11
3.4236542e-11
3.4231534e-11
3.422659e-11
3.4221713e-11
3.4216907e-11
3.4212175e-11
3.4207542e-11
3.4202941e-11
3.4199231e-11
3.4196538e-11
3.4194438e-11
3.4192723e-11
3.4191276e-11
3.4190031e-11
3.4188944e-11
3.4187988e-11
3.4187138e-11
3.418638e-11
3.4185698e-11
3.4185083e-11
3.4184525e-11
3.4184016e-11
3.4183551e-11
3.4183123e-11
3.4182727e-11
3.418236e-11
3.4182004e-11
3.4181689e-11
3.4181271e-11
3.4181008e-11
3.4180587e-11
6.8052729e-09
6.7607024e-09
6.7511286e-09
6.7479054e-09
6.7462213e-09
6.7451641e-09
6.7444585e-09
6.7439796e-09
6.7436574e-09
6.7434486e-09
6.7433249e-09
6.7432669e-09
6.7432604e-09
6.7432947e-09
6.7433602e-09
6.7434477e-09
6.7435451e-09
6.7436395e-09
6.7436868e-09
6.7436854e-09
6.7432214e-09
6.7430589e-09
6.7378657e-09
4.8380081e-09
5.849829e-11
7.4607752e-12
3.3501722e-11
3.2457973e-11
3.1990686e-11
3.1679621e-11
3.144621e-11
3.1271725e-11
3.1137242e-11
3.102995e-11
3.0942388e-11
3.0869717e-11
3.0808515e-11
3.0756302e-11
3.0711245e-11
3.0671971e-11
3.0637432e-11
3.060681e-11
3.0579462e-11
3.0554873e-11
3.0532625e-11
3.0512378e-11
3.0493854e-11
3.0476819e-11
3.0461079e-11
3.0446468e-11
3.0432848e-11
3.04201e-11
3.0408122e-11
3.0396826e-11
3.0386136e-11
3.0375986e-11
3.0366319e-11
3.0357083e-11
3.0348235e-11
3.0339735e-11
3.0331548e-11
3.0323645e-11
3.0315998e-11
3.0308582e-11
3.0301377e-11
3.0294363e-11
3.0287522e-11
3.028084e-11
3.0274303e-11
3.0267898e-11
3.0261614e-11
3.0255441e-11
3.0249371e-11
3.0243394e-11
3.0237505e-11
3.0231697e-11
3.0225964e-11
3.02203e-11
3.0214702e-11
3.0209165e-11
3.0203685e-11
3.019826e-11
3.0192887e-11
3.0187563e-11
3.0182287e-11
3.0177056e-11
3.0171871e-11
3.0166723e-11
3.0161622e-11
3.0156562e-11
3.0151542e-11
3.0146562e-11
3.0141623e-11
3.0136724e-11
3.0131866e-11
3.0127048e-11
3.0122273e-11
3.011754e-11
3.011285e-11
3.0108205e-11
3.0103605e-11
3.0099051e-11
3.0094546e-11
3.009009e-11
3.0085686e-11
3.0081334e-11
3.0077038e-11
3.0072799e-11
3.006862e-11
3.0064504e-11
3.0060453e-11
3.005649e-11
3.0052556e-11
3.0049425e-11
3.0047195e-11
3.0045474e-11
3.0044077e-11
3.0042904e-11
3.0041898e-11
3.0041022e-11
3.0040254e-11
3.0039573e-11
3.0038966e-11
3.0038422e-11
3.0037931e-11
3.0037487e-11
3.0037083e-11
3.0036714e-11
3.0036375e-11
3.0036062e-11
3.0035772e-11
3.003549e-11
3.0035241e-11
3.0034905e-11
3.0034698e-11
3.0034363e-11
6.8030357e-09
6.7559552e-09
6.7457005e-09
6.7422068e-09
6.7403715e-09
6.7392157e-09
6.7384414e-09
6.7379128e-09
6.7375541e-09
6.7373182e-09
6.7371745e-09
6.737102e-09
6.7370854e-09
6.7371132e-09
6.7371755e-09
6.737263e-09
6.7373636e-09
6.7374651e-09
6.7375266e-09
6.7375485e-09
6.7371427e-09
6.737081e-09
6.732283e-09
4.8375082e-09
5.5395912e-11
6.6930296e-12
3.0562633e-11
2.9691103e-11
2.9304799e-11
2.904717e-11
2.8853552e-11
2.8709249e-11
2.8598414e-11
2.8510171e-11
2.8438275e-11
2.8378702e-11
2.8328606e-11
2.8285924e-11
2.8249135e-11
2.8217099e-11
2.8188949e-11
2.8164008e-11
2.8141746e-11
2.8121736e-11
2.8103636e-11
2.8087166e-11
2.8072096e-11
2.8058236e-11
2.8045425e-11
2.8033529e-11
2.8022434e-11
2.8012042e-11
2.8002271e-11
2.799305e-11
2.7984315e-11
2.7976013e-11
2.7968099e-11
2.796053e-11
2.7953271e-11
2.7946289e-11
2.7939557e-11
2.7933051e-11
2.7926748e-11
2.7920629e-11
2.7914677e-11
2.7908876e-11
2.7903212e-11
2.7897674e-11
2.789225e-11
2.788693e-11
2.7881706e-11
2.7876569e-11
2.7871513e-11
2.7866532e-11
2.7861619e-11
2.7856769e-11
2.7851979e-11
2.7847245e-11
2.7842562e-11
2.7837927e-11
2.7833339e-11
2.7828794e-11
2.782429e-11
2.7819826e-11
2.7815401e-11
2.7811013e-11
2.7806662e-11
2.7802341e-11
2.779806e-11
2.7793811e-11
2.7789596e-11
2.7785415e-11
2.7781268e-11
2.7777155e-11
2.7773076e-11
2.7769033e-11
2.7765025e-11
2.7761053e-11
2.7757119e-11
2.7753222e-11
2.7749365e-11
2.7745548e-11
2.7741772e-11
2.773804e-11
2.7734351e-11
2.7730709e-11
2.7727115e-11
2.772357e-11
2.7720077e-11
2.7716639e-11
2.7713258e-11
2.7709952e-11
2.7706671e-11
2.7704099e-11
2.7702303e-11
2.7700931e-11
2.7699825e-11
2.76989e-11
2.769811e-11
2.7697424e-11
2.7696823e-11
2.7696293e-11
2.7695821e-11
2.7695398e-11
2.7695018e-11
2.7694675e-11
2.7694363e-11
2.7694078e-11
2.7693817e-11
2.7693575e-11
2.7693352e-11
2.7693135e-11
2.7692944e-11
2.7692681e-11
2.7692522e-11
2.7692263e-11
6.7998047e-09
6.7490641e-09
6.7378124e-09
6.7339209e-09
6.731863e-09
6.7305619e-09
6.729686e-09
6.7290839e-09
6.728671e-09
6.7283949e-09
6.7282213e-09
6.7281268e-09
6.7280947e-09
6.7281122e-09
6.7281685e-09
6.7282541e-09
6.7283568e-09
6.7284649e-09
6.7285398e-09
6.7285848e-09
6.7282308e-09
6.7282767e-09
6.7237927e-09
4.8366924e-09
5.1791219e-11
6.3216114e-12
2.8244865e-11
2.7526868e-11
2.7211606e-11
2.7000637e-11
2.6841729e-11
2.6723729e-11
2.6633385e-11
2.6561576e-11
2.6503148e-11
2.6454801e-11
2.6414199e-11
2.6379644e-11
2.634989e-11
2.6324e-11
2.6301266e-11
2.6281134e-11
2.626317e-11
2.6247027e-11
2.6232426e-11
2.6219138e-11
2.6206977e-11
2.6195789e-11
2.6185443e-11
2.6175829e-11
2.6166857e-11
2.6158447e-11
2.6150532e-11
2.6143054e-11
2.6135964e-11
2.6129218e-11
2.612278e-11
2.6116615e-11
2.6110695e-11
2.6104994e-11
2.609949e-11
2.6094164e-11
2.6088998e-11
2.6083977e-11
2.6079086e-11
2.6074314e-11
2.6069649e-11
2.6065083e-11
2.6060606e-11
2.605621e-11
2.6051889e-11
2.6047636e-11
2.6043446e-11
2.6039315e-11
2.6035237e-11
2.6031209e-11
2.6027227e-11
2.6023289e-11
2.6019391e-11
2.6015532e-11
2.6011709e-11
2.6007921e-11
2.6004166e-11
2.6000443e-11
2.599675e-11
2.5993088e-11
2.5989456e-11
2.5985849e-11
2.5982274e-11
2.5978726e-11
2.5975206e-11
2.5971714e-11
2.5968251e-11
2.5964816e-11
2.5961411e-11
2.5958035e-11
2.5954689e-11
2.5951374e-11
2.5948091e-11
2.594484e-11
2.5941624e-11
2.5938441e-11
2.5935295e-11
2.5932185e-11
2.5929114e-11
2.5926082e-11
2.5923091e-11
2.5920143e-11
2.591724e-11
2.5914384e-11
2.5911577e-11
2.5908834e-11
2.5906113e-11
2.5904011e-11
2.5902576e-11
2.590149e-11
2.5900621e-11
2.5899898e-11
2.5899281e-11
2.5898748e-11
2.5898283e-11
2.5897872e-11
2.5897508e-11
2.5897183e-11
2.589689e-11
2.5896626e-11
2.5896387e-11
2.5896169e-11
2.5895969e-11
2.5895785e-11
2.5895614e-11
2.5895448e-11
2.5895303e-11
2.5895098e-11
2.5894977e-11
2.5894778e-11
6.7955036e-09
6.7398097e-09
6.7272016e-09
6.722766e-09
6.7204029e-09
6.7189022e-09
6.7178866e-09
6.7171833e-09
6.7166956e-09
6.7163637e-09
6.7161485e-09
6.7160233e-09
6.715969e-09
6.7159712e-09
6.7160183e-09
6.7160997e-09
6.7162031e-09
6.716317e-09
6.7164047e-09
6.7164724e-09
6.7161646e-09
6.7163277e-09
6.7120797e-09
4.8354725e-09
4.7816331e-11
6.0675267e-12
2.6092779e-11
2.5507076e-11
2.5252436e-11
2.5081286e-11
2.4951969e-11
2.485647e-11
2.4783548e-11
2.4725656e-11
2.4678601e-11
2.463971e-11
2.4607085e-11
2.4579347e-11
2.4555482e-11
2.4534731e-11
2.4516518e-11
2.4500396e-11
2.4486013e-11
2.4473089e-11
2.4461397e-11
2.4450754e-11
2.444101e-11
2.4432041e-11
2.4423741e-11
2.4416023e-11
2.4408814e-11
2.4402049e-11
2.4395677e-11
2.4389649e-11
2.4383927e-11
2.4378476e-11
2.4373266e-11
2.4368271e-11
2.4363468e-11
2.4358837e-11
2.435436e-11
2.4350021e-11
2.4345807e-11
2.4341705e-11
2.4337706e-11
2.4333798e-11
2.4329974e-11
2.4326226e-11
2.4322547e-11
2.4318931e-11
2.4315373e-11
2.4311868e-11
2.4308411e-11
2.4305e-11
2.4301631e-11
2.42983e-11
2.4295005e-11
2.4291744e-11
2.4288515e-11
2.4285317e-11
2.4282146e-11
2.4279004e-11
2.4275887e-11
2.4272796e-11
2.426973e-11
2.4266688e-11
2.4263671e-11
2.4260674e-11
2.4257703e-11
2.4254755e-11
2.425183e-11
2.4248928e-11
2.424605e-11
2.4243196e-11
2.4240367e-11
2.4237562e-11
2.4234783e-11
2.4232031e-11
2.4229305e-11
2.4226607e-11
2.4223938e-11
2.4221298e-11
2.4218689e-11
2.4216111e-11
2.4213567e-11
2.4211056e-11
2.420858e-11
2.4206141e-11
2.420374e-11
2.420138e-11
2.4199061e-11
2.4196797e-11
2.4194551e-11
2.4192844e-11
2.4191704e-11
2.4190851e-11
2.4190173e-11
2.4189611e-11
2.4189134e-11
2.4188723e-11
2.4188364e-11
2.4188049e-11
2.418777e-11
2.4187521e-11
2.4187298e-11
2.4187097e-11
2.4186914e-11
2.4186749e-11
2.4186597e-11
2.4186457e-11
2.4186328e-11
2.4186202e-11
2.4186092e-11
2.4185933e-11
2.4185842e-11
2.4185689e-11
6.7900395e-09
6.7279135e-09
6.7135326e-09
6.7083815e-09
6.7056158e-09
6.7038514e-09
6.7026509e-09
6.7018134e-09
6.7012262e-09
6.7008198e-09
6.7005488e-09
6.700382e-09
6.7002974e-09
6.7002785e-09
6.7003119e-09
6.7003861e-09
6.7004883e-09
6.7006068e-09
6.7007063e-09
6.7007967e-09
6.7005295e-09
6.7008226e-09
6.6967319e-09
4.8337264e-09
4.3587947e-11
5.8177292e-12
2.3905318e-11
2.3432617e-11
2.3229276e-11
2.3092107e-11
2.2987913e-11
2.2910911e-11
2.2852322e-11
2.2805921e-11
2.2768268e-11
2.2737194e-11
2.2711161e-11
2.2689051e-11
2.2670045e-11
2.2653529e-11
2.2639041e-11
2.2626219e-11
2.2614781e-11
2.2604502e-11
2.2595201e-11
2.2586732e-11
2.2578973e-11
2.2571827e-11
2.2565209e-11
2.2559049e-11
2.2553288e-11
2.2547877e-11
2.2542774e-11
2.253794e-11
2.2533345e-11
2.2528962e-11
2.2524767e-11
2.2520739e-11
2.2516861e-11
2.2513115e-11
2.2509489e-11
2.250597e-11
2.2502548e-11
2.2499212e-11
2.2495955e-11
2.2492769e-11
2.2489647e-11
2.2486583e-11
2.2483573e-11
2.2480611e-11
2.2477694e-11
2.2474818e-11
2.2471979e-11
2.2469174e-11
2.2466402e-11
2.246366e-11
2.2460946e-11
2.2458258e-11
2.2455595e-11
2.2452956e-11
2.2450339e-11
2.2447744e-11
2.244517e-11
2.2442616e-11
2.2440082e-11
2.2437567e-11
2.2435073e-11
2.2432595e-11
2.2430139e-11
2.2427701e-11
2.2425282e-11
2.2422882e-11
2.2420503e-11
2.2418143e-11
2.2415804e-11
2.2413486e-11
2.2411189e-11
2.2408915e-11
2.2406663e-11
2.2404435e-11
2.2402232e-11
2.2400053e-11
2.2397901e-11
2.2395775e-11
2.2393677e-11
2.2391608e-11
2.2389569e-11
2.2387561e-11
2.2385586e-11
2.2383644e-11
2.2381739e-11
2.2379878e-11
2.2378034e-11
2.2376655e-11
2.2375754e-11
2.2375089e-11
2.2374563e-11
2.2374129e-11
2.2373762e-11
2.2373446e-11
2.2373172e-11
2.2372931e-11
2.2372719e-11
2.2372529e-11
2.237236e-11
2.2372207e-11
2.2372069e-11
2.2371944e-11
2.2371829e-11
2.2371724e-11
2.2371626e-11
2.2371531e-11
2.2371448e-11
2.2371326e-11
2.2371258e-11
2.2371142e-11
6.7833065e-09
6.7130374e-09
6.6963959e-09
6.690326e-09
6.6870415e-09
6.6849365e-09
6.6834968e-09
6.6824852e-09
6.6817687e-09
6.6812652e-09
6.6809209e-09
6.6806993e-09
6.6805742e-09
6.6805264e-09
6.6805405e-09
6.6806034e-09
6.6807016e-09
6.680823e-09
6.680933e-09
6.681046e-09
6.6808136e-09
6.6812528e-09
6.6772368e-09
4.8312942e-09
3.9204244e-11
5.5164516e-12
2.1598123e-11
2.1222568e-11
2.106039e-11
2.095088e-11
2.0867846e-11
2.0806526e-11
2.0760026e-11
2.0723293e-11
2.0693538e-11
2.0669021e-11
2.064851e-11
2.0631109e-11
2.0616165e-11
2.0603186e-11
2.0591805e-11
2.0581735e-11
2.0572753e-11
2.0564679e-11
2.055737e-11
2.0550711e-11
2.0544607e-11
2.053898e-11
2.0533764e-11
2.0528904e-11
2.0524354e-11
2.0520074e-11
2.0516031e-11
2.0512197e-11
2.0508547e-11
2.050506e-11
2.0501717e-11
2.0498503e-11
2.0495403e-11
2.0492404e-11
2.0489497e-11
2.0486672e-11
2.048392e-11
2.0481234e-11
2.0478607e-11
2.0476035e-11
2.0473512e-11
2.0471032e-11
2.0468593e-11
2.0466191e-11
2.0463823e-11
2.0461486e-11
2.0459177e-11
2.0456895e-11
2.0454637e-11
2.0452402e-11
2.0450189e-11
2.0447996e-11
2.0445822e-11
2.0443666e-11
2.0441528e-11
2.0439407e-11
2.0437303e-11
2.0435215e-11
2.0433142e-11
2.0431086e-11
2.0429045e-11
2.0427018e-11
2.0425008e-11
2.0423014e-11
2.0421035e-11
2.0419072e-11
2.0417126e-11
2.0415196e-11
2.0413283e-11
2.0411388e-11
2.040951e-11
2.0407652e-11
2.0405812e-11
2.0403992e-11
2.0402193e-11
2.0400415e-11
2.0398658e-11
2.0396924e-11
2.0395214e-11
2.0393528e-11
2.0391867e-11
2.0390232e-11
2.0388625e-11
2.0387046e-11
2.0385497e-11
2.0383986e-11
2.0382488e-11
2.0381386e-11
2.0380684e-11
2.0380171e-11
2.0379768e-11
2.0379438e-11
2.0379159e-11
2.0378921e-11
2.0378713e-11
2.0378532e-11
2.0378372e-11
2.037823e-11
2.0378103e-11
2.0377989e-11
2.0377886e-11
2.0377793e-11
2.0377707e-11
2.0377629e-11
2.0377556e-11
2.0377485e-11
2.0377424e-11
2.0377331e-11
2.0377281e-11
2.0377193e-11
6.7751888e-09
6.6947841e-09
6.6753062e-09
6.6680747e-09
6.6641318e-09
6.6615936e-09
6.659849e-09
6.658615e-09
6.6577328e-09
6.6571043e-09
6.6566654e-09
6.6563723e-09
6.656194e-09
6.6561075e-09
6.6560949e-09
6.6561413e-09
6.6562314e-09
6.6563532e-09
6.6564717e-09
6.656607e-09
6.6564029e-09
6.6570079e-09
6.6529772e-09
4.8279723e-09
3.4754638e-11
5.1360775e-12
1.9156581e-11
1.8862651e-11
1.8734697e-11
1.8648526e-11
1.8583273e-11
1.8535159e-11
1.849879e-11
1.8470135e-11
1.8446965e-11
1.8427904e-11
1.841198e-11
1.8398485e-11
1.8386906e-11
1.8376854e-11
1.8368044e-11
1.8360249e-11
1.8353294e-11
1.8347041e-11
1.8341378e-11
1.8336214e-11
1.8331477e-11
1.8327105e-11
1.8323048e-11
1.8319263e-11
1.8315714e-11
1.8312371e-11
1.8309209e-11
1.8306205e-11
1.830334e-11
1.8300599e-11
1.8297967e-11
1.8295432e-11
1.8292982e-11
1.829061e-11
1.8288305e-11
1.8286062e-11
1.8283874e-11
1.8281736e-11
1.8279642e-11
1.8277589e-11
1.8275572e-11
1.8273588e-11
1.8271634e-11
1.8269708e-11
1.8267807e-11
1.8265929e-11
1.8264073e-11
1.8262236e-11
1.8260418e-11
1.8258618e-11
1.8256833e-11
1.8255065e-11
1.8253311e-11
1.8251571e-11
1.8249844e-11
1.8248131e-11
1.8246431e-11
1.8244744e-11
1.8243069e-11
1.8241407e-11
1.8239758e-11
1.823812e-11
1.8236496e-11
1.8234884e-11
1.8233284e-11
1.8231698e-11
1.8230126e-11
1.8228567e-11
1.8227022e-11
1.8225491e-11
1.8223975e-11
1.8222475e-11
1.8220991e-11
1.8219523e-11
1.8218072e-11
1.8216638e-11
1.8215223e-11
1.8213826e-11
1.8212449e-11
1.8211093e-11
1.8209757e-11
1.8208442e-11
1.8207151e-11
1.8205883e-11
1.8204639e-11
1.8203427e-11
1.8202226e-11
1.8201356e-11
1.8200816e-11
1.8200426e-11
1.8200123e-11
1.8199875e-11
1.8199666e-11
1.8199488e-11
1.8199334e-11
1.81992e-11
1.8199081e-11
1.8198976e-11
1.8198882e-11
1.8198798e-11
1.8198723e-11
1.8198654e-11
1.8198591e-11
1.8198534e-11
1.8198481e-11
1.8198428e-11
1.8198383e-11
1.8198314e-11
1.8198277e-11
1.8198212e-11
6.7655658e-09
6.6726972e-09
6.6497015e-09
6.6410176e-09
6.6362481e-09
6.6331645e-09
6.6310354e-09
6.6295202e-09
6.6284278e-09
6.6276403e-09
6.6270803e-09
6.6266952e-09
6.6264476e-09
6.6263101e-09
6.6262612e-09
6.6262837e-09
6.6263607e-09
6.626479e-09
6.6266031e-09
6.6267598e-09
6.6265766e-09
6.6273713e-09
6.6232259e-09
4.8235079e-09
3.0327627e-11
4.6678999e-12
1.6608671e-11
1.6382503e-11
1.6282779e-11
1.6216015e-11
1.6165557e-11
1.6128443e-11
1.6100483e-11
1.6078511e-11
1.606078e-11
1.6046219e-11
1.6034071e-11
1.6023788e-11
1.6014972e-11
1.6007323e-11
1.6000619e-11
1.5994689e-11
1.5989396e-11
1.5984634e-11
1.5980319e-11
1.5976381e-11
1.5972764e-11
1.5969423e-11
1.5966317e-11
1.5963416e-11
1.5960691e-11
1.595812e-11
1.5955683e-11
1.5953365e-11
1.595115e-11
1.5949026e-11
1.5946984e-11
1.5945013e-11
1.5943105e-11
1.5941254e-11
1.5939453e-11
1.5937698e-11
1.5935982e-11
1.5934304e-11
1.5932657e-11
1.5931041e-11
1.5929451e-11
1.5927886e-11
1.5926342e-11
1.5924819e-11
1.5923315e-11
1.5921827e-11
1.5920356e-11
1.5918899e-11
1.5917456e-11
1.5916026e-11
1.5914608e-11
1.5913202e-11
1.5911807e-11
1.5910423e-11
1.5909049e-11
1.5907686e-11
1.5906332e-11
1.5904989e-11
1.5903656e-11
1.5902333e-11
1.590102e-11
1.5899716e-11
1.5898423e-11
1.589714e-11
1.5895867e-11
1.5894605e-11
1.5893354e-11
1.5892113e-11
1.5890884e-11
1.5889667e-11
1.5888462e-11
1.588727e-11
1.588609e-11
1.5884924e-11
1.5883772e-11
1.5882635e-11
1.5881512e-11
1.5880404e-11
1.5879313e-11
1.5878238e-11
1.587718e-11
1.587614e-11
1.5875118e-11
1.5874115e-11
1.5873133e-11
1.5872175e-11
1.5871227e-11
1.5870552e-11
1.5870143e-11
1.5869852e-11
1.5869627e-11
1.5869444e-11
1.5869291e-11
1.5869161e-11
1.5869048e-11
1.586895e-11
1.5868864e-11
1.5868788e-11
1.586872e-11
1.5868659e-11
1.5868604e-11
1.5868554e-11
1.5868509e-11
1.5868468e-11
1.5868429e-11
1.5868392e-11
1.5868359e-11
1.5868308e-11
1.5868282e-11
1.5868234e-11
6.754318e-09
6.6462616e-09
6.6189418e-09
6.6084571e-09
6.6026583e-09
6.5988941e-09
6.5962838e-09
6.5944159e-09
6.5930592e-09
6.5920708e-09
6.5913572e-09
6.5908545e-09
6.5905175e-09
6.5903131e-09
6.5902157e-09
6.5902049e-09
6.5902615e-09
6.5903711e-09
6.5904966e-09
6.5906732e-09
6.590502e-09
6.5915147e-09
6.5871413e-09
4.8175918e-09
2.6013945e-11
4.1186918e-12
1.4013571e-11
1.3842741e-11
1.3766017e-11
1.3715136e-11
1.3676826e-11
1.3648745e-11
1.3627667e-11
1.3611153e-11
1.3597855e-11
1.3586955e-11
1.3577876e-11
1.35702e-11
1.3563624e-11
1.3557922e-11
1.3552925e-11
1.3548504e-11
1.3544556e-11
1.3541003e-11
1.353778e-11
1.3534835e-11
1.3532127e-11
1.3529622e-11
1.3527289e-11
1.3525106e-11
1.3523053e-11
1.3521111e-11
1.3519268e-11
1.351751e-11
1.3515828e-11
1.3514212e-11
1.3512654e-11
1.3511148e-11
1.3509688e-11
1.3508268e-11
1.3506885e-11
1.3505534e-11
1.3504212e-11
1.3502916e-11
1.3501643e-11
1.3500392e-11
1.349916e-11
1.3497945e-11
1.3496746e-11
1.3495562e-11
1.3494391e-11
1.3493233e-11
1.3492086e-11
1.349095e-11
1.3489824e-11
1.3488708e-11
1.3487601e-11
1.3486502e-11
1.3485412e-11
1.3484331e-11
1.3483257e-11
1.3482191e-11
1.3481133e-11
1.3480083e-11
1.3479041e-11
1.3478006e-11
1.347698e-11
1.347596e-11
1.347495e-11
1.3473947e-11
1.3472953e-11
1.3471967e-11
1.3470989e-11
1.3470021e-11
1.3469062e-11
1.3468112e-11
1.3467171e-11
1.3466241e-11
1.3465321e-11
1.3464412e-11
1.3463515e-11
1.3462629e-11
1.3461755e-11
1.3460893e-11
1.3460044e-11
1.3459208e-11
1.3458386e-11
1.3457579e-11
1.3456786e-11
1.3456008e-11
1.3455246e-11
1.3454504e-11
1.345377e-11
1.3453255e-11
1.3452952e-11
1.345274e-11
1.3452576e-11
1.3452444e-11
1.3452334e-11
1.345224e-11
1.345216e-11
1.345209e-11
1.3452029e-11
1.3451974e-11
1.3451926e-11
1.3451883e-11
1.3451844e-11
1.3451809e-11
1.3451777e-11
1.3451748e-11
1.3451721e-11
1.3451694e-11
1.3451672e-11
1.3451635e-11
1.3451617e-11
1.3451582e-11
6.7413346e-09
6.6149063e-09
6.5823091e-09
6.5696073e-09
6.5625356e-09
6.5579275e-09
6.5547194e-09
6.552412e-09
6.550725e-09
6.5494847e-09
6.5485774e-09
6.5479256e-09
6.5474742e-09
6.5471831e-09
6.5470215e-09
6.5469651e-09
6.5469917e-09
6.5470854e-09
6.5472066e-09
6.5474002e-09
6.5472302e-09
6.548494e-09
6.543763e-09
4.8098517e-09
2.1905612e-11
3.508525e-12
1.1451305e-11
1.1324752e-11
1.1266481e-11
1.1228369e-11
1.1199863e-11
1.1179071e-11
1.116353e-11
1.1151394e-11
1.1141648e-11
1.1133677e-11
1.112705e-11
1.1121454e-11
1.1116665e-11
1.1112514e-11
1.1108878e-11
1.1105659e-11
1.1102784e-11
1.1100194e-11
1.1097842e-11
1.109569e-11
1.1093709e-11
1.1091872e-11
1.1090159e-11
1.1088553e-11
1.1087039e-11
1.1085604e-11
1.1084239e-11
1.1082935e-11
1.1081683e-11
1.1080478e-11
1.1079315e-11
1.1078187e-11
1.1077092e-11
1.1076025e-11
1.1074983e-11
1.1073964e-11
1.1072965e-11
1.1071985e-11
1.107102e-11
1.1070071e-11
1.1069135e-11
1.1068211e-11
1.1067299e-11
1.1066396e-11
1.1065503e-11
1.106462e-11
1.1063744e-11
1.1062876e-11
1.1062015e-11
1.1061161e-11
1.1060315e-11
1.1059474e-11
1.105864e-11
1.1057812e-11
1.105699e-11
1.1056175e-11
1.1055365e-11
1.1054561e-11
1.1053764e-11
1.1052973e-11
1.1052188e-11
1.1051408e-11
1.1050636e-11
1.1049869e-11
1.1049109e-11
1.1048356e-11
1.1047609e-11
1.1046869e-11
1.1046137e-11
1.1045412e-11
1.1044694e-11
1.1043985e-11
1.1043283e-11
1.1042591e-11
1.1041907e-11
1.1041232e-11
1.1040567e-11
1.1039911e-11
1.1039266e-11
1.1038631e-11
1.1038007e-11
1.1037394e-11
1.1036793e-11
1.1036203e-11
1.1035626e-11
1.1035064e-11
1.1034508e-11
1.1034125e-11
1.1033906e-11
1.1033754e-11
1.1033638e-11
1.1033545e-11
1.1033468e-11
1.1033402e-11
1.1033346e-11
1.1033298e-11
1.1033255e-11
1.1033218e-11
1.1033184e-11
1.1033154e-11
1.1033128e-11
1.1033104e-11
1.1033082e-11
1.1033061e-11
1.1033043e-11
1.1033025e-11
1.1033009e-11
1.1032983e-11
1.1032971e-11
1.1032947e-11
6.7265233e-09
6.5780073e-09
6.5390096e-09
6.5235946e-09
6.5149583e-09
6.5093103e-09
6.5053637e-09
6.5025123e-09
6.500415e-09
6.4988607e-09
6.4977108e-09
6.496871e-09
6.4962742e-09
6.4958716e-09
6.495626e-09
6.4955083e-09
6.4954923e-09
6.4955605e-09
6.4956693e-09
6.4958759e-09
6.4956936e-09
6.4972471e-09
6.4920086e-09
4.7998435e-09
1.8091552e-11
2.8679964e-12
9.0123565e-12
8.920374e-12
8.8766641e-12
8.848612e-12
8.8278611e-12
8.8128256e-12
8.8016445e-12
8.7929499e-12
8.7859896e-12
8.7803124e-12
8.7756031e-12
8.7716338e-12
8.7682402e-12
8.7653008e-12
8.762726e-12
8.7604467e-12
8.7584094e-12
8.7565722e-12
8.7549018e-12
8.7533714e-12
8.7519593e-12
8.7506481e-12
8.7494228e-12
8.748271e-12
8.7471826e-12
8.7461491e-12
8.7451632e-12
8.7442186e-12
8.7433103e-12
8.7424338e-12
8.7415853e-12
8.7407614e-12
8.7399591e-12
8.739176e-12
8.73841e-12
8.7376591e-12
8.7369219e-12
8.7361971e-12
8.7354833e-12
8.7347796e-12
8.734085e-12
8.7333987e-12
8.73272e-12
8.7320484e-12
8.7313835e-12
8.7307248e-12
8.7300718e-12
8.7294243e-12
8.728782e-12
8.7281448e-12
8.7275126e-12
8.7268852e-12
8.7262624e-12
8.7256444e-12
8.725031e-12
8.7244222e-12
8.7238181e-12
8.7232187e-12
8.722624e-12
8.7220341e-12
8.7214491e-12
8.7208683e-12
8.7202929e-12
8.7197222e-12
8.7191564e-12
8.7185956e-12
8.71804e-12
8.7174897e-12
8.7169448e-12
8.7164057e-12
8.7158724e-12
8.7153453e-12
8.7148246e-12
8.7143105e-12
8.7138033e-12
8.7133033e-12
8.7128106e-12
8.7123254e-12
8.711848e-12
8.7113787e-12
8.7109176e-12
8.710465e-12
8.7100213e-12
8.7095867e-12
8.7091614e-12
8.7087477e-12
8.7083383e-12
8.7080605e-12
8.707906e-12
8.7078006e-12
8.7077211e-12
8.7076575e-12
8.707605e-12
8.7075606e-12
8.7075226e-12
8.7074898e-12
8.7074611e-12
8.7074359e-12
8.7074135e-12
8.7073936e-12
8.7073757e-12
8.7073596e-12
8.707345e-12
8.7073315e-12
8.7073192e-12
8.707307e-12
8.7072966e-12
8.7072788e-12
8.7072707e-12
8.7072543e-12
6.7098225e-09
6.5348941e-09
6.4881775e-09
6.4694611e-09
6.4589127e-09
6.4519903e-09
6.4471367e-09
6.4436155e-09
6.4410117e-09
6.4390682e-09
6.4376165e-09
6.4365412e-09
6.435761e-09
6.4352162e-09
6.4348617e-09
6.4346626e-09
6.4345881e-09
6.4346179e-09
6.4347036e-09
6.4349173e-09
6.4347061e-09
6.4365933e-09
6.4306735e-09
4.7870435e-09
1.4650986e-11
2.2341367e-12
6.7863722e-12
6.7206764e-12
6.6882551e-12
6.6679589e-12
6.6531984e-12
6.6426005e-12
6.6347687e-12
6.6287103e-12
6.6238809e-12
6.6199556e-12
6.6167089e-12
6.6139784e-12
6.6116474e-12
6.6096304e-12
6.6078641e-12
6.6063002e-12
6.6049016e-12
6.603639e-12
6.6024895e-12
6.6014344e-12
6.600459e-12
6.5995513e-12
6.5987009e-12
6.5978995e-12
6.5971402e-12
6.5964172e-12
6.5957256e-12
6.5950612e-12
6.5944205e-12
6.5938007e-12
6.5931991e-12
6.5926135e-12
6.592042e-12
6.5914829e-12
6.5909348e-12
6.5903966e-12
6.5898671e-12
6.5893458e-12
6.5888316e-12
6.588324e-12
6.5878224e-12
6.5873262e-12
6.5868351e-12
6.5863488e-12
6.5858671e-12
6.5853895e-12
6.584916e-12
6.5844462e-12
6.5839802e-12
6.5835179e-12
6.5830592e-12
6.582604e-12
6.5821524e-12
6.5817042e-12
6.5812596e-12
6.5808185e-12
6.5803811e-12
6.5799472e-12
6.5795169e-12
6.5790903e-12
6.5786675e-12
6.5782479e-12
6.5778324e-12
6.5774203e-12
6.5770119e-12
6.5766071e-12
6.5762062e-12
6.5758093e-12
6.5754165e-12
6.5750279e-12
6.5746438e-12
6.5742643e-12
6.5738896e-12
6.57352e-12
6.5731556e-12
6.5727966e-12
6.5724432e-12
6.5720955e-12
6.5717537e-12
6.5714179e-12
6.5710883e-12
6.5707651e-12
6.5704483e-12
6.5701383e-12
6.5698352e-12
6.5695403e-12
6.5692487e-12
6.5690538e-12
6.5689485e-12
6.5688779e-12
6.5688251e-12
6.5687832e-12
6.5687486e-12
6.5687196e-12
6.5686948e-12
6.5686734e-12
6.5686548e-12
6.5686385e-12
6.568624e-12
6.5686112e-12
6.5685997e-12
6.5685893e-12
6.5685799e-12
6.5685712e-12
6.5685633e-12
6.5685554e-12
6.5685488e-12
6.5685371e-12
6.568532e-12
6.5685211e-12
6.6912174e-09
6.4848584e-09
6.4288827e-09
6.4061712e-09
6.3932986e-09
6.3848234e-09
6.3788623e-09
6.3745212e-09
6.3712955e-09
6.3688726e-09
6.3670474e-09
6.3656793e-09
6.3646692e-09
6.3639444e-09
6.3634504e-09
6.3631448e-09
6.3629912e-09
6.3629661e-09
6.3630148e-09
6.3632269e-09
6.3629667e-09
6.3652376e-09
6.3584348e-09
4.7708392e-09
1.1646027e-11
1.6450186e-12
4.8504361e-12
4.804179e-12
4.7803764e-12
4.7659276e-12
4.7556767e-12
4.7484063e-12
4.7430752e-12
4.7389789e-12
4.7357317e-12
4.7331048e-12
4.7309404e-12
4.7291255e-12
4.7275797e-12
4.726244e-12
4.7250752e-12
4.7240405e-12
4.7231146e-12
4.7222779e-12
4.721515e-12
4.7208135e-12
4.7201635e-12
4.7195571e-12
4.7189874e-12
4.718449e-12
4.7179373e-12
4.7174486e-12
4.7169796e-12
4.7165277e-12
4.7160906e-12
4.7156664e-12
4.7152536e-12
4.7148507e-12
4.7144564e-12
4.7140698e-12
4.71369e-12
4.7133161e-12
4.7129477e-12
4.7125843e-12
4.7122254e-12
4.7118706e-12
4.7115196e-12
4.711172e-12
4.7108277e-12
4.7104866e-12
4.7101485e-12
4.7098132e-12
4.7094806e-12
4.7091508e-12
4.7088235e-12
4.7084989e-12
4.708177e-12
4.7078576e-12
4.7075409e-12
4.7072269e-12
4.7069155e-12
4.7066069e-12
4.706301e-12
4.7059979e-12
4.7056975e-12
4.7053998e-12
4.705105e-12
4.7048126e-12
4.7045232e-12
4.7042363e-12
4.7039519e-12
4.7036702e-12
4.7033912e-12
4.7031151e-12
4.702842e-12
4.702572e-12
4.7023052e-12
4.7020418e-12
4.701782e-12
4.701526e-12
4.7012738e-12
4.7010257e-12
4.7007817e-12
4.700542e-12
4.7003066e-12
4.7000756e-12
4.6998491e-12
4.6996272e-12
4.6994099e-12
4.6991974e-12
4.6989897e-12
4.6987879e-12
4.6985883e-12
4.6984568e-12
4.6983878e-12
4.6983422e-12
4.6983086e-12
4.698282e-12
4.6982603e-12
4.6982421e-12
4.6982266e-12
4.6982133e-12
4.6982017e-12
4.6981916e-12
4.6981826e-12
4.6981747e-12
4.6981676e-12
4.6981612e-12
4.6981554e-12
4.6981501e-12
4.6981452e-12
4.6981403e-12
4.6981363e-12
4.6981289e-12
4.6981258e-12
4.698119e-12
6.6707598e-09
6.4271676e-09
6.3601431e-09
6.3326231e-09
6.3169413e-09
6.3065846e-09
6.2992786e-09
6.2939396e-09
6.2899551e-09
6.2869453e-09
6.2846609e-09
6.282931e-09
6.2816349e-09
6.2806843e-09
6.2800129e-09
6.2795698e-09
6.2793113e-09
6.2792104e-09
6.279204e-09
6.2794032e-09
6.2790688e-09
6.2817795e-09
6.2738596e-09
4.7505205e-09
9.115227e-12
1.1336911e-12
3.258136e-12
3.2258922e-12
3.2085971e-12
3.1984677e-12
3.1915206e-12
3.1866717e-12
3.1831499e-12
3.1804668e-12
3.1783554e-12
3.176658e-12
3.1752668e-12
3.1741052e-12
3.1731191e-12
3.1722691e-12
3.1715264e-12
3.1708693e-12
3.1702812e-12
3.1697494e-12
3.1692638e-12
3.1688164e-12
3.1684008e-12
3.1680121e-12
3.1676458e-12
3.1672984e-12
3.1669672e-12
3.1666497e-12
3.1663439e-12
3.1660482e-12
3.1657613e-12