/*--------------------------------*- C++ -*----------------------------------*\
| =========                 |                                                 |
| \\      /  F ield         | OpenFOAM: The Open Source CFD Toolbox           |
|  \\    /   O peration     | Version:  2206                                  |
|   \\  /    A nd           | Website:  www.openfoam.com                      |
|    \\/     M anipulation  |                                                 |
\*---------------------------------------------------------------------------*/
FoamFile
{
    version     2.0;
    format      ascii;
    arch        "LSB;label=32;scalar=64";
    class       volScalarField;
    location    "300";
    object      p;
}
// * * * * * * * * * * * * * * * * * * * * * * * * * * * * * * * * * * * * * //

dimensions      [0 2 -2 0 0 0 0];

internalField   nonuniform List<scalar> 
13056
(
0.0063736987
0.0064433352
0.0065892268
0.0067757658
0.007004285
0.0072750481
0.0075871078
0.0079408152
0.0083381145
0.0087822847
0.0092779563
0.0098314839
0.010451413
0.011149715
0.011942278
0.012854073
0.013915157
0.0151911
0.016729343
0.018781402
0.021281359
0.025683516
0.029981821
0.067993223
0.037364114
-0.012431467
-0.0094821918
-0.005815814
-0.0044275463
-0.0034763914
-0.0027214949
-0.002180527
-0.0017693465
-0.0014415341
-0.0011742378
-0.00095117574
-0.00076130036
-0.00059717369
-0.00045345634
-0.00032626125
-0.00021271528
-0.0001106046
-1.8188157e-05
6.5916813e-05
0.00014282119
0.00021342851
0.00027848366
0.00033860834
0.00039432762
0.00044608769
0.0004942669
0.0005391885
0.00058113113
0.0006203377
0.00065702124
0.000691368
0.00072354105
0.00075368507
0.00078192943
0.00080839053
0.00083317168
0.00085636429
0.00087805044
0.00089830411
0.00091719179
0.0009347735
0.00095110279
0.00096622749
0.00098019161
0.00099303572
0.0010047972
0.0010155087
0.0010251992
0.0010338949
0.0010416197
0.0010483951
0.001054239
0.0010591676
0.0010631949
0.0010663343
0.0010685974
0.0010699936
0.001070536
0.001070216
0.0010690397
0.0010670228
0.0010641593
0.0010604452
0.001055875
0.0010504465
0.0010441515
0.0010369801
0.0010289214
0.0010199619
0.0010100845
0.00099927445
0.00098750934
0.00097475764
0.00096099089
0.00094617644
0.00093027568
0.00091324418
0.00089503062
0.00087557905
0.00085481737
0.00083265929
0.00080900945
0.00078374683
0.00075671446
0.00072770583
0.00069639618
0.00066234842
0.00062392819
0.00058324755
0.00054557882
0.0005115782
0.00047951356
0.000448535
0.00041837019
0.00038887676
0.00035995901
0.00033157022
0.00030370564
0.00027638717
0.00024965756
0.00022358451
0.00019826819
0.00017383913
0.00015051489
0.00012850338
0.00010848276
9.0339102e-05
7.8109333e-05
6.4468164e-05
0.00012888832
-0.00011660204
0.0063736987
0.0064433352
0.0065892268
0.0067757658
0.007004285
0.0072750481
0.0075871078
0.0079408152
0.0083381145
0.0087822848
0.0092779564
0.0098314841
0.010451413
0.011149715
0.011942279
0.012854073
0.013915158
0.015191102
0.016729346
0.018781407
0.021281366
0.02568353
0.029981832
0.067986691
0.037371579
-0.012425109
-0.0094813286
-0.0058155292
-0.0044273989
-0.0034762897
-0.0027214195
-0.0021804701
-0.0017693021
-0.0014414985
-0.0011742088
-0.00095115165
-0.0007612801
-0.00059715645
-0.00045344151
-0.0003262484
-0.00021270404
-0.0001105947
-1.8179385e-05
6.5924634e-05
0.0001428282
0.00021343482
0.00027848938
0.00033861354
0.00039433237
0.00044609204
0.0004942709
0.00053919219
0.00058113454
0.00062034087
0.00065702419
0.00069137076
0.00072354363
0.00075368749
0.00078193171
0.00080839267
0.00083317371
0.00085636621
0.00087805226
0.00089830584
0.00091719343
0.00093477506
0.00095110428
0.00096622891
0.00098019297
0.00099303702
0.0010047984
0.0010155099
0.0010252004
0.001033896
0.0010416208
0.0010483961
0.00105424
0.0010591685
0.0010631958
0.0010663351
0.0010685983
0.0010699944
0.0010705368
0.0010702168
0.0010690404
0.0010670235
0.00106416
0.0010604458
0.0010558756
0.0010504471
0.001044152
0.0010369806
0.0010289219
0.0010199624
0.0010100849
0.00099927489
0.00098750975
0.00097475803
0.00096099126
0.00094617679
0.00093027601
0.00091324449
0.00089503092
0.00087557933
0.00085481763
0.00083265954
0.00080900968
0.00078374705
0.00075671466
0.00072770602
0.00069639635
0.00066234858
0.00062392832
0.00058324765
0.0005455789
0.00051157826
0.00047951362
0.00044853505
0.00041837023
0.0003888768
0.00035995904
0.00033157024
0.00030370566
0.00027638719
0.00024965758
0.00022358453
0.00019826821
0.00017383915
0.0001505149
0.0001285034
0.00010848277
9.0339114e-05
7.8109346e-05
6.4468177e-05
0.00012888833
-0.00011660203
0.0063736987
0.0064433352
0.0065892268
0.0067757658
0.007004285
0.0072750482
0.0075871079
0.0079408153
0.0083381146
0.0087822849
0.0092779566
0.0098314843
0.010451413
0.011149716
0.011942279
0.012854074
0.01391516
0.015191104
0.016729349
0.018781412
0.021281373
0.025683545
0.029981837
0.06798063
0.037376307
-0.01241817
-0.0094803252
-0.0058151988
-0.004427228
-0.0034761719
-0.0027213321
-0.0021804042
-0.0017692507
-0.0014414574
-0.0011741752
-0.00095112376
-0.00076125666
-0.0005971365
-0.00045342437
-0.00032623353
-0.00021269105
-0.00011058326
-1.8169246e-05
6.5933672e-05
0.0001428363
0.00021344212
0.00027849598
0.00033861954
0.00039433785
0.00044609706
0.00049427552
0.00053919645
0.00058113849
0.00062034453
0.0006570276
0.00069137395
0.00072354662
0.00075369029
0.00078193434
0.00080839516
0.00083317605
0.00085636843
0.00087805437
0.00089830783
0.00091719533
0.00093477687
0.000951106
0.00096623056
0.00098019454
0.00099303852
0.0010047998
0.0010155113
0.0010252017
0.0010338973
0.001041622
0.0010483972
0.0010542411
0.0010591696
0.0010631969
0.0010663361
0.0010685992
0.0010699953
0.0010705376
0.0010702176
0.0010690412
0.0010670243
0.0010641607
0.0010604465
0.0010558763
0.0010504477
0.0010441526
0.0010369812
0.0010289225
0.0010199629
0.0010100855
0.00099927539
0.00098751023
0.00097475849
0.00096099169
0.0009461772
0.0009302764
0.00091324485
0.00089503126
0.00087557965
0.00085481793
0.00083265982
0.00080900995
0.00078374729
0.00075671489
0.00072770623
0.00069639655
0.00066234876
0.00062392848
0.00058324777
0.00054557899
0.00051157834
0.00047951368
0.0004485351
0.00041837027
0.00038887684
0.00035995908
0.00033157028
0.00030370569
0.00027638721
0.0002496576
0.00022358455
0.00019826823
0.00017383917
0.00015051492
0.00012850341
0.00010848278
9.0339127e-05
7.810936e-05
6.4468191e-05
0.00012888834
-0.00011660202
0.0063736987
0.0064433352
0.0065892269
0.0067757659
0.007004285
0.0072750482
0.007587108
0.0079408154
0.0083381147
0.0087822851
0.0092779568
0.0098314846
0.010451414
0.011149716
0.01194228
0.012854075
0.013915161
0.015191106
0.016729352
0.018781418
0.021281381
0.025683559
0.029981841
0.067974778
0.037381744
-0.012411766
-0.009479347
-0.005814875
-0.0044270603
-0.0034760564
-0.0027212464
-0.0021803396
-0.0017692004
-0.001441417
-0.0011741422
-0.00095109639
-0.00076123364
-0.00059711691
-0.00045340753
-0.00032621893
-0.00021267828
-0.00011057202
-1.815928e-05
6.5942557e-05
0.00014284427
0.0002134493
0.00027850248
0.00033862545
0.00039434324
0.000446102
0.00049428006
0.00053920064
0.00058114237
0.00062034814
0.00065703096
0.00069137708
0.00072354955
0.00075369304
0.00078193693
0.00080839759
0.00083317836
0.0008563706
0.00087805643
0.00089830979
0.00091719719
0.00093477865
0.00095110769
0.00096623218
0.00098019608
0.00099304
0.0010048013
0.0010155127
0.001025203
0.0010338985
0.0010416232
0.0010483984
0.0010542422
0.0010591706
0.0010631979
0.0010663371
0.0010686002
0.0010699962
0.0010705385
0.0010702185
0.001069042
0.001067025
0.0010641615
0.0010604472
0.001055877
0.0010504484
0.0010441533
0.0010369818
0.001028923
0.0010199635
0.001010086
0.00099927588
0.00098751069
0.00097475893
0.00096099211
0.00094617759
0.00093027677
0.00091324521
0.0008950316
0.00087557997
0.00085481823
0.0008326601
0.00080901021
0.00078374754
0.00075671511
0.00072770644
0.00069639674
0.00066234894
0.00062392863
0.00058324788
0.00054557908
0.00051157841
0.00047951374
0.00044853515
0.00041837032
0.00038887687
0.00035995911
0.00033157031
0.00030370572
0.00027638724
0.00024965762
0.00022358457
0.00019826825
0.00017383919
0.00015051494
0.00012850343
0.0001084828
9.0339141e-05
7.8109374e-05
6.4468204e-05
0.00012888836
-0.00011660201
0.0063736987
0.0064433352
0.0065892269
0.0067757659
0.0070042851
0.0072750483
0.007587108
0.0079408155
0.0083381149
0.0087822852
0.009277957
0.0098314849
0.010451414
0.011149717
0.011942281
0.012854076
0.013915163
0.015191109
0.016729355
0.018781424
0.021281389
0.025683573
0.029981847
0.067968426
0.037392358
-0.01240525
-0.0094783361
-0.0058145393
-0.0044268863
-0.0034759366
-0.0027211576
-0.0021802725
-0.0017691481
-0.0014413751
-0.0011741079
-0.00095106799
-0.00076120974
-0.00059709658
-0.00045339005
-0.00032620376
-0.00021266502
-0.00011056034
-1.814893e-05
6.5951786e-05
0.00014285254
0.00021345675
0.00027850922
0.00033863158
0.00039434884
0.00044610713
0.00049428478
0.000539205
0.0005811464
0.00062035188
0.00065703444
0.00069138033
0.00072355259
0.00075369589
0.00078193961
0.00080840013
0.00083318075
0.00085637287
0.00087805857
0.00089831183
0.00091719913
0.00093478049
0.00095110945
0.00096623385
0.00098019768
0.00099304153
0.0010048027
0.0010155141
0.0010252044
0.0010338998
0.0010416244
0.0010483996
0.0010542434
0.0010591717
0.0010631989
0.0010663381
0.0010686011
0.0010699971
0.0010705394
0.0010702193
0.0010690428
0.0010670258
0.0010641622
0.001060448
0.0010558777
0.001050449
0.0010441539
0.0010369824
0.0010289236
0.001019964
0.0010100865
0.00099927638
0.00098751117
0.00097475939
0.00096099255
0.00094617801
0.00093027716
0.00091324558
0.00089503194
0.0008755803
0.00085481853
0.00083266039
0.00080901048
0.00078374779
0.00075671535
0.00072770666
0.00069639694
0.00066234912
0.00062392879
0.000583248
0.00054557917
0.00051157848
0.0004795138
0.0004485352
0.00041837037
0.00038887692
0.00035995915
0.00033157034
0.00030370575
0.00027638727
0.00024965765
0.00022358459
0.00019826827
0.0001738392
0.00015051495
0.00012850344
0.00010848281
9.0339155e-05
7.8109389e-05
6.4468218e-05
0.00012888837
-0.000116602
0.0063736987
0.0064433353
0.0065892269
0.0067757659
0.0070042851
0.0072750483
0.0075871081
0.0079408156
0.008338115
0.0087822854
0.0092779572
0.0098314852
0.010451415
0.011149717
0.011942282
0.012854078
0.013915164
0.015191111
0.016729359
0.018781431
0.021281399
0.02568359
0.029981855
0.067961347
0.037405018
-0.012398384
-0.0094772553
-0.0058141788
-0.0044266993
-0.003475808
-0.0027210622
-0.0021802005
-0.0017690919
-0.0014413301
-0.0011740712
-0.00095103745
-0.00076118405
-0.00059707471
-0.00045337125
-0.00032618745
-0.00021265075
-0.00011054778
-1.8137792e-05
6.5961717e-05
0.00014286145
0.00021346477
0.00027851649
0.00033863818
0.00039435486
0.00044611265
0.00049428986
0.00053920968
0.00058115074
0.00062035591
0.00065703819
0.00069138383
0.00072355587
0.00075369897
0.0007819425
0.00080840285
0.00083318332
0.0008563753
0.00087806088
0.00089831402
0.00091720121
0.00093478247
0.00095111134
0.00096623565
0.00098019941
0.00099304318
0.0010048043
0.0010155156
0.0010252058
0.0010339012
0.0010416258
0.0010484009
0.0010542446
0.0010591729
0.0010632001
0.0010663392
0.0010686022
0.0010699982
0.0010705404
0.0010702202
0.0010690437
0.0010670267
0.0010641631
0.0010604487
0.0010558784
0.0010504498
0.0010441546
0.0010369831
0.0010289242
0.0010199646
0.0010100871
0.00099927693
0.00098751169
0.00097475988
0.00096099301
0.00094617845
0.00093027758
0.00091324597
0.00089503232
0.00087558065
0.00085481886
0.0008326607
0.00080901076
0.00078374806
0.0007567156
0.00072770689
0.00069639716
0.00066234932
0.00062392896
0.00058324814
0.00054557927
0.00051157856
0.00047951387
0.00044853526
0.00041837042
0.00038887696
0.00035995919
0.00033157037
0.00030370578
0.00027638729
0.00024965767
0.00022358462
0.00019826829
0.00017383922
0.00015051497
0.00012850346
0.00010848283
9.033917e-05
7.8109405e-05
6.4468233e-05
0.00012888839
-0.00011660199
0.0063736986
0.0064433353
0.0065892269
0.006775766
0.0070042852
0.0072750484
0.0075871082
0.0079408157
0.0083381152
0.0087822856
0.0092779575
0.0098314856
0.010451415
0.011149718
0.011942283
0.012854079
0.013915167
0.015191115
0.016729364
0.01878144
0.021281411
0.025683611
0.029981866
0.067953432
0.037418076
-0.012391641
-0.0094760836
-0.0058137857
-0.0044264951
-0.0034756676
-0.0027209581
-0.0021801219
-0.0017690306
-0.0014412809
-0.0011740309
-0.00095100406
-0.00076115595
-0.00059705079
-0.00045335067
-0.00032616959
-0.00021263513
-0.00011053402
-1.8125592e-05
6.5972598e-05
0.0001428712
0.00021347357
0.00027852445
0.00033864542
0.00039436147
0.00044611871
0.00049429542
0.00053921482
0.00058115549
0.00062036032
0.0006570423
0.00069138767
0.00072355946
0.00075370234
0.00078194567
0.00080840583
0.00083318614
0.00085637796
0.0008780634
0.00089831641
0.00091720348
0.00093478464
0.0009511134
0.00096623762
0.00098020129
0.00099304498
0.001004806
0.0010155172
0.0010252074
0.0010339027
0.0010416272
0.0010484023
0.0010542459
0.0010591742
0.0010632013
0.0010663404
0.0010686033
0.0010699992
0.0010705414
0.0010702213
0.0010690447
0.0010670276
0.0010641639
0.0010604496
0.0010558793
0.0010504505
0.0010441553
0.0010369838
0.0010289249
0.0010199653
0.0010100877
0.00099927752
0.00098751226
0.00097476042
0.00096099352
0.00094617893
0.00093027804
0.0009132464
0.00089503272
0.00087558103
0.00085481922
0.00083266103
0.00080901108
0.00078374835
0.00075671587
0.00072770714
0.00069639739
0.00066234954
0.00062392915
0.00058324828
0.00054557938
0.00051157865
0.00047951394
0.00044853532
0.00041837047
0.00038887701
0.00035995923
0.00033157041
0.00030370581
0.00027638733
0.0002496577
0.00022358464
0.00019826831
0.00017383925
0.00015051499
0.00012850348
0.00010848285
9.0339186e-05
7.8109423e-05
6.4468249e-05
0.0001288884
-0.00011660198
0.0063736986
0.0064433353
0.006589227
0.006775766
0.0070042852
0.0072750485
0.0075871083
0.0079408159
0.0083381154
0.0087822859
0.0092779579
0.0098314861
0.010451416
0.011149719
0.011942284
0.012854081
0.013915169
0.015191119
0.01672937
0.018781451
0.021281426
0.025683637
0.029981879
0.067944527
0.037431792
-0.012385903
-0.0094747996
-0.0058133514
-0.004426269
-0.0034755123
-0.0027208429
-0.0021800348
-0.0017689627
-0.0014412264
-0.0011739864
-0.00095096702
-0.00076112477
-0.00059702423
-0.00045332781
-0.00032614975
-0.00021261777
-0.00011051871
-1.8112022e-05
6.5984703e-05
0.00014288206
0.00021348335
0.0002785333
0.00033865348
0.00039436883
0.00044612545
0.00049430162
0.00053922054
0.00058116078
0.00062036523
0.00065704687
0.00069139194
0.00072356345
0.00075370608
0.00078194919
0.00080840915
0.00083318927
0.00085638093
0.00087806621
0.00089831907
0.00091720601
0.00093478704
0.00095111569
0.00096623981
0.00098020338
0.00099304697
0.0010048079
0.001015519
0.0010252091
0.0010339044
0.0010416288
0.0010484038
0.0010542474
0.0010591756
0.0010632027
0.0010663417
0.0010686046
0.0010700005
0.0010705426
0.0010702224
0.0010690458
0.0010670286
0.0010641649
0.0010604505
0.0010558802
0.0010504514
0.0010441562
0.0010369846
0.0010289257
0.001019966
0.0010100884
0.00099927818
0.00098751288
0.00097476101
0.00096099409
0.00094617947
0.00093027854
0.00091324688
0.00089503317
0.00087558145
0.00085481962
0.00083266141
0.00080901143
0.00078374868
0.00075671617
0.00072770743
0.00069639765
0.00066234978
0.00062392935
0.00058324844
0.0005455795
0.00051157875
0.00047951402
0.0004485354
0.00041837053
0.00038887706
0.00035995928
0.00033157046
0.00030370585
0.00027638736
0.00024965773
0.00022358467
0.00019826834
0.00017383927
0.00015051502
0.0001285035
0.00010848287
9.0339205e-05
7.8109444e-05
6.4468268e-05
0.00012888842
-0.00011660197
0.0063736986
0.0064433354
0.006589227
0.0067757661
0.0070042853
0.0072750486
0.0075871084
0.007940816
0.0083381156
0.0087822862
0.0092779584
0.0098314868
0.010451417
0.01114972
0.011942286
0.012854084
0.013915173
0.015191124
0.016729378
0.018781465
0.021281445
0.025683671
0.029981895
0.067934437
0.037446529
-0.012381103
-0.0094733768
-0.0058128652
-0.0044260155
-0.0034753382
-0.0027207139
-0.0021799372
-0.0017688864
-0.0014411652
-0.0011739362
-0.00095092535
-0.00076108966
-0.0005969943
-0.00045330205
-0.00032612737
-0.00021259818
-0.00011050145
-1.8096702e-05
6.5998373e-05
0.00014289432
0.00021349441
0.00027854332
0.00033866258
0.00039437714
0.00044613306
0.00049430863
0.000539227
0.00058116677
0.00062037079
0.00065705204
0.00069139676
0.00072356797
0.00075371031
0.00078195317
0.0008084129
0.0008331928
0.00085638427
0.00087806937
0.00089832207
0.00091720886
0.00093478975
0.00095111828
0.00096624227
0.00098020573
0.00099304922
0.0010048101
0.0010155211
0.0010252111
0.0010339063
0.0010416306
0.0010484055
0.0010542491
0.0010591772
0.0010632042
0.0010663432
0.001068606
0.0010700018
0.0010705439
0.0010702236
0.001069047
0.0010670298
0.001064166
0.0010604516
0.0010558812
0.0010504524
0.0010441571
0.0010369855
0.0010289265
0.0010199668
0.0010100892
0.00099927891
0.00098751358
0.00097476168
0.00096099472
0.00094618006
0.00093027911
0.00091324742
0.00089503368
0.00087558193
0.00085482006
0.00083266183
0.00080901182
0.00078374904
0.00075671651
0.00072770774
0.00069639794
0.00066235005
0.00062392959
0.00058324862
0.00054557964
0.00051157886
0.00047951412
0.00044853548
0.00041837061
0.00038887713
0.00035995934
0.00033157051
0.0003037059
0.0002763874
0.00024965777
0.00022358471
0.00019826837
0.0001738393
0.00015051504
0.00012850353
0.00010848289
9.0339228e-05
7.8109467e-05
6.446829e-05
0.00012888845
-0.00011660196
0.0063736986
0.0064433354
0.0065892271
0.0067757662
0.0070042854
0.0072750487
0.0075871086
0.0079408163
0.008338116
0.0087822867
0.009277959
0.0098314876
0.010451418
0.011149722
0.011942288
0.012854087
0.013915177
0.015191131
0.016729387
0.018781483
0.021281469
0.025683715
0.029981916
0.067922936
0.037462495
-0.012376191
-0.0094717849
-0.005812315
-0.0044257278
-0.0034751408
-0.0027205675
-0.0021798264
-0.0017687997
-0.0014410956
-0.0011738792
-0.00095087787
-0.00076104963
-0.00059696016
-0.00045327264
-0.00032610181
-0.00021257579
-0.0001104817
-1.8079178e-05
6.6014016e-05
0.00014290836
0.00021350706
0.00027855478
0.00033867301
0.00039438666
0.00044614179
0.00049431665
0.00053923441
0.00058117362
0.00062037715
0.00065705796
0.00069140228
0.00072357313
0.00075371516
0.00078195772
0.00080841718
0.00083319684
0.00085638809
0.00087807299
0.0008983255
0.00091721212
0.00093479285
0.00095112122
0.00096624508
0.00098020841
0.00099305178
0.0010048125
0.0010155234
0.0010252133
0.0010339084
0.0010416327
0.0010484075
0.001054251
0.001059179
0.0010632059
0.0010663449
0.0010686076
0.0010700034
0.0010705454
0.001070225
0.0010690483
0.0010670311
0.0010641673
0.0010604528
0.0010558823
0.0010504535
0.0010441582
0.0010369865
0.0010289275
0.0010199677
0.00101009
0.00099927975
0.00098751437
0.00097476243
0.00096099543
0.00094618074
0.00093027975
0.00091324802
0.00089503425
0.00087558247
0.00085482057
0.0008326623
0.00080901226
0.00078374946
0.0007567169
0.0007277081
0.00069639827
0.00066235036
0.00062392985
0.00058324883
0.0005455798
0.00051157899
0.00047951423
0.00044853557
0.00041837069
0.0003888772
0.0003599594
0.00033157057
0.00030370595
0.00027638745
0.00024965782
0.00022358475
0.00019826841
0.00017383934
0.00015051507
0.00012850356
0.00010848292
9.0339254e-05
7.8109495e-05
6.4468316e-05
0.00012888847
-0.00011660194
0.0063736986
0.0064433355
0.0065892272
0.0067757663
0.0070042856
0.0072750489
0.0075871089
0.0079408166
0.0083381164
0.0087822872
0.0092779597
0.0098314886
0.010451419
0.011149724
0.011942291
0.01285409
0.013915183
0.015191139
0.016729399
0.018781504
0.021281498
0.025683771
0.029981943
0.067909763
0.037479858
-0.012370558
-0.0094699891
-0.0058116862
-0.0044253982
-0.0034749146
-0.0027203998
-0.0021796993
-0.0017687002
-0.0014410155
-0.0011738136
-0.00095082322
-0.00076100352
-0.0005969208
-0.00045323871
-0.0003260723
-0.00021254993
-0.00011045888
-1.805891e-05
6.6032116e-05
0.00014292461
0.00021352172
0.00027856806
0.00033868509
0.00039439769
0.00044615191
0.00049432595
0.00053924299
0.00058118156
0.00062038452
0.00065706482
0.00069140868
0.00072357912
0.00075372076
0.00078196299
0.00080842214
0.00083320152
0.0008563925
0.00087807717
0.00089832946
0.00091721587
0.00093479642
0.00095112462
0.00096624832
0.0009802115
0.00099305473
0.0010048153
0.0010155261
0.0010252159
0.0010339109
0.0010416351
0.0010484098
0.0010542532
0.0010591811
0.001063208
0.0010663468
0.0010686095
0.0010700051
0.0010705471
0.0010702267
0.0010690499
0.0010670326
0.0010641687
0.0010604542
0.0010558836
0.0010504547
0.0010441594
0.0010369877
0.0010289286
0.0010199688
0.0010100911
0.0009992807
0.00098751528
0.00097476329
0.00096099625
0.00094618152
0.00093028048
0.00091324871
0.0008950349
0.00087558308
0.00085482115
0.00083266284
0.00080901277
0.00078374993
0.00075671734
0.00072770851
0.00069639865
0.00066235071
0.00062393016
0.00058324907
0.00054557999
0.00051157915
0.00047951436
0.00044853569
0.00041837079
0.00038887729
0.00035995948
0.00033157064
0.00030370602
0.00027638751
0.00024965787
0.0002235848
0.00019826845
0.00017383938
0.00015051511
0.00012850359
0.00010848295
9.0339285e-05
7.8109528e-05
6.4468346e-05
0.0001288885
-0.00011660192
0.0063736986
0.0064433355
0.0065892273
0.0067757664
0.0070042857
0.0072750491
0.0075871091
0.007940817
0.0083381169
0.0087822879
0.0092779607
0.0098314899
0.010451421
0.011149726
0.011942294
0.012854095
0.013915189
0.015191149
0.016729414
0.018781531
0.021281534
0.02568384
0.029981977
0.067894606
0.03749879
-0.012364177
-0.0094679499
-0.0058109622
-0.0044250174
-0.0034746536
-0.0027202063
-0.0021795524
-0.0017685851
-0.0014409228
-0.0011737375
-0.00095075979
-0.00076094994
-0.00059687503
-0.00045319922
-0.00032603793
-0.00021251979
-0.00011043227
-1.8035268e-05
6.6053239e-05
0.00014294358
0.00021353884
0.00027858357
0.00033869921
0.00039441059
0.00044616373
0.00049433682
0.00053925302
0.00058119084
0.00062039313
0.00065707283
0.00069141616
0.0007235861
0.00075372731
0.00078196914
0.00080842792
0.00083320697
0.00085639765
0.00087808204
0.00089833407
0.00091722025
0.00093480058
0.00095112858
0.00096625209
0.00098021509
0.00099305816
0.0010048186
0.0010155293
0.0010252189
0.0010339138
0.0010416378
0.0010484124
0.0010542557
0.0010591835
0.0010632103
0.001066349
0.0010686116
0.0010700072
0.001070549
0.0010702286
0.0010690517
0.0010670343
0.0010641704
0.0010604558
0.0010558852
0.0010504562
0.0010441607
0.001036989
0.0010289299
0.00101997
0.0010100922
0.0009992818
0.00098751633
0.00097476429
0.00096099719
0.00094618241
0.00093028133
0.00091324951
0.00089503566
0.00087558379
0.00085482182
0.00083266347
0.00080901336
0.00078375048
0.00075671785
0.00072770899
0.00069639909
0.00066235112
0.00062393051
0.00058324935
0.00054558021
0.00051157933
0.00047951452
0.00044853582
0.00041837091
0.0003888774
0.00035995958
0.00033157072
0.00030370609
0.00027638758
0.00024965793
0.00022358486
0.00019826851
0.00017383943
0.00015051516
0.00012850363
0.00010848299
9.0339323e-05
7.8109567e-05
6.4468383e-05
0.00012888854
-0.0001166019
0.0063736986
0.0064433356
0.0065892274
0.0067757665
0.0070042859
0.0072750494
0.0075871095
0.0079408174
0.0083381175
0.0087822888
0.0092779618
0.0098314914
0.010451423
0.011149729
0.011942298
0.012854101
0.013915197
0.015191162
0.016729431
0.018781563
0.021281578
0.025683926
0.02998202
0.067877098
0.037519454
-0.012357046
-0.0094656221
-0.0058101237
-0.0044245751
-0.0034743504
-0.0027199816
-0.0021793817
-0.0017684511
-0.0014408147
-0.0011736487
-0.00095068569
-0.0007608873
-0.00059682147
-0.00045315297
-0.00032599765
-0.00021248444
-0.00011040104
-1.8007507e-05
6.6078055e-05
0.00014296587
0.00021355896
0.00027860182
0.00033871581
0.00039442576
0.00044617763
0.00049434962
0.00053926482
0.00058120176
0.00062040326
0.00065708226
0.00069142495
0.00072359432
0.00075373501
0.00078197636
0.00080843472
0.00083321338
0.0008564037
0.00087808775
0.00089833949
0.00091722539
0.00093480546
0.00095113321
0.0009662565
0.00098021929
0.00099306217
0.0010048224
0.0010155329
0.0010252224
0.0010339171
0.001041641
0.0010484155
0.0010542586
0.0010591864
0.001063213
0.0010663516
0.0010686141
0.0010700096
0.0010705513
0.0010702307
0.0010690538
0.0010670363
0.0010641723
0.0010604576
0.0010558869
0.0010504579
0.0010441624
0.0010369905
0.0010289313
0.0010199714
0.0010100935
0.00099928308
0.00098751754
0.00097476544
0.00096099829
0.00094618345
0.00093028231
0.00091325045
0.00089503654
0.00087558462
0.0008548226
0.0008326642
0.00080901404
0.00078375112
0.00075671845
0.00072770954
0.00069639961
0.00066235159
0.00062393093
0.00058324968
0.00054558047
0.00051157955
0.0004795147
0.00044853598
0.00041837105
0.00038887752
0.00035995969
0.00033157083
0.00030370619
0.00027638767
0.00024965801
0.00022358493
0.00019826857
0.00017383949
0.00015051522
0.00012850369
0.00010848304
9.0339369e-05
7.8109615e-05
6.4468428e-05
0.00012888859
-0.00011660187
0.0063736986
0.0064433357
0.0065892275
0.0067757667
0.0070042862
0.0072750497
0.0075871099
0.007940818
0.0083381183
0.0087822898
0.0092779632
0.0098314933
0.010451426
0.011149733
0.011942303
0.012854108
0.013915207
0.015191177
0.016729452
0.018781601
0.021281631
0.025684031
0.029982073
0.067856801
0.037541991
-0.012349045
-0.0094629538
-0.0058091485
-0.004424059
-0.0034739968
-0.0027197195
-0.0021791822
-0.0017682943
-0.0014406882
-0.0011735446
-0.00095059875
-0.00076081372
-0.0005967585
-0.00045309855
-0.00032595022
-0.00021244279
-0.00011036422
-1.7974757e-05
6.6107344e-05
0.0001429922
0.00021358274
0.00027862338
0.00033873544
0.00039444369
0.00044619408
0.00049436475
0.00053927878
0.00058121468
0.00062041525
0.00065709341
0.00069143534
0.00072360404
0.00075374411
0.0007819849
0.00080844275
0.00083322094
0.00085641083
0.0008780945
0.00089834587
0.00091723144
0.0009348112
0.00095113867
0.00096626169
0.00098022424
0.00099306688
0.0010048269
0.0010155372
0.0010252265
0.001033921
0.0010416448
0.0010484191
0.0010542621
0.0010591897
0.0010632161
0.0010663546
0.001068617
0.0010700123
0.001070554
0.0010702333
0.0010690563
0.0010670387
0.0010641746
0.0010604598
0.001055889
0.0010504599
0.0010441643
0.0010369923
0.0010289331
0.001019973
0.0010100951
0.00099928457
0.00098751897
0.00097476679
0.00096099957
0.00094618467
0.00093028346
0.00091325153
0.00089503756
0.00087558559
0.00085482351
0.00083266506
0.00080901485
0.00078375187
0.00075671915
0.00072771019
0.00069640021
0.00066235215
0.00062393142
0.00058325007
0.00054558079
0.00051157981
0.00047951493
0.00044853618
0.00041837123
0.00038887768
0.00035995983
0.00033157095
0.0003037063
0.00027638777
0.00024965811
0.00022358502
0.00019826865
0.00017383956
0.00015051528
0.00012850375
0.00010848311
9.0339426e-05
7.8109674e-05
6.4468483e-05
0.00012888865
-0.00011660183
0.0063736986
0.0064433359
0.0065892277
0.0067757669
0.0070042865
0.0072750501
0.0075871104
0.0079408187
0.0083381192
0.0087822911
0.0092779649
0.0098314956
0.010451429
0.011149737
0.011942309
0.012854116
0.013915219
0.015191195
0.016729478
0.018781647
0.021281694
0.025684157
0.02998214
0.067833188
0.0375665
-0.012339757
-0.009459886
-0.0058080108
-0.0044234547
-0.0034735829
-0.0027194128
-0.0021789485
-0.0017681103
-0.0014405396
-0.0011734222
-0.00095049641
-0.00076072703
-0.00059668424
-0.00045303432
-0.0003258942
-0.00021239356
-0.00011032066
-1.7935997e-05
6.6142027e-05
0.00014302339
0.00021361091
0.00027864893
0.00033875872
0.00039446497
0.00044621359
0.0004943827
0.00053929535
0.00058123001
0.00062042947
0.00065710664
0.00069144767
0.00072361556
0.0007537549
0.00078199502
0.00080845226
0.0008332299
0.00085641928
0.00087810248
0.00089835343
0.0009172386
0.00093481799
0.00095114512
0.00096626783
0.00098023008
0.00099307245
0.0010048323
0.0010155423
0.0010252314
0.0010339257
0.0010416492
0.0010484233
0.0010542661
0.0010591935
0.0010632199
0.0010663582
0.0010686204
0.0010700156
0.0010705571
0.0010702363
0.0010690591
0.0010670414
0.0010641772
0.0010604623
0.0010558914
0.0010504622
0.0010441665
0.0010369945
0.0010289351
0.001019975
0.001010097
0.00099928632
0.00098752063
0.00097476837
0.00096100107
0.00094618609
0.00093028481
0.00091325281
0.00089503877
0.00087558672
0.00085482458
0.00083266606
0.00080901578
0.00078375275
0.00075671997
0.00072771095
0.00069640092
0.0006623528
0.000623932
0.00058325054
0.00054558117
0.00051158013
0.0004795152
0.00044853642
0.00041837144
0.00038887787
0.00035996
0.00033157111
0.00030370644
0.0002763879
0.00024965822
0.00022358512
0.00019826875
0.00017383965
0.00015051537
0.00012850383
0.00010848318
9.0339496e-05
7.8109746e-05
6.4468549e-05
0.00012888872
-0.00011660178
0.0063736986
0.006443336
0.0065892279
0.0067757672
0.0070042868
0.0072750506
0.0075871111
0.0079408195
0.0083381203
0.0087822926
0.0092779669
0.0098314983
0.010451433
0.011149742
0.011942316
0.012854126
0.013915233
0.015191216
0.016729508
0.018781702
0.021281768
0.025684307
0.029982224
0.067805635
0.037593023
-0.012328078
-0.009456351
-0.0058066808
-0.0044227458
-0.0034730976
-0.0027190531
-0.0021786741
-0.001767894
-0.0014403646
-0.0011732779
-0.00095037569
-0.00076062468
-0.00059659649
-0.00045295836
-0.00032582789
-0.00021233525
-0.00011026904
-1.7890032e-05
6.6183179e-05
0.00014306041
0.00021364437
0.0002786793
0.00033878638
0.00039449026
0.00044623678
0.00049440404
0.00053931504
0.00058124823
0.00062044638
0.00065712236
0.00069146233
0.00072362925
0.00075376772
0.00078200705
0.00080846357
0.00083324054
0.00085642932
0.00087811196
0.00089836239
0.00091724709
0.00093482604
0.00095115277
0.0009662751
0.000980237
0.00099307904
0.0010048385
0.0010155483
0.0010252371
0.0010339311
0.0010416544
0.0010484283
0.0010542709
0.0010591981
0.0010632242
0.0010663624
0.0010686244
0.0010700195
0.0010705608
0.0010702399
0.0010690625
0.0010670447
0.0010641803
0.0010604653
0.0010558943
0.0010504649
0.0010441691
0.0010369969
0.0010289375
0.0010199772
0.0010100991
0.00099928838
0.00098752259
0.00097477023
0.00096100284
0.00094618776
0.0009302864
0.00091325431
0.00089504018
0.00087558806
0.00085482583
0.00083266724
0.00080901689
0.00078375378
0.00075672093
0.00072771185
0.00069640175
0.00066235357
0.00062393268
0.0005832511
0.00054558162
0.00051158051
0.00047951553