/*--------------------------------*- C++ -*----------------------------------*\
| =========                 |                                                 |
| \\      /  F ield         | OpenFOAM: The Open Source CFD Toolbox           |
|  \\    /   O peration     | Version:  2206                                  |
|   \\  /    A nd           | Website:  www.openfoam.com                      |
|    \\/     M anipulation  |                                                 |
\*---------------------------------------------------------------------------*/
FoamFile
{
    version     2.0;
    format      ascii;
    arch        "LSB;label=32;scalar=64";
    class       surfaceScalarField;
    location    "300";
    object      phi;
}
// * * * * * * * * * * * * * * * * * * * * * * * * * * * * * * * * * * * * * //

dimensions      [0 3 -1 0 0 0 0];

oriented        oriented;

internalField   nonuniform List<scalar> 
25880
(
2.0046531e-06
1.0889067e-12
2.0046509e-06
2.1716171e-12
2.0046486e-06
2.3348575e-12
2.0046459e-06
2.6040263e-12
2.0046429e-06
3.0831269e-12
2.0046392e-06
3.6730235e-12
2.0046348e-06
4.3934578e-12
2.0046295e-06
5.2933315e-12
2.0046231e-06
6.4230332e-12
2.0046152e-06
7.8448971e-12
2.0046056e-06
9.6447585e-12
2.0045936e-06
1.1953392e-11
2.0045787e-06
1.4945036e-11
2.0045597e-06
1.8949202e-11
2.0045355e-06
2.4295e-11
2.0045033e-06
3.2153836e-11
2.0044606e-06
4.265333e-11
2.0043986e-06
6.2077762e-11
2.0043145e-06
8.407687e-11
2.0041627e-06
1.5182628e-10
2.0039744e-06
1.8826634e-10
2.0035174e-06
4.5694915e-10
2.0034294e-06
8.8051535e-11
1.0060127e-06
9.9741672e-07
6.4538493e-09
9.9955882e-07
4.8129263e-09
1.6409229e-09
4.5674031e-09
2.4552312e-10
4.4858971e-09
8.1506022e-11
4.4433527e-09
4.2544361e-11
4.4137213e-09
2.9631454e-11
4.3915393e-09
2.2182e-11
4.3746402e-09
1.689905e-11
4.3613367e-09
1.3303528e-11
4.350568e-09
1.0768675e-11
4.3416776e-09
8.890433e-12
4.3342211e-09
7.4564541e-12
4.3278815e-09
6.3396515e-12
4.3224265e-09
5.4550048e-12
4.3176831e-09
4.7433134e-12
4.3135204e-09
4.1627737e-12
4.3098369e-09
3.6834747e-12
4.3065533e-09
3.2836374e-12
4.3036062e-09
2.9470955e-12
4.3009446e-09
2.661577e-12
4.298527e-09
2.4175767e-12
4.2963193e-09
2.2076757e-12
4.2942933e-09
2.0260563e-12
4.2924252e-09
1.8680914e-12
4.2906951e-09
1.7300433e-12
4.2890863e-09
1.6088648e-12
4.2875842e-09
1.5020654e-12
4.2861766e-09
1.4075976e-12
4.2848528e-09
1.3237605e-12
4.2836037e-09
1.2491292e-12
4.2824212e-09
1.1825011e-12
4.2812984e-09
1.1228587e-12
4.280229e-09
1.0693406e-12
4.2792078e-09
1.0212122e-12
4.27823e-09
9.7783834e-13
4.2772913e-09
9.3866796e-13
4.2763881e-09
9.0322663e-13
4.275517e-09
8.7110459e-13
4.274675e-09
8.4194264e-13
4.2738596e-09
8.1542498e-13
4.2730683e-09
7.9127419e-13
4.2722991e-09
7.6924549e-13
4.27155e-09
7.4912195e-13
4.2708192e-09
7.3071141e-13
4.2701054e-09
7.1384455e-13
4.269407e-09
6.9836979e-13
4.2687229e-09
6.8414858e-13
4.2680518e-09
6.7105664e-13
4.2673928e-09
6.5898446e-13
4.266745e-09
6.4783354e-13
4.2661075e-09
6.3751378e-13
4.2654795e-09
6.2794316e-13
4.2648605e-09
6.190475e-13
4.2642497e-09
6.1075989e-13
4.2636467e-09
6.0301847e-13
4.263051e-09
5.9576743e-13
4.262462e-09
5.8895585e-13
4.2618795e-09
5.8251856e-13
4.261303e-09
5.7645566e-13
4.2607323e-09
5.7069398e-13
4.2601671e-09
5.6518299e-13
4.2596073e-09
5.5984535e-13
4.2590523e-09
5.5496527e-13
4.2585022e-09
5.5010494e-13
4.2579571e-09
5.4516517e-13
4.2574165e-09
5.4061127e-13
4.2568804e-09
5.3608883e-13
4.2563487e-09
5.3163275e-13
4.2558215e-09
5.2722474e-13
4.2552987e-09
5.2284464e-13
4.2547802e-09
5.1847302e-13
4.2542661e-09
5.1409129e-13
4.2537564e-09
5.0968281e-13
4.2532512e-09
5.0523107e-13
4.2527505e-09
5.0071884e-13
4.2522543e-09
4.9612986e-13
4.2517629e-09
4.9144883e-13
4.2512762e-09
4.8666068e-13
4.2507945e-09
4.8174917e-13
4.2503178e-09
4.7669747e-13
4.2498463e-09
4.7149001e-13
4.2493802e-09
4.661098e-13
4.2489196e-09
4.6053188e-13
4.2484649e-09
4.5472919e-13
4.2480163e-09
4.4863007e-13
4.2475741e-09
4.4223185e-13
4.2471394e-09
4.3465954e-13
4.2467107e-09
4.2870164e-13
4.246317e-09
3.9373821e-13
4.2460096e-09
3.0737702e-13
4.2457766e-09
2.3294581e-13
4.2455889e-09
1.8776349e-13
4.2454319e-09
1.5694463e-13
4.2452974e-09
1.3448923e-13
4.2451803e-09
1.1711778e-13
4.2450772e-09
1.0309082e-13
4.2449857e-09
9.149103e-14
4.244904e-09
8.1754274e-14
4.2448305e-09
7.3482019e-14
4.2447641e-09
6.6382844e-14
4.2447039e-09
6.0243925e-14
4.244649e-09
5.4905431e-14
4.2445987e-09
5.0252304e-14
4.2445525e-09
4.6182957e-14
4.2445098e-09
4.2688772e-14
4.2444702e-09
3.9599992e-14
4.2444327e-09
3.7508301e-14
4.2443978e-09
3.4910374e-14
4.2443602e-09
3.7577068e-14
4.2443251e-09
3.5105329e-14
4.2442905e-09
3.4611203e-14
2.3200088e-14
2.0345269e-06
2.2339772e-12
2.0345246e-06
4.459246e-12
2.0345222e-06
4.7986484e-12
2.0345194e-06
5.3520915e-12
2.0345162e-06
6.3355579e-12
2.0345123e-06
7.5459485e-12
2.0345077e-06
9.023568e-12
2.0345021e-06
1.0868549e-11
2.0344953e-06
1.318399e-11
2.0344871e-06
1.6097356e-11
2.0344769e-06
1.9784128e-11
2.0344644e-06
2.4511668e-11
2.0344487e-06
3.0636069e-11
2.0344288e-06
3.8830913e-11
2.0344033e-06
4.9768304e-11
2.0343696e-06
6.5842455e-11
2.034325e-06
8.7311164e-11
2.03426e-06
1.27015e-10
2.0341722e-06
1.7197017e-10
2.0340136e-06
3.1036021e-10
2.0338169e-06
3.8501691e-10
2.0333395e-06
9.3430856e-10
2.0332475e-06
1.8004249e-10
1.0290104e-06
2.0016538e-06
1.9680403e-08
2.0088888e-06
1.4691898e-08
6.6294276e-09
1.3938901e-08
9.9852066e-10
1.3688295e-08
3.3211199e-10
1.3557458e-08
1.7338165e-10
1.3466362e-08
1.2072707e-10
1.3398167e-08
9.0376952e-11
1.3346208e-08
6.8858336e-11
1.3305299e-08
5.4212116e-11
1.3272182e-08
4.3885928e-11
1.3244838e-08
3.6234149e-11
1.3221903e-08
3.039204e-11
1.32024e-08
2.5841902e-11
1.3185618e-08
2.2237386e-11
1.3171024e-08
1.9337383e-11
1.3158215e-08
1.6971641e-11
1.314688e-08
1.501833e-11
1.3136775e-08
1.3388739e-11
1.3127705e-08
1.2017021e-11
1.3119513e-08
1.0853186e-11
1.3112073e-08
9.8585171e-12
1.3105277e-08
9.0027933e-12
1.3099041e-08
8.2623139e-12
1.3093291e-08
7.6182288e-12
1.3087966e-08
7.0553108e-12
1.3083013e-08
6.561145e-12
1.307839e-08
6.1255852e-12
1.3074057e-08
5.7402881e-12
1.3069983e-08
5.398323e-12
1.3066138e-08
5.0938844e-12
1.3062498e-08
4.8220718e-12
1.3059042e-08
4.5787386e-12
1.3055751e-08
4.3603748e-12
1.3052609e-08
4.1639858e-12
1.30496e-08
3.9869841e-12
1.3046711e-08
3.8271233e-12
1.3043932e-08
3.6824698e-12
1.3041252e-08
3.5513535e-12
1.3038661e-08
3.4323102e-12
1.3036153e-08
3.3240529e-12
1.3033718e-08
3.2254505e-12
1.3031352e-08
3.1355054e-12
1.3029048e-08
3.0533331e-12
1.30268e-08
2.9781503e-12
1.3024605e-08
2.9092667e-12
1.3022457e-08
2.8460643e-12
1.3020354e-08
2.7879784e-12
1.301829e-08
2.7345022e-12
1.3016264e-08
2.6851893e-12
1.3014272e-08
2.6396378e-12
1.3012312e-08
2.5974805e-12
1.3010382e-08
2.5583831e-12
1.3008479e-08
2.5220429e-12
1.3006601e-08
2.4881871e-12
1.3004748e-08
2.4565635e-12
1.3002917e-08
2.4269444e-12
1.3001106e-08
2.3991222e-12
1.2999316e-08
2.372834e-12
1.2997544e-08
2.3480692e-12
1.2995791e-08
2.3245429e-12
1.2994054e-08
2.3020497e-12
1.2992333e-08
2.2802615e-12
1.2990628e-08
2.2603397e-12
1.2988938e-08
2.2405075e-12
1.2987262e-08
2.2203615e-12
1.2985601e-08
2.2017868e-12
1.2983954e-08
2.183347e-12
1.298232e-08
2.1651823e-12
1.29807e-08
2.1472183e-12
1.2979094e-08
2.1293726e-12
1.2977501e-08
2.1115659e-12
1.2975921e-08
2.0937225e-12
1.2974355e-08
2.0757746e-12
1.2972803e-08
2.0576545e-12
1.2971264e-08
2.0392921e-12
1.296974e-08
2.0206211e-12
1.2968229e-08
2.001579e-12
1.2966734e-08
1.9821042e-12
1.2965254e-08
1.9621307e-12
1.2963789e-08
1.9415897e-12
1.296234e-08
1.9204178e-12
1.2960907e-08
1.8985455e-12
1.2959492e-08
1.8758712e-12
1.2958094e-08
1.8522848e-12
1.2956716e-08
1.8274946e-12
1.2955356e-08
1.80149e-12
1.295402e-08
1.7707131e-12
1.2952702e-08
1.7464996e-12
1.2951492e-08
1.6045269e-12
1.2950546e-08
1.2535289e-12
1.2949828e-08
9.5072254e-13
1.2949249e-08
7.6669813e-13
1.2948765e-08
6.410785e-13
1.294835e-08
5.4949635e-13
1.2947988e-08
4.7862108e-13
1.294767e-08
4.2137541e-13
1.2947387e-08
3.7402413e-13
1.2947135e-08
3.3426931e-13
1.2946908e-08
3.0048741e-13
1.2946703e-08
2.7149088e-13
1.2946517e-08
2.4641223e-13
1.2946347e-08
2.2459978e-13
1.2946192e-08
2.0558427e-13
1.2946049e-08
1.8895114e-13
1.2945917e-08
1.7466499e-13
1.2945794e-08
1.6203218e-13
1.2945678e-08
1.5346526e-13
1.294557e-08
1.4282497e-13
1.2945454e-08
1.5365405e-13
1.2945346e-08
1.4319987e-13
1.2945238e-08
1.4300993e-13
9.2843072e-14
2.0947199e-06
3.4652165e-12
2.0947174e-06
6.9245203e-12
2.0947147e-06
7.4594656e-12
2.0947118e-06
8.3202041e-12
2.0947082e-06
9.8467912e-12
2.0947041e-06
1.1724719e-11
2.0946991e-06
1.4016124e-11
2.0946931e-06
1.6875978e-11
2.0946858e-06
2.0463708e-11
2.0946769e-06
2.4976276e-11
2.094666e-06
3.0684771e-11
2.0946525e-06
3.8002228e-11
2.0946357e-06
4.7478525e-11
2.0946144e-06
6.0154105e-11
2.0945871e-06
7.7065853e-11
2.094551e-06
1.0191145e-10
2.0945032e-06
1.3508288e-10
2.0944338e-06
1.9640543e-10
2.09434e-06
2.6581341e-10
2.0941709e-06
4.7939575e-10
2.093961e-06
5.9498202e-10
2.0934517e-06
1.4435833e-09
2.0933544e-06
2.7735379e-10
1.0678135e-06
3.0271947e-06
3.3983741e-08
3.0427186e-06
2.5376649e-08
1.5236519e-08
2.4067324e-08
2.3078465e-09
2.3630319e-08
7.691166e-10
2.3402058e-08
4.0164212e-10
2.3243177e-08
2.7960843e-10
2.3124239e-08
2.0931519e-10
2.30336e-08
1.594974e-10
2.2962224e-08
1.2558749e-10
2.2904434e-08
1.0167675e-10
2.2856711e-08
8.3957257e-11
2.2816675e-08
7.0427654e-11
2.2782627e-08
5.9889322e-11
2.2753325e-08
5.154034e-11
2.2727839e-08
4.4822566e-11
2.2705469e-08
3.9341899e-11
2.2685671e-08
3.4816302e-11
2.2668019e-08
3.1040388e-11
2.2652175e-08
2.7861697e-11
2.2637863e-08
2.5164489e-11
2.2624863e-08
2.2859117e-11
2.261299e-08
2.0875602e-11
2.2602093e-08
1.9159061e-11
2.2592046e-08
1.7665838e-11
2.258274e-08
1.6360668e-11
2.2574087e-08
1.5214799e-11
2.2566008e-08
1.4204733e-11
2.2558437e-08
1.3311142e-11
2.2551317e-08
1.2517972e-11
2.2544599e-08
1.1811776e-11
2.253824e-08
1.11812e-11
2.2532202e-08
1.0616639e-11
2.2526453e-08
1.0109961e-11
2.2520962e-08
9.6542267e-12
2.2515706e-08
9.2434417e-12
2.2510661e-08
8.8724005e-12
2.2505806e-08
8.536623e-12
2.2501126e-08
8.2322388e-12
2.2496602e-08
7.955855e-12
2.2492222e-08
7.7044886e-12
2.2487971e-08
7.4755187e-12
2.248384e-08
7.2666326e-12
2.2479818e-08
7.0757808e-12
2.2475895e-08
6.9011475e-12
2.2472063e-08
6.7411323e-12
2.2468315e-08
6.5943031e-12
2.2464643e-08
6.4593507e-12
2.2461043e-08
6.3351004e-12
2.2457508e-08
6.220517e-12
2.2454032e-08
6.1146691e-12
2.2450613e-08
6.0167053e-12
2.2447246e-08
5.9258502e-12
2.2443926e-08
5.8414025e-12
2.2440652e-08
5.7627292e-12
2.2437419e-08
5.6892455e-12
2.2434226e-08
5.6204238e-12
2.2431069e-08
5.5557825e-12
2.2427947e-08
5.4947169e-12
2.2424858e-08
5.4371824e-12
2.24218e-08
5.3825432e-12
2.2418772e-08
5.3303253e-12
2.2415772e-08
5.2797446e-12
2.2412799e-08
5.2334898e-12
2.2409852e-08
5.187469e-12
2.2406932e-08
5.1407499e-12
2.2404036e-08
5.0976669e-12
2.2401164e-08
5.054916e-12
2.2398317e-08
5.0128163e-12
2.2395493e-08
4.9711945e-12
2.2392692e-08
4.9298602e-12
2.2389915e-08
4.8886288e-12
2.2387162e-08
4.8473251e-12
2.2384432e-08
4.8057918e-12
2.2381725e-08
4.7638716e-12
2.2379043e-08
4.7214018e-12
2.2376386e-08
4.6782286e-12
2.2373753e-08
4.6342072e-12
2.2371146e-08
4.5891946e-12
2.2368565e-08
4.5430373e-12
2.2366011e-08
4.4955762e-12
2.2363485e-08
4.4466639e-12
2.2360987e-08
4.3961394e-12
2.2358519e-08
4.3437672e-12
2.2356082e-08
4.2892921e-12
2.2353678e-08
4.2320396e-12
2.2351307e-08
4.1719843e-12
2.2348977e-08
4.1009057e-12
2.2346679e-08
4.0449804e-12
2.2344566e-08
3.7175154e-12
2.2342912e-08
2.9070031e-12
2.2341656e-08
2.206895e-12
2.2340642e-08
1.7807951e-12
2.2339793e-08
1.489654e-12
2.2339066e-08
1.2772536e-12
2.2338431e-08
1.1127997e-12
2.2337873e-08
9.7992577e-13
2.2337377e-08
8.6998624e-13
2.2336933e-08
7.7765992e-13
2.2336535e-08
6.9918648e-13
2.2336174e-08
6.3181467e-13
2.2335847e-08
5.7353393e-13
2.2335549e-08
5.228335e-13
2.2335276e-08
4.7862516e-13
2.2335025e-08
4.3994724e-13
2.2334793e-08
4.0671655e-13
2.2334578e-08
3.7732385e-13
2.2334374e-08
3.5735696e-13
2.2334184e-08
3.3258275e-13
2.233398e-08
3.5753211e-13
2.2333791e-08
3.3280767e-13
2.2333599e-08
3.3465946e-13
2.1381187e-13
2.1861289e-06
4.8177975e-12
2.1861262e-06
9.639961e-12
2.1861232e-06
1.0397745e-11
2.1861199e-06
1.1598197e-11
2.1861161e-06
1.3722515e-11
2.1861115e-06
1.633431e-11
2.186106e-06
1.9519335e-11
2.1860993e-06
2.3492492e-11
2.1860913e-06
2.8474651e-11
2.1860816e-06
3.4738455e-11
2.1860696e-06
4.2659032e-11
2.1860548e-06
5.2807948e-11
2.1860363e-06
6.594575e-11
2.186013e-06
8.3511987e-11
2.1859831e-06
1.069392e-10
2.1859437e-06
1.413427e-10
2.1858915e-06
1.8725451e-10
2.1858158e-06
2.7209103e-10
2.1857135e-06
3.6807096e-10
2.1855296e-06
6.6329043e-10
2.185301e-06
8.2363448e-10
2.1847466e-06
1.9979758e-09
2.1846416e-06
3.82373e-10
1.1233649e-06
4.0884714e-06
5.0164518e-08
4.115919e-06
3.7446554e-08
2.7954483e-08
3.5495496e-08
4.2589038e-09
3.4841879e-08
1.4227336e-09
3.4500228e-08
7.4329336e-10
3.4262487e-08
5.1734985e-10
3.408452e-08
3.872821e-10
3.3948857e-08
2.9515975e-10
3.3841996e-08
2.3244876e-10
3.3755452e-08
1.8822107e-10
3.3683968e-08
1.5544131e-10
3.3623985e-08
1.3041025e-10
3.3572963e-08
1.1091121e-10
3.3529042e-08
9.5461131e-11
3.3490837e-08
8.3028039e-11
3.3457296e-08
7.2883289e-11
3.3427606e-08
6.4505345e-11
3.3401133e-08
5.7514381e-11
3.3377366e-08
5.1628421e-11
3.3355897e-08
4.6633395e-11
3.3336393e-08
4.236349e-11
3.3318579e-08
3.8689264e-11
3.3302229e-08
3.5509185e-11
3.3287152e-08
3.2742482e-11
3.3273189e-08
3.0323908e-11
3.3260203e-08
2.8200266e-11
3.324808e-08
2.6328072e-11
3.323672e-08
2.4671561e-11
3.3226037e-08
2.3201021e-11
3.3215957e-08
2.1891561e-11
3.3206416e-08
2.0722169e-11
3.3197357e-08
1.9675065e-11
3.3188732e-08
1.8735195e-11
3.3180497e-08
1.7889713e-11
3.3172613e-08
1.7127521e-11
3.3165046e-08
1.6438981e-11
3.3157767e-08
1.5815798e-11
3.3150748e-08
1.5250805e-11
3.3143966e-08
1.4737719e-11
3.31374e-08
1.4271015e-11
3.313103e-08
1.384584e-11
3.3124838e-08
1.345791e-11
3.3118811e-08
1.310343e-11
3.3112933e-08
1.2779035e-11
3.3107192e-08
1.2481762e-11
3.3101577e-08
1.2208957e-11
3.3096079e-08
1.1958195e-11
3.3090686e-08
1.17273e-11
3.3085393e-08
1.1514354e-11
3.308019e-08
1.131763e-11
3.3075071e-08
1.1135552e-11
3.307003e-08
1.0966682e-11
3.3065062e-08
1.0809721e-11
3.3060161e-08
1.0663496e-11
3.3055323e-08
1.0526923e-11
3.3050545e-08
1.0399025e-11
3.3045821e-08
1.0278907e-11
3.3041151e-08
1.016546e-11
3.3036529e-08
1.0058564e-11
3.3031955e-08
9.9570858e-12
3.3027425e-08
9.8601505e-12
3.3022938e-08
9.7662664e-12
3.3018492e-08
9.6803915e-12
3.3014084e-08
9.5950153e-12
3.3009716e-08
9.5084168e-12
3.3005385e-08
9.4285399e-12
3.3001091e-08
9.3493255e-12
3.2996832e-08
9.2713504e-12
3.2992609e-08
9.1942931e-12
3.2988421e-08
9.1178003e-12
3.2984269e-08
9.0415296e-12
3.2980151e-08
8.9651564e-12
3.2976068e-08
8.8883888e-12
3.2972021e-08
8.8109348e-12
3.296801e-08
8.7324928e-12
3.2964035e-08
8.6527773e-12
3.2960098e-08
8.5715199e-12
3.2956199e-08
8.4884553e-12
3.2952339e-08
8.4032988e-12
3.2948518e-08
8.3157553e-12
3.294474e-08
8.2255512e-12
3.2941003e-08
8.132388e-12
3.2937311e-08
8.03583e-12
3.2933665e-08
7.9354042e-12
3.2930067e-08
7.8298645e-12
3.292652e-08
7.7191623e-12
3.2923033e-08
7.5881306e-12
3.2919593e-08
7.4850136e-12
3.2916428e-08
6.8824298e-12
3.2913946e-08
5.3886623e-12
3.2912057e-08
4.0961528e-12
3.291053e-08
3.3079348e-12
3.2909251e-08
2.7687029e-12
3.2908153e-08
2.374925e-12
3.2907196e-08
2.0698578e-12
3.2906353e-08
1.8232609e-12
3.2905604e-08
1.6191491e-12
3.2904934e-08
1.4476783e-12
3.2904331e-08
1.3018896e-12
3.2903786e-08
1.1766899e-12
3.2903291e-08
1.0683555e-12
3.290284e-08
9.7408722e-13
3.2902427e-08
8.9186815e-13
3.2902047e-08
8.1991539e-13
3.2901695e-08
7.5807226e-13
3.2901369e-08
7.0335654e-13
3.2901061e-08
6.6610664e-13
3.2900773e-08
6.1996859e-13
3.2900465e-08
6.6579975e-13
3.2900178e-08
6.1933713e-13
3.2899887e-08
6.2560114e-13
3.9608929e-13
2.3101162e-06
6.3341623e-12
2.3101131e-06
1.2693506e-11
2.3101098e-06
1.3711458e-11
2.3101061e-06
1.5295516e-11
2.3101017e-06
1.8091375e-11
2.3100965e-06
2.152668e-11
2.3100903e-06
2.5713184e-11
2.3100829e-06
3.0932581e-11
2.3100739e-06
3.7474088e-11
2.310063e-06
4.5694358e-11
2.3100495e-06
5.6083921e-11
2.3100329e-06
6.9390199e-11
2.3100123e-06
8.6607153e-11
2.3099862e-06
1.0961688e-10
2.3099528e-06
1.4028916e-10
2.3099089e-06
1.8531064e-10
2.3098508e-06
2.4536127e-10
2.3097666e-06
3.5626511e-10
2.309653e-06
4.8167161e-10
2.3094491e-06
8.6720508e-10
2.3091952e-06
1.0774694e-09
2.3085801e-06
2.6131499e-09
2.3084645e-06
4.9790987e-10
1.1968975e-06
5.2000384e-06
6.9116476e-08
5.2437e-06
5.1546315e-08
4.5524645e-08
4.8825465e-08
6.9797533e-09
4.7909719e-08
2.3384801e-09
4.7430603e-08
1.2224095e-09
4.7097292e-08
8.5066064e-10
4.6847795e-08
6.3677915e-10
4.6657532e-08
4.8542246e-10
4.6507602e-08
3.8237903e-10
4.6386136e-08
3.096866e-10
4.6285777e-08
2.5580091e-10
4.6201539e-08
2.1464795e-10
4.6129865e-08
1.8258533e-10
4.606815e-08
1.5717617e-10
4.6014453e-08
1.3672523e-10
4.59673e-08
1.2003559e-10
4.5925555e-08
1.062504e-10
4.5888324e-08
9.4745508e-11
4.5854895e-08
8.5057538e-11
4.5824694e-08
7.683466e-11
4.5797253e-08
6.9804357e-11
4.5772188e-08
6.3753867e-11
4.5749181e-08
5.8516273e-11
4.5727965e-08
5.3958778e-11
4.5708315e-08
4.9974099e-11
4.569004e-08
4.6474765e-11
4.5672979e-08
4.338927e-11
4.5656992e-08
4.0658792e-11
4.5641958e-08
3.8234457e-11
4.5627775e-08
3.6075321e-11
4.561435e-08
3.4146821e-11
4.5601605e-08
3.2419703e-11
4.5589471e-08
3.08692e-11
4.5577887e-08
2.9474175e-11
4.5566798e-08
2.8216362e-11
4.5556157e-08
2.7079903e-11
4.5545922e-08
2.6051143e-11
4.5536054e-08
2.5118286e-11
4.5526521e-08
2.4270991e-11
4.5517292e-08
2.3500162e-11
4.550834e-08
2.279781e-11
4.5499641e-08
2.2156882e-11
4.5491173e-08
2.1571127e-11
4.5482917e-08
2.1035006e-11
4.5474855e-08
2.0543639e-11
4.5466972e-08
2.0092655e-11
4.5459252e-08
1.9678061e-11
4.5451683e-08
1.9296272e-11
4.5444253e-08
1.8944129e-11
4.5436952e-08
1.8618789e-11
4.542977e-08
1.8317652e-11
4.5422698e-08
1.8038352e-11
4.5415729e-08
1.7778748e-11
4.5408856e-08
1.7536906e-11
4.5402071e-08
1.7311041e-11
4.5395371e-08
1.7099543e-11
4.5388749e-08
1.6900938e-11
4.5382201e-08
1.6713409e-11
4.5375723e-08
1.6536705e-11
4.5369311e-08
1.6369033e-11
4.5362962e-08
1.620895e-11
4.5356674e-08
1.6053946e-11
4.5350443e-08
1.5912118e-11
4.5344266e-08
1.5771249e-11
4.5338146e-08
1.5628518e-11
4.5332078e-08
1.5496827e-11
4.5326061e-08
1.5366327e-11
4.5320094e-08
1.5237938e-11
4.5314178e-08
1.5111128e-11
4.530831e-08
1.4985316e-11
4.5302492e-08
1.4859937e-11
4.5296722e-08
1.4734455e-11
4.5291002e-08
1.4608388e-11
4.5285332e-08
1.4481256e-11
4.5279712e-08
1.435256e-11
4.5274143e-08
1.422183e-11
4.5268626e-08
1.4088622e-11
4.5263162e-08
1.3952499e-11
4.5257752e-08
1.3812991e-11
4.5252398e-08
1.3669612e-11
4.5247102e-08
1.3521911e-11
4.5241865e-08
1.3369394e-11
4.5236689e-08
1.3211344e-11
4.5231578e-08
1.3046984e-11
4.5226533e-08
1.2874267e-11
4.5221559e-08
1.2693108e-11
4.5216669e-08
1.2478657e-11
4.5211844e-08
1.2309843e-11
4.5207401e-08
1.1326e-11
4.5203907e-08
8.8822e-12
4.520124e-08
6.7629246e-12
4.5199081e-08
5.46716e-12
4.519727e-08
4.5792323e-12
4.5195715e-08
3.9301152e-12
4.5194358e-08
3.4268058e-12
4.5193162e-08
3.0197256e-12
4.5192098e-08
2.6826141e-12
4.5191147e-08
2.3992865e-12
4.519029e-08
2.1582979e-12
4.5189516e-08
1.9512674e-12
4.5188812e-08
1.7720642e-12
4.518817e-08
1.6160778e-12
4.5187582e-08
1.4799843e-12
4.5187041e-08
1.3608447e-12
4.5186541e-08
1.2583964e-12
4.5186076e-08
1.1677268e-12
4.5185637e-08
1.105838e-12
4.5185227e-08
1.0293575e-12
4.5184789e-08
1.1040379e-12
4.5184382e-08
1.0265386e-12
4.5183967e-08
1.0406222e-12
6.5504854e-13
2.4685294e-06
8.0666797e-12
2.4685259e-06
1.6194211e-11
2.4685221e-06
1.7522659e-11
2.4685179e-06
1.9548541e-11
2.4685129e-06
2.3113539e-11
2.4685069e-06
2.7490824e-11
2.4684998e-06
3.2821243e-11
2.4684912e-06
3.9462316e-11
2.4684809e-06
4.7780678e-11
2.4684684e-06
5.8227938e-11
2.4684531e-06
7.1424941e-11
2.4684341e-06
8.8317705e-11
2.4684106e-06
1.1016343e-10
2.4683809e-06
1.3934378e-10
2.4683429e-06
1.7822021e-10
2.468293e-06
2.3525237e-10
2.4682271e-06
3.1127793e-10
2.4681317e-06
4.5159906e-10
2.4680032e-06
6.1017572e-10
2.467773e-06
1.0973911e-09
2.4674861e-06
1.3643704e-09
2.4667912e-06
3.30811e-09
2.4666618e-06
6.2732771e-10
1.2899736e-06
6.3767266e-06
9.1871868e-08
6.4418017e-06
6.8415728e-08
6.8980786e-08
6.4745196e-08
1.0650285e-08
6.3502925e-08
3.5807513e-09
6.2852236e-08
1.8730979e-09
6.2399676e-08
1.303221e-09
6.2060932e-08
9.7552302e-10
6.1802487e-08
7.438677e-10
6.1598724e-08
5.8614139e-10
6.1433578e-08
4.7483334e-10
6.1297074e-08
3.923047e-10
6.1182455e-08
3.2926686e-10
6.1084896e-08
2.8014429e-10
6.1000865e-08
2.4120702e-10
6.0927729e-08
2.0986103e-10
6.086349e-08
1.8427484e-10
6.0806603e-08
1.6313708e-10
6.0755857e-08
1.4549232e-10
6.0710283e-08
1.3063114e-10
6.0669103e-08
1.1801507e-10
6.0631681e-08
1.0722611e-10
6.0597495e-08
9.7939175e-11
6.0566113e-08
8.9898381e-11
6.0537172e-08
8.2900284e-11
6.0510365e-08
7.6780524e-11
6.0485435e-08
7.1405092e-11
6.046216e-08
6.6664423e-11
6.044035e-08
6.2468372e-11
6.0419843e-08
5.8742027e-11
6.0400495e-08
5.542263e-11
6.0382185e-08
5.2457196e-11
6.0364804e-08
4.980088e-11
6.0348257e-08
4.7415702e-11
6.0332462e-08
4.5269253e-11
6.0317345e-08
4.3333522e-11
6.0302841e-08
4.1584183e-11
6.0288892e-08
4.0000294e-11
6.0275446e-08
3.8563759e-11
6.0262459e-08
3.7258712e-11
6.0249888e-08
3.60712e-11
6.0237696e-08
3.4988962e-11
6.0225852e-08
3.4001177e-11
6.0214325e-08
3.3098249e-11
6.0203088e-08
3.227168e-11
6.0192118e-08
3.1513977e-11
6.0181392e-08
3.0818432e-11
6.0170891e-08
3.0178914e-11
6.0160598e-08
2.9589919e-11
6.0150495e-08
2.9046596e-11
6.0140569e-08
2.854458e-11
6.0130807e-08
2.8079879e-11
6.0121197e-08
2.7648859e-11
6.0111727e-08
2.7248231e-11
6.0102389e-08
2.6875025e-11
6.0093174e-08
2.65265e-11
6.0084073e-08
2.620018e-11
6.007508e-08
2.5893804e-11
6.0066189e-08
2.5604595e-11
6.0057394e-08
2.5332093e-11
6.0048689e-08
2.507365e-11
6.0040071e-08
2.4827046e-11
6.0031536e-08
2.4588361e-11
6.0023079e-08
2.4369872e-11
6.0014697e-08
2.4153114e-11
6.0006392e-08
2.3933785e-11
5.9998157e-08
2.3731347e-11
5.9989992e-08
2.3530926e-11
5.9981896e-08
2.3333878e-11
5.9973868e-08
2.3139385e-11
5.9965907e-08
2.2946552e-11
5.9958012e-08
2.275451e-11
5.9950184e-08
2.2562435e-11
5.9942423e-08
2.2369588e-11
5.9934729e-08
2.2175228e-11
5.9927103e-08
2.1978587e-11
5.9919546e-08
2.1778943e-11
5.9912059e-08
2.1575614e-11
5.9904644e-08
2.1367926e-11
5.9897302e-08
2.1155157e-11
5.9890035e-08
2.0936558e-11
5.9882845e-08
2.0711436e-11
5.9875735e-08
2.0479032e-11
5.9868708e-08
2.0238247e-11
5.9861768e-08
1.9987885e-11
5.9854917e-08
1.9724816e-11
5.9848161e-08
1.9448904e-11
5.9841518e-08
1.9122233e-11
5.9834963e-08
1.8864983e-11
5.9828918e-08
1.7370873e-11
5.982415e-08
1.3650206e-11
5.9820498e-08
1.0414583e-11
5.9817535e-08
8.4298524e-12
5.9815047e-08
7.0670556e-12
5.9812908e-08
6.0693578e-12
5.981104e-08
5.2950034e-12
5.9809392e-08
4.6682478e-12
5.9807925e-08
4.1489034e-12
5.9806612e-08
3.7121778e-12
5.980543e-08
3.3405302e-12
5.980436e-08
3.0211086e-12
5.9803388e-08
2.7445051e-12
5.98025e-08
2.5036406e-12
5.9801687e-08
2.2934087e-12
5.9800938e-08
2.1092933e-12
5.9800246e-08
1.9508832e-12
5.9799603e-08
1.8106352e-12
5.9798994e-08
1.7146112e-12
5.9798427e-08
1.5962761e-12
5.9797822e-08
1.7094464e-12
5.9797259e-08
1.5889406e-12
5.9796684e-08
1.6158682e-12
1.0130716e-12
2.6637294e-06
1.0081033e-11
2.6637253e-06
2.0279549e-11
2.6637208e-06
2.1985902e-11
2.6637158e-06
2.4530018e-11
2.66371e-06
2.8991707e-11
2.663703e-06
3.446568e-11
2.6636947e-06
4.1125837e-11
2.6636847e-06
4.9417239e-11
2.6636727e-06
5.9795712e-11
2.6636581e-06
7.282199e-11
2.6636403e-06
8.9266522e-11
2.6636183e-06
1.1030333e-10
2.663591e-06
1.3749142e-10
2.6635565e-06
1.7378571e-10
2.6635126e-06
2.2210954e-10
2.6634549e-06
2.9295622e-10
2.6633789e-06
3.8733297e-10
2.6632691e-06
5.614023e-10
2.6631213e-06
7.5798574e-10
2.6628571e-06
1.3615509e-09
2.6625274e-06
1.6940705e-09
2.6617292e-06
4.1063079e-09
2.6615818e-06
7.7473951e-10
1.4045312e-06
7.6337771e-06
1.1965258e-07
7.7266804e-06
8.8923351e-08
9.9710013e-08
8.4058505e-08
1.5515131e-08
8.2401369e-08
5.2378875e-09
8.1532231e-08
2.7422351e-09
8.0927872e-08
1.90758e-09
8.047553e-08
1.4278654e-09
8.0130218e-08
1.0891798e-09
7.9857804e-08
8.5855573e-10
7.9636905e-08
6.9573217e-10
7.9454234e-08
5.749756e-10
7.9300781e-08
4.8272004e-10
7.9170112e-08
4.1081281e-10
7.9057519e-08
3.5380028e-10
7.8959489e-08
3.0789099e-10
7.8873356e-08
2.704081e-10
7.8797058e-08
2.3943443e-10
7.8728978e-08
2.1357287e-10
7.8667823e-08
1.9178584e-10
7.8612553e-08
1.732853e-10
7.8562318e-08
1.5746101e-10
7.8516421e-08
1.4383618e-10
7.8474283e-08
1.3203674e-10
7.8435418e-08
1.2176494e-10
7.8399418e-08
1.1278019e-10
7.8365937e-08
1.0488632e-10
7.8334678e-08
9.7922941e-11
7.8305389e-08
9.1758036e-11
7.8277849e-08
8.6281895e-11
7.8251869e-08
8.1402592e-11
7.8227284e-08
7.7042518e-11
7.8203949e-08
7.3135974e-11
7.8181737e-08
6.962731e-11
7.8160537e-08
6.6469035e-11
7.8140251e-08
6.3620095e-11
7.812079e-08
6.1044835e-11
7.8102078e-08
5.8712554e-11
7.8084045e-08
5.6596724e-11
7.8066629e-08
5.4674082e-11
7.8049776e-08
5.2924168e-11
7.8033436e-08
5.1329e-11
7.8017565e-08
4.9872706e-11
7.8002122e-08
4.8541213e-11
7.7987071e-08
4.7322051e-11
7.7972381e-08
4.6204228e-11
7.7958022e-08
4.5177903e-11
7.7943967e-08
4.4234078e-11
7.7930192e-08
4.3364677e-11
7.7916676e-08
4.2562578e-11
7.7903399e-08
4.1821375e-11
7.7890344e-08
4.1135209e-11
7.7877494e-08
4.0498744e-11
7.7864835e-08
3.990715e-11
7.7852354e-08
3.9356067e-11
7.7840039e-08
3.884147e-11
7.7827879e-08
3.8359724e-11
7.7815866e-08
3.7907506e-11
7.7803989e-08
3.7480759e-11
7.7792243e-08
3.7078712e-11
7.7780619e-08
3.6697622e-11
7.7769112e-08
3.6334211e-11
7.7757717e-08
3.5982666e-11
7.7746427e-08
3.5660692e-11
7.7735238e-08
3.5341716e-11
7.7724152e-08
3.501947e-11
7.7713162e-08
3.4721912e-11
7.7702265e-08
3.4427647e-11
7.769146e-08
3.4138564e-11
7.7680746e-08
3.385346e-11
7.7670122e-08
3.3571019e-11
7.7659586e-08
3.3289962e-11
7.764914e-08
3.3009078e-11
7.7638782e-08
3.272728e-11
7.7628514e-08
3.2443477e-11
7.7618336e-08
3.2156542e-11
7.7608249e-08
3.186541e-11
7.7598256e-08
3.1569079e-11
7.7588357e-08
3.1266557e-11
7.7578556e-08
3.0956783e-11
7.7568854e-08
3.0638654e-11
7.7559254e-08
3.0311149e-11
7.754976e-08
2.9973157e-11
7.7540375e-08
2.9623062e-11
7.7531104e-08
2.925911e-11
7.7521952e-08
2.8876728e-11
7.7512925e-08
2.84757e-11
7.7504046e-08
2.8000799e-11
7.7495285e-08
2.7626642e-11
7.7487193e-08
2.5462684e-11
7.7480786e-08
2.0057259e-11
7.747586e-08
1.5340501e-11
7.7471854e-08
1.2435905e-11
7.7468484e-08
1.0436623e-11
7.7465583e-08
8.9704397e-12
7.7463047e-08
7.8311233e-12
7.7460807e-08
6.9081707e-12
7.7458813e-08
6.1428331e-12
7.7457027e-08
5.4988245e-12
7.7455417e-08
4.9504566e-12
7.7453959e-08
4.4788948e-12
7.7452633e-08
4.0703406e-12
7.7451422e-08
3.7144043e-12
7.7450312e-08
3.4035866e-12
7.744929e-08
3.131253e-12
7.7448344e-08
2.8967875e-12
7.7447466e-08
2.6891181e-12
7.7446634e-08
2.5464317e-12
7.7445859e-08
2.3711575e-12
7.7445034e-08
2.5346891e-12
7.7444267e-08
2.3554139e-12
7.7443481e-08
2.4026756e-12
1.5019213e-12
2.8986249e-06
1.2460578e-11
2.89862e-06
2.5124857e-11
2.8986147e-06
2.7299188e-11
2.8986088e-06
3.0461305e-11
2.8986018e-06
3.5985413e-11
2.8985935e-06
4.2756889e-11
2.8985837e-06
5.0987695e-11
2.8985718e-06
6.1225536e-11
2.8985576e-06
7.4030579e-11
2.8985403e-06
9.0090882e-11
2.8985193e-06
1.1035126e-10
2.8984933e-06
1.3625147e-10
2.8984611e-06
1.6970176e-10
2.8984206e-06
2.143248e-10
2.898369e-06
2.7369565e-10
2.8983013e-06
3.606753e-10
2.8982121e-06
4.7645448e-10
2.8980837e-06
6.8982603e-10
2.8979111e-06
9.3061386e-10
2.8976033e-06
1.6692949e-09
2.8972187e-06
2.0787359e-09
2.8962879e-06
5.0370459e-09
2.8961174e-06
9.453079e-10
1.5429398e-06
8.9869548e-06
1.5392976e-07
9.1156904e-06
1.1410553e-07
1.3953425e-07
1.0771941e-07
2.1901255e-08
1.0552816e-07
7.429136e-09
1.0437716e-07
3.8932348e-09
1.0357697e-07
2.7077702e-09
1.0297809e-07
2.0267488e-09
1.0252061e-07
1.5466582e-09
1.0215945e-07
1.2197088e-09
1.0186643e-07
9.8875752e-10
1.0162398e-07
8.1742035e-10
1.0142021e-07
6.8649162e-10
1.0124661e-07
5.8441306e-10
1.0109696e-07
5.0345377e-10
1.0096661e-07
4.3824122e-10
1.0085203e-07
3.8498226e-10
1.0075051e-07
3.4095946e-10
1.0065989e-07
3.04192e-10
1.0057847e-07
2.732084e-10
1.0050486e-07
2.4689102e-10
1.0043795e-07
2.2437423e-10
1.003768e-07
2.0498169e-10
1.0032066e-07
1.8818258e-10
1.0026887e-07
1.7355427e-10
1.0022089e-07
1.6075524e-10
1.0017627e-07
1.4950703e-10
1.0013461e-07
1.3958189e-10
1.0009558e-07
1.3079236e-10
1.0005888e-07
1.2298259e-10
1.0002426e-07
1.1602199e-10
9.9991501e-08
1.098003e-10
9.9960413e-08
1.0422417e-10
9.9930826e-08
9.9214513e-11
9.9902591e-08
9.4703817e-11
9.9875578e-08
9.0633725e-11
9.9849669e-08
8.6953541e-11
9.9824762e-08
8.361961e-11
9.9800764e-08
8.0594206e-11
9.9777594e-08
7.7844241e-11
9.9755178e-08
7.5340612e-11
9.9733449e-08
7.3057736e-11
9.9712349e-08
7.0973027e-11
9.9691823e-08
6.906646e-11
9.9671825e-08
6.7320289e-11
9.9652311e-08
6.5718869e-11
9.963324e-08
6.4248187e-11
9.9614579e-08
6.2895438e-11
9.9596294e-08
6.1649121e-11
9.9578358e-08
6.0499093e-11
9.9560743e-08
5.943623e-11
9.9543426e-08
5.8452189e-11
9.9526386e-08
5.7539369e-11
9.9509602e-08
5.6690891e-11
9.9493057e-08
5.5900539e-11
9.9476736e-08
5.5162581e-11
9.9460624e-08
5.4471837e-11
9.9444708e-08
5.3823571e-11
9.9428977e-08
5.321202e-11
9.9413419e-08
5.2635978e-11
9.9398027e-08
5.2090299e-11
9.9382791e-08
5.1570274e-11
9.9367706e-08
5.106758e-11
9.935276e-08
5.0606875e-11
9.933795e-08
5.0151199e-11
9.9323278e-08
4.9691708e-11
9.9308733e-08
4.9267204e-11
9.9294312e-08
4.884794e-11
9.9280014e-08
4.8436445e-11
9.9265837e-08
4.8030997e-11
9.9251778e-08
4.762972e-11
9.9237837e-08
4.7230787e-11
9.9224014e-08
4.683247e-11
9.9210308e-08
4.6433218e-11
9.919672e-08
4.6031472e-11
9.9183251e-08