/*--------------------------------*- C++ -*----------------------------------*\
| =========                 |                                                 |
| \\      /  F ield         | OpenFOAM: The Open Source CFD Toolbox           |
|  \\    /   O peration     | Version:  2206                                  |
|   \\  /    A nd           | Website:  www.openfoam.com                      |
|    \\/     M anipulation  |                                                 |
\*---------------------------------------------------------------------------*/
FoamFile
{
    version     2.0;
    format      ascii;
    arch        "LSB;label=32;scalar=64";
    class       volVectorField;
    location    "300";
    object      U;
}
// * * * * * * * * * * * * * * * * * * * * * * * * * * * * * * * * * * * * * //

dimensions      [0 1 -1 0 0 0 0];

internalField   nonuniform List<vector> 
13056
(
(1 1.3411112e-11 2.776767e-25)
(0.99999898 3.0331538e-11 0)
(0.99999784 3.698544e-11 0)
(0.99999665 4.6796971e-11 0)
(0.99999526 6.2847632e-11 0)
(0.99999359 8.4891801e-11 0)
(0.99999161 1.1506793e-10 0)
(0.99998923 1.569894e-10 0)
(0.99998636 2.1551069e-10 0)
(0.99998286 2.9742722e-10 0)
(0.99997858 4.1255431e-10 0)
(0.99997329 5.7573981e-10 0)
(0.99996672 8.0853447e-10 0)
(0.99995847 1.1478895e-09 0)
(0.99994792 1.6414557e-09 0)
(0.99993436 2.4112195e-09 0)
(0.99991604 3.5288796e-09 0)
(0.999892 5.6254365e-09 0)
(0.99985455 8.2717878e-09 0)
(0.99980824 1.6053576e-08 0)
(0.9997045 2.1127121e-08 0)
(0.99961931 5.3711114e-08 0)
(0.99925239 1.1037596e-08 -4.5926724e-21)
(0.99952441 0.00012467112 9.7053887e-18)
(0.0039372918 0.00012501048 0)
(0.0024948461 1.5107795e-07 -5.4781089e-18)
(0.0023061629 5.6735776e-09 0)
(0.0022504207 1.9262779e-09 0)
(0.0022249351 1.004833e-09 0)
(0.0022080232 6.9494162e-10 0)
(0.0021953922 5.1507981e-10 0)
(0.0021859053 3.9015563e-10 0)
(0.0021785418 3.0545294e-10 0)
(0.0021726393 2.4559727e-10 0)
(0.0021678029 2.0128335e-10 0)
(0.0021637731 1.6751949e-10 0)
(0.0021603667 1.4126604e-10 0)
(0.0021574505 1.2049835e-10 0)
(0.0021549262 1.0381431e-10 0)
(0.0021527197 9.0225799e-11 0)
(0.0021507743 7.9025373e-11 0)
(0.0021490459 6.969703e-11 0)
(0.0021474992 6.1857321e-11 0)
(0.0021461064 5.5215368e-11 0)
(0.0021448445 4.9546415e-11 0)
(0.002143695 4.4675147e-11 0)
(0.0021426424 4.046396e-11 0)
(0.0021416741 3.6803371e-11 0)
(0.0021407791 3.3605084e-11 0)
(0.0021399484 3.0797288e-11 0)
(0.0021391742 2.8321354e-11 0)
(0.00213845 2.6129058e-11 0)
(0.0021377701 2.4180382e-11 0)
(0.0021371295 2.2441873e-11 0)
(0.0021365241 2.0885369e-11 0)
(0.0021359499 1.948709e-11 0)
(0.002135404 1.8226921e-11 0)
(0.0021348832 1.7087731e-11 0)
(0.0021343852 1.6054774e-11 0)
(0.0021339077 1.5115302e-11 0)
(0.0021334488 1.425837e-11 0)
(0.0021330067 1.347454e-11 0)
(0.0021325798 1.2755581e-11 0)
(0.0021321667 1.2094294e-11 0)
(0.0021317663 1.1484387e-11 0)
(0.0021313773 1.0920337e-11 0)
(0.0021309989 1.0397286e-11 0)
(0.00213063 9.9109642e-12 0)
(0.0021302699 9.4576182e-12 0)
(0.0021299178 9.0339178e-12 0)
(0.0021295731 8.6368733e-12 0)
(0.0021292352 8.2638349e-12 0)
(0.0021289036 7.912478e-12 0)
(0.0021285778 7.5807356e-12 0)
(0.0021282573 7.2667515e-12 0)
(0.0021279417 6.9688672e-12 0)
(0.0021276307 6.6856079e-12 0)
(0.0021273241 6.4156631e-12 0)
(0.0021270214 6.1578565e-12 0)
(0.0021267224 5.9111431e-12 0)
(0.0021264269 5.6745915e-12 0)
(0.0021261348 5.4471509e-12 0)
(0.0021258457 5.2286212e-12 0)
(0.0021255596 5.0179289e-12 0)
(0.0021252763 4.8143273e-12 0)
(0.0021249957 4.6171619e-12 0)
(0.0021247177 4.4279896e-12 0)
(0.0021244419 4.2436879e-12 0)
(0.0021241688 4.0634995e-12 0)
(0.002123898 3.8902191e-12 0)
(0.0021236294 3.7215054e-12 0)
(0.002123363 3.5574488e-12 0)
(0.0021230989 3.3978603e-12 0)
(0.002122837 3.2425606e-12 0)
(0.0021225772 3.0913934e-12 0)
(0.0021223196 2.9442218e-12 0)
(0.0021220642 2.8009405e-12 0)
(0.002121811 2.6614615e-12 0)
(0.0021215601 2.5257014e-12 0)
(0.0021213114 2.3935953e-12 0)
(0.002121065 2.265096e-12 0)
(0.0021208209 2.1401673e-12 0)
(0.0021205793 2.0187773e-12 0)
(0.0021203402 1.9008992e-12 0)
(0.0021201036 1.7865231e-12 0)
(0.0021198697 1.6756418e-12 0)
(0.0021196385 1.5682259e-12 0)
(0.0021194101 1.4642525e-12 0)
(0.0021191847 1.3635812e-12 0)
(0.0021189624 1.2662984e-12 0)
(0.0021187433 1.1702413e-12 0)
(0.0021185286 1.0824554e-12 0)
(0.0021183154 9.3811778e-13 0)
(0.0021181407 7.3093469e-13 0)
(0.002118011 5.6707763e-13 0)
(0.0021179083 4.6351124e-13 0)
(0.0021178237 3.9118264e-13 0)
(0.0021177518 3.3764664e-13 0)
(0.0021176895 2.957809e-13 0)
(0.0021176349 2.6170598e-13 0)
(0.0021175866 2.3334044e-13 0)
(0.0021175436 2.0938983e-13 0)
(0.0021175051 1.8893363e-13 0)
(0.0021174703 1.7129458e-13 0)
(0.0021174388 1.5597492e-13 0)
(0.0021174102 1.4259875e-13 0)
(0.0021173841 1.3089441e-13 0)
(0.0021173601 1.2062226e-13 0)
(0.002117338 1.1176081e-13 0)
(0.0021173175 1.0391633e-13 0)
(0.0021172985 9.8473966e-14 0)
(0.0021172801 9.194227e-14 0)
(0.0021172637 9.7447907e-14 0)
(0.0021172426 3.2400774e-13 0)
(0.0021172289 8.33092e-14 6.8418085e-25)
(0.0021172071 2.2056983e-13 0)
(1 4.1201178e-11 0)
(0.99999894 9.332167e-11 0)
(0.99999776 1.1389685e-10 0)
(0.99999652 1.4411802e-10 0)
(0.99999507 1.9350877e-10 0)
(0.99999334 2.6131745e-10 0)
(0.99999128 3.5410503e-10 0)
(0.99998882 4.8296059e-10 0)
(0.99998583 6.6277642e-10 0)
(0.99998221 9.1439109e-10 0)
(0.99997777 1.2678941e-09 0)
(0.9999723 1.7687909e-09 0)
(0.99996549 2.4831063e-09 0)
(0.99995696 3.5240288e-09 0)
(0.99994606 5.0374371e-09 0)
(0.99993205 7.3968367e-09 0)
(0.99991314 1.0821336e-08 0)
(0.99988835 1.7242214e-08 0)
(0.99984976 2.5344498e-08 0)
(0.99980208 4.9157578e-08 0)
(0.99969538 6.4721581e-08 0)
(0.99960756 1.6453e-07 0)
(0.99922995 3.2648682e-08 1.6437029e-20)
(0.9995106 0.00037443204 -4.7636355e-21)
(0.011822558 0.00037531807 0)
(0.0075050393 8.5580866e-07 0)
(0.006935216 1.2672838e-07 0)
(0.0067664411 4.1759452e-08 0)
(0.0066891864 2.1608235e-08 0)
(0.0066379521 1.4913928e-08 0)
(0.0065996935 1.1061082e-08 0)
(0.0065709539 8.3471428e-09 0)
(0.0065486444 6.5074944e-09 0)
(0.0065307593 5.2150514e-09 0)
(0.0065161036 4.2613689e-09 0)
(0.0065038907 3.5364728e-09 0)
(0.0064935659 2.9743688e-09 0)
(0.0064847263 2.5310089e-09 0)
(0.0064770739 2.1758344e-09 0)
(0.0064703845 1.8873282e-09 0)
(0.0064644863 1.6501244e-09 0)
(0.0064592452 1.4530508e-09 0)
(0.0064545554 1.2878258e-09 0)
(0.0064503316 1.1481755e-09 0)
(0.0064465048 1.0292556e-09 0)
(0.0064430186 9.2729461e-10 0)
(0.0064398265 8.3933894e-10 0)
(0.0064368895 7.6304381e-10 0)
(0.0064341751 6.9652071e-10 0)
(0.0064316556 6.3823491e-10 0)
(0.0064293077 5.8693509e-10 0)
(0.0064271113 5.4159435e-10 0)
(0.0064250493 5.0136195e-10 0)
(0.0064231065 4.6552763e-10 0)
(0.0064212703 4.3349418e-10 0)
(0.0064195292 4.0475806e-10 0)
(0.0064178735 3.7889401e-10 0)
(0.0064162944 3.5554037e-10 0)
(0.0064147844 3.343864e-10 0)
(0.0064133366 3.1516405e-10 0)
(0.0064119452 2.9764335e-10 0)
(0.0064106047 2.8162624e-10 0)
(0.0064093106 2.6694029e-10 0)
(0.0064080585 2.5343501e-10 0)
(0.0064068447 2.4097904e-10 0)
(0.0064056657 2.2945737e-10 0)
(0.0064045186 2.1876897e-10 0)
(0.0064034007 2.0882508e-10 0)
(0.0064023094 1.9954798e-10 0)
(0.0064012425 1.9086885e-10 0)
(0.0064001981 1.8272607e-10 0)
(0.0063991744 1.7506509e-10 0)
(0.0063981697 1.6783817e-10 0)
(0.0063971825 1.6100297e-10 0)
(0.0063962116 1.5452161e-10 0)
(0.0063952558 1.4836034e-10 0)
(0.0063943139 1.424892e-10 0)
(0.006393385 1.368817e-10 0)
(0.0063924682 1.3151408e-10 0)
(0.0063915628 1.2636537e-10 0)
(0.006390668 1.2141699e-10 0)
(0.0063897832 1.1664869e-10 0)
(0.0063889079 1.1205455e-10 1.771887e-27)
(0.0063880415 1.0761481e-10 0)
(0.0063871837 1.0331553e-10 0)
(0.0063863339 9.9139315e-11 0)
(0.0063854923 9.5132157e-11 0)
(0.0063846573 9.1214574e-11 0)
(0.0063838304 8.7370825e-11 0)
(0.0063830103 8.3674319e-11 0)
(0.0063821972 8.0066432e-11 0)
(0.0063813908 7.6551987e-11 0)
(0.0063805911 7.31277e-11 0)
(0.006379798 6.97904e-11 0)
(0.0063790116 6.6537376e-11 0)
(0.0063782317 6.3366389e-11 0)
(0.0063774585 6.0275743e-11 0)
(0.0063766919 5.7264026e-11 0)
(0.0063759321 5.4330003e-11 0)
(0.0063751792 5.1472792e-11 0)
(0.0063744332 4.8691826e-11 0)
(0.0063736943 4.5986744e-11 0)
(0.0063729628 4.3357253e-11 0)
(0.0063722387 4.0803175e-11 0)
(0.0063715224 3.8324611e-11 0)
(0.006370814 3.5921674e-11 0)
(0.0063701139 3.3594033e-11 0)
(0.0063694224 3.1341457e-11 0)
(0.0063687397 2.9161068e-11 0)
(0.0063680665 2.7055107e-11 0)
(0.0063674031 2.4975548e-11 0)
(0.0063667528 2.3083722e-11 0)
(0.006366107 1.9824184e-11 0)
(0.0063655775 1.5093926e-11 0)
(0.0063651837 1.1446397e-11 0)
(0.0063648719 9.2299568e-12 0)
(0.0063646146 7.7171445e-12 0)
(0.006364396 6.6143799e-12 0)
(0.0063642067 5.7610212e-12 0)
(0.0063640406 5.0718026e-12 0)
(0.0063638938 4.5017357e-12 0)
(0.0063637629 4.0231449e-12 0)
(0.0063636455 3.6164758e-12 0)
(0.0063635397 3.2674271e-12 0)
(0.0063634439 2.9655524e-12 0)
(0.0063633567 2.7030048e-12 0)
(0.0063632771 2.4741354e-12 0)
(0.006363204 2.2739543e-12 0)
(0.0063631368 2.1020405e-12 0)
(0.0063630743 1.9500454e-12 0)
(0.0063630164 1.8470541e-12 0)
(0.0063629603 1.719112e-12 0)
(0.0063629103 1.8498291e-12 0)
(0.0063628462 1.7335394e-12 0)
(0.0063628044 1.712708e-12 -1.0742234e-24)
(0.0063627382 1.134678e-12 7.1665601e-26)
(1 7.0748235e-11 0)
(0.99999889 1.6036751e-10 0)
(0.99999765 1.95916e-10 0)
(0.99999636 2.4791181e-10 0)
(0.99999483 3.3280212e-10 0)
(0.99999302 4.4930431e-10 0)
(0.99999087 6.0865969e-10 0)
(0.99998828 8.2987399e-10 0)
(0.99998516 1.1384617e-09 0)
(0.99998137 1.5701107e-09 0)
(0.99997673 2.1763341e-09 0)
(0.99997102 3.0350162e-09 0)
(0.99996392 4.259119e-09 0)
(0.99995503 6.0422641e-09 0)
(0.99994368 8.6338403e-09 0)
(0.99992911 1.2672482e-08 0)
(0.99990945 1.8532064e-08 0)
(0.9998837 2.9513424e-08 0)
(0.99984367 4.3366092e-08 0)
(0.99979423 8.4058037e-08 0)
(0.99968379 1.107209e-07 0)
(0.99959262 2.814296e-07 0)
(0.9992015 5.5895757e-08 -8.7081451e-21)
(0.99949298 0.00062755675 4.2209859e-55)
(0.019822984 0.00062978647 -4.2205818e-55)
(0.012593432 2.4784865e-06 0)
(0.011631783 3.7179567e-07 0)
(0.011346058 1.2275892e-07 0)
(0.011215123 6.3536868e-08 0)
(0.011128323 4.384055e-08 0)
(0.01106352 3.2514893e-08 0)
(0.011014831 2.4539514e-08 0)
(0.010977027 1.9132909e-08 0)
(0.010946716 1.533424e-08 0)
(0.010921874 1.2531068e-08 0)
(0.01090117 1.0400269e-08 0)
(0.010883664 8.7478949e-09 0)
(0.010868674 7.4444861e-09 0)
(0.010855695 6.4002468e-09 0)
(0.010844349 5.5519532e-09 0)
(0.010834343 4.8544508e-09 0)
(0.010825451 4.2749073e-09 0)
(0.010817494 3.7889845e-09 0)
(0.010810327 3.3782445e-09 0)
(0.010803833 3.0284504e-09 0)
(0.010797917 2.7285171e-09 0)
(0.0107925 2.4697636e-09 0)
(0.010787515 2.2452973e-09 0)
(0.010782909 2.0495671e-09 0)
(0.010778633 1.8780616e-09 0)
(0.010774648 1.7271023e-09 0)
(0.01077092 1.5936701e-09 0)
(0.01076742 1.4752637e-09 0)
(0.010764123 1.369795e-09 0)
(0.010761007 1.2755078e-09 0)
(0.010758053 1.1909216e-09 0)
(0.010755243 1.114786e-09 0)
(0.010752564 1.0460372e-09 0)
(0.010750002 9.8376151e-10 0)
(0.010747545 9.2717054e-10 0)
(0.010745185 8.7558791e-10 0)
(0.010742911 8.2843107e-10 0)
(0.010740716 7.851928e-10 0)
(0.010738592 7.4543037e-10 0)
(0.010736534 7.0875738e-10 0)
(0.010734535 6.7483547e-10 0)
(0.01073259 6.4336734e-10 0)
(0.010730694 6.1409186e-10 0)
(0.010728844 5.8678027e-10 0)
(0.010727036 5.6123008e-10 0)
(0.010725265 5.3725994e-10 0)
(0.01072353 5.1470929e-10 0)
(0.010721827 4.9343757e-10 0)
(0.010720155 4.7332016e-10 0)
(0.01071851 4.5424554e-10 0)
(0.01071689 4.361143e-10 0)
(0.010715294 4.1883824e-10 0)
(0.010713721 4.0233931e-10 0)
(0.010712168 3.8654753e-10 0)
(0.010710634 3.7140114e-10 0)
(0.010709118 3.5684535e-10 0)
(0.01070762 3.4282098e-10 0)
(0.010706137 3.2930887e-10 0)
(0.01070467 3.1625275e-10 0)
(0.010703217 3.0361166e-10 0)
(0.010701778 2.9133253e-10 0)
(0.010700353 2.7955096e-10 0)
(0.010698939 2.6803421e-10 0)
(0.010697539 2.5673597e-10 0)
(0.010696151 2.4587058e-10 0)
(0.010694774 2.3526663e-10 0)
(0.010693409 2.2493798e-10 0)
(0.010692055 2.1487491e-10 0)
(0.010690712 2.0506802e-10 0)
(0.01068938 1.9550927e-10 0)
(0.01068806 1.8619202e-10 0)
(0.010686751 1.7711123e-10 0)
(0.010685453 1.6826268e-10 0)
(0.010684166 1.5964268e-10 0)
(0.010682892 1.5124859e-10 0)
(0.010681628 1.4307871e-10 0)
(0.010680377 1.3513191e-10 0)
(0.010679139 1.274073e-10 0)
(0.010677913 1.1990432e-10 0)
(0.0106767 1.1262323e-10 0)
(0.0106755 1.0556432e-10 0)
(0.010674314 9.8726598e-11 0)
(0.010673143 9.2109371e-11 0)
(0.010671987 8.5704172e-11 0)
(0.010670847 7.9517565e-11 0)
(0.010669723 7.3408698e-11 0)
(0.010668621 6.7850561e-11 0)
(0.010667527 5.8288101e-11 0)
(0.010666629 4.4415905e-11 0)
(0.01066596 3.3710809e-11 0)
(0.01066543 2.719768e-11 0)
(0.010664992 2.2748492e-11 0)
(0.01066462 1.9503284e-11 0)
(0.010664297 1.6990948e-11 0)
(0.010664014 1.4961238e-11 0)
(0.010663764 1.3281995e-11 0)
(0.01066354 1.1871881e-11 0)
(0.01066334 1.0673423e-11 0)
(0.01066316 9.6445739e-12 0)
(0.010662996 8.7546091e-12 0)
(0.010662847 7.980444e-12 0)
(0.010662712 7.3054544e-12 0)
(0.010662587 6.7149498e-12 0)
(0.010662472 6.2076726e-12 0)
(0.010662365 5.7590336e-12 0)
(0.010662266 5.4545109e-12 0)
(0.010662171 5.0764799e-12 0)
(0.010662085 5.4588083e-12 0)
(0.010661976 5.0757942e-12 0)
(0.010661904 5.0953728e-12 0)
(0.010661791 3.2761478e-12 0)
(1 1.0289251e-10 5.7647447e-25)
(0.99999884 2.3350658e-10 0)
(0.99999752 2.8560261e-10 0)
(0.99999615 3.6142077e-10 0)
(0.99999454 4.8505542e-10 0)
(0.99999262 6.5465579e-10 0)
(0.99999035 8.8653249e-10 0)
(0.99998762 1.2082737e-09 0)
(0.99998433 1.6568993e-09 0)
(0.99998033 2.2841659e-09 0)
(0.99997545 3.1647502e-09 0)
(0.99996944 4.4115221e-09 0)
(0.99996198 6.1881134e-09 0)
(0.99995264 8.7749414e-09 0)
(0.99994073 1.253292e-08 0)
(0.99992545 1.8386482e-08 0)
(0.99990487 2.6875435e-08 0)
(0.99987793 4.2775606e-08 0)
(0.99983612 6.2825197e-08 0)
(0.99978452 1.2168526e-07 0)
(0.99966945 1.6036175e-07 0)
(0.99957416 4.0753298e-07 0)
(0.99916637 8.0703959e-08 0)
(0.99947114 0.00088778166 -2.2019271e-55)
(0.028038426 0.00089259985 2.2017195e-55)
(0.0178122 5.100832e-06 0)
(0.016440476 7.6821271e-07 0)
(0.016031175 2.5410679e-07 0)
(0.015843364 1.3155888e-07 0)
(0.015718898 9.0754997e-08 0)
(0.015625999 6.7309019e-08 0)
(0.015556181 5.0804769e-08 0)
(0.015501955 3.9615361e-08 0)
(0.015458465 3.1752958e-08 0)
(0.015422814 2.5950616e-08 0)
(0.015393094 2.153979e-08 0)
(0.01536796 1.8119094e-08 0)
(0.015346433 1.54206e-08 0)
(0.015327792 1.3258495e-08 0)
(0.015311492 1.1501956e-08 0)
(0.015297116 1.0057543e-08 0)
(0.015284338 8.8573069e-09 0)
(0.015272902 7.8508792e-09 0)
(0.015262601 7.0001006e-09 0)
(0.015253266 6.2755037e-09 0)
(0.015244761 5.6541465e-09 0)
(0.015236973 5.118059e-09 0)
(0.015229806 4.6529736e-09 0)
(0.015223183 4.2473987e-09 0)
(0.015217034 3.8919952e-09 0)
(0.015211305 3.5791474e-09 0)
(0.015205945 3.3026047e-09 0)
(0.015200913 3.0571882e-09 0)
(0.015196173 2.8385738e-09 0)
(0.015191693 2.6431254e-09 0)
(0.015187446 2.4677773e-09 0)
(0.015183407 2.3099395e-09 0)
(0.015179556 2.1674094e-09 0)
(0.015175873 2.0382942e-09 0)
(0.015172344 1.9209613e-09 0)
(0.015168952 1.8140096e-09 0)
(0.015165685 1.7162323e-09 0)
(0.015162531 1.6265787e-09 0)
(0.015159481 1.5441316e-09 0)
(0.015156524 1.4680904e-09 0)
(0.015153653 1.3977542e-09 0)
(0.01515086 1.3325068e-09 0)
(0.015148139 1.2718071e-09 0)
(0.015145483 1.215181e-09 0)
(0.015142887 1.1622089e-09 0)
(0.015140346 1.112515e-09 0)
(0.015137856 1.0657663e-09 0)
(0.015135413 1.0216715e-09 0)
(0.015133013 9.7997216e-10 0)
(0.015130653 9.4043712e-10 0)
(0.01512833 9.0286022e-10 0)
(0.015126041 8.6705852e-10 0)
(0.015123784 8.328701e-10 0)
(0.015121557 8.0014983e-10 0)
(0.015119358 7.6876954e-10 0)
(0.015117185 7.3861553e-10 0)
(0.015115037 7.0956578e-10 0)
(0.015112912 6.8157747e-10 0)
(0.015110809 6.5453744e-10 0)
(0.015108726 6.283608e-10 0)
(0.015106664 6.0293423e-10 0)
(0.015104621 5.7853884e-10 0)
(0.015102595 5.5469485e-10 0)
(0.015100589 5.3130629e-10 0)
(0.015098599 5.0881384e-10 0)
(0.015096626 4.8686458e-10 0)
(0.01509467 4.6548656e-10 0)
(0.01509273 4.4465949e-10 0)
(0.015090805 4.2436376e-10 0)
(0.015088898 4.0458259e-10 0)
(0.015087006 3.8530211e-10 0)
(0.01508513 3.6651175e-10 0)
(0.01508327 3.4820263e-10 0)
(0.015081426 3.3036702e-10 0)
(0.0150796 3.1299934e-10 0)
(0.01507779 2.9609596e-10 0)
(0.015075997 2.7965448e-10 0)
(0.015074221 2.6367293e-10 0)
(0.015072464 2.4815011e-10 0)
(0.015070726 2.3308645e-10 0)
(0.015069006 2.1848251e-10 0)
(0.015067307 2.0433618e-10 0)
(0.015065628 1.9064595e-10 0)
(0.01506397 1.7739431e-10 0)
(0.015062335 1.6459479e-10 0)
(0.015060724 1.5195644e-10 0)
(0.015059144 1.4045577e-10 0)
(0.015057575 1.2069932e-10 0)
(0.015056285 9.2049189e-11 0)
(0.015055321 6.9922614e-11 0)
(0.015054557 5.6443262e-11 0)
(0.015053924 4.7227778e-11 0)
(0.015053386 4.0501835e-11 0)
(0.01505292 3.5292677e-11 0)
(0.015052511 3.1082946e-11 0)
(0.015052148 2.7599208e-11 0)
(0.015051825 2.4673125e-11 0)
(0.015051536 2.2185716e-11 0)
(0.015051274 2.0049919e-11 0)
(0.015051037 1.8202097e-11 0)
(0.015050821 1.6594421e-11 0)
(0.015050624 1.5192438e-11 0)
(0.015050443 1.3965695e-11 0)
(0.015050277 1.2911543e-11 0)
(0.015050122 1.1979025e-11 0)
(0.015049978 1.134498e-11 0)
(0.015049839 1.0558811e-11 0)
(0.015049715 1.1345881e-11 0)
(0.015049557 1.0554404e-11 0)
(0.015049454 1.0639215e-11 0)
(0.015049289 6.7650109e-12 0)
(1 1.3856532e-10 0)
(0.99999877 3.1491249e-10 0)
(0.99999737 3.8569809e-10 0)
(0.9999959 4.8811884e-10 0)
(0.99999418 6.5490225e-10 0)
(0.99999214 8.835805e-10 0)
(0.99998971 1.1960612e-09 0)
(0.9999868 1.6294184e-09 0)
(0.9999833 2.2333773e-09 0)
(0.99997906 3.0774185e-09 0)
(0.99997387 4.2617456e-09 0)
(0.9999675 5.9377539e-09 0)
(0.9999596 8.3248148e-09 0)
(0.99994971 1.1798782e-08 0)
(0.99993712 1.6842984e-08 0)
(0.99992099 2.4695726e-08 0)
(0.99989928 3.6077928e-08 0)
(0.99987091 5.7383616e-08 0)
(0.99982692 8.4236736e-08 0)
(0.9997727 1.6301623e-07 0)
(0.99965202 2.1494716e-07 0)
(0.99955171 5.4613923e-07 0)
(0.99912373 1.0769507e-07 0)
(0.99944453 0.001158755 0)
(0.036568865 0.0011669358 0)
(0.023213589 8.8265201e-06 0)
(0.021405553 1.3364663e-06 0)
(0.020863151 4.4318614e-07 0)
(0.020613886 2.295605e-07 0)
(0.020448727 1.583278e-07 0)
(0.020325498 1.174225e-07 0)
(0.020232853 8.8647156e-08 0)
(0.020160866 6.9136375e-08 0)
(0.020103112 5.5423926e-08 0)
(0.020055753 4.5302952e-08 0)
(0.020016261 3.7608377e-08 0)
(0.019982852 3.1640322e-08 0)
(0.019954231 2.6931615e-08 0)
(0.019929439 2.3158335e-08 0)
(0.019907757 2.0092422e-08 0)
(0.019888629 1.7570962e-08 0)
(0.019871626 1.5475475e-08 0)
(0.019856405 1.3718122e-08 0)
(0.019842692 1.2232357e-08 0)
(0.019830264 1.0966787e-08 0)
(0.01981894 9.8813983e-09 0)
(0.019808569 8.9448434e-09 0)
(0.019799026 8.1322318e-09 0)
(0.019790205 7.4235142e-09 0)
(0.019782017 6.802397e-09 0)
(0.019774387 6.2555915e-09 0)
(0.019767249 5.7721898e-09 0)
(0.019760548 5.3431533e-09 0)
(0.019754235 4.9609347e-09 0)
(0.01974827 4.6191878e-09 0)
(0.019742614 4.3125606e-09 0)
(0.019737237 4.0365318e-09 0)
(0.019732111 3.7872555e-09 0)
(0.019727209 3.5614271e-09 0)
(0.019722511 3.3561954e-09 0)
(0.019717997 3.1691136e-09 0)
(0.019713651 2.998074e-09 0)
(0.019709455 2.8412413e-09 0)
(0.019705398 2.6970134e-09 0)
(0.019701465 2.5639917e-09 0)
(0.019697648 2.440951e-09 0)
(0.019693935 2.3268152e-09 0)
(0.019690317 2.2206383e-09 0)
(0.019686787 2.1215919e-09 0)
(0.019683337 2.0289423e-09 0)
(0.019679962 1.9420324e-09 0)
(0.019676654 1.8602803e-09 0)
(0.019673409 1.7831765e-09 0)
(0.019670221 1.7102688e-09 0)
(0.019667088 1.641153e-09 0)
(0.019664003 1.5754683e-09 0)
(0.019660965 1.5128945e-09 0)
(0.01965797 1.4531484e-09 0)
(0.019655014 1.3959757e-09 0)
(0.019652096 1.341152e-09 0)
(0.019649213 1.2884783e-09 0)
(0.019646362 1.2377418e-09 0)
(0.019643543 1.1888629e-09 0)
(0.019640753 1.141649e-09 0)
(0.019637991 1.0959516e-09 0)
(0.019635256 1.0515675e-09 0)
(0.019632547 1.008985e-09 0)
(0.01962986 9.6737357e-10 0)
(0.0196272 9.2656541e-10 0)
(0.019624561 8.8732095e-10 0)
(0.019621945 8.4902977e-10 0)
(0.019619351 8.1173903e-10 0)
(0.019616779 7.7541283e-10 0)
(0.019614228 7.4001658e-10 0)
(0.019611698 7.0552056e-10 0)
(0.01960919 6.7190022e-10 0)
(0.019606702 6.3913678e-10 0)
(0.019604237 6.0721436e-10 0)
(0.019601792 5.7611918e-10 0)
(0.01959937 5.458412e-10 0)
(0.01959697 5.163738e-10 0)
(0.019594593 4.8771252e-10 0)
(0.019592238 4.598537e-10 0)
(0.019589908 4.3279501e-10 0)
(0.019587602 4.06537e-10 0)
(0.019585321 3.8108044e-10 0)
(0.019583067 3.5642151e-10 0)
(0.01958084 3.3255745e-10 0)
(0.01957864 3.0945764e-10 0)
(0.019576471 2.8714551e-10 0)
(0.019574333 2.6511499e-10 0)
(0.019572236 2.4506266e-10 0)
(0.019570154 2.1070192e-10 0)
(0.019568437 1.6090294e-10 0)
(0.019567151 1.223925e-10 0)
(0.019566128 9.888236e-11 0)
(0.019565282 8.2787443e-11 0)
(0.019564561 7.102928e-11 0)
(0.019563935 6.1916638e-11 0)
(0.019563386 5.45488e-11 0)
(0.019562899 4.844911e-11 0)
(0.019562465 4.3323932e-11 0)
(0.019562076 3.8965664e-11 0)
(0.019561724 3.5222333e-11 0)
(0.019561405 3.1982804e-11 0)
(0.019561115 2.9163518e-11 0)
(0.019560849 2.6704257e-11 0)
(0.019560605 2.4551783e-11 0)
(0.019560381 2.2701387e-11 0)
(0.019560172 2.1064037e-11 0)
(0.019559979 1.9948187e-11 0)
(0.019559792 1.8567299e-11 0)
(0.019559624 1.9929639e-11 0)
(0.019559412 1.8534928e-11 0)
(0.019559272 1.8752736e-11 -1.3838395e-24)
(0.019559051 1.1839047e-11 9.2321805e-26)
(1 1.7893927e-10 0)
(0.99999868 4.0734383e-10 0)
(0.99999718 4.9969771e-10 0)
(0.9999956 6.3243646e-10 0)
(0.99999375 8.4824634e-10 0)
(0.99999155 1.1439799e-09 0)
(0.99998894 1.5478429e-09 0)
(0.99998582 2.1075964e-09 0)
(0.99998207 2.8872657e-09 0)
(0.99997752 3.9762562e-09 0)
(0.99997197 5.5034364e-09 0)
(0.99996516 7.6634278e-09 0)
(0.99995672 1.0738069e-08 0)
(0.99994618 1.5210117e-08 0)
(0.99993277 2.1699747e-08 0)
(0.99991561 3.1796363e-08 0)
(0.99989254 4.6422081e-08 0)
(0.99986244 7.3778875e-08 0)
(0.99981584 1.0823994e-07 0)
(0.99975847 2.0925889e-07 0)
(0.99963107 2.7609279e-07 0)
(0.99952474 7.0133011e-07 0)
(0.99907254 1.3765268e-07 0)
(0.99941251 0.0014441431 0)
(0.045515198 0.001456813 0)
(0.028850056 1.3876472e-05 0)
(0.026570884 2.1132925e-06 0)
(0.02588268 7.0300058e-07 0)
(0.02556586 3.6436503e-07 0)
(0.025355967 2.5125278e-07 0)
(0.025199422 1.8633449e-07 0)
(0.025081681 1.4070772e-07 0)
(0.024990144 1.0976766e-07 0)
(0.024916672 8.801589e-08 0)
(0.024856401 7.1958108e-08 0)
(0.024806122 5.9748214e-08 0)
(0.024763572 5.0276371e-08 0)
(0.024727108 4.2801777e-08 0)
(0.024695514 3.6810913e-08 0)
(0.024667873 3.1942237e-08 0)
(0.024643483 2.7937426e-08 0)
(0.024621796 2.4608589e-08 0)
(0.024602379 2.1816407e-08 0)
(0.024584882 1.9455317e-08 -1.6122558e-36)
(0.024569023 1.744381e-08 0)
(0.02455457 1.5718391e-08 0)
(0.024541332 1.4229327e-08 0)
(0.02452915 1.2937116e-08 0)
(0.024517889 1.1809938e-08 0)
(0.024507435 1.0821933e-08 0)
(0.024497694 9.9520076e-09 0)
(0.024488581 9.182844e-09 0)
(0.024480027 8.5000901e-09 0)
(0.024471969 7.8917619e-09 0)
(0.024464354 7.3477811e-09 0)
(0.024457135 6.8596474e-09 0)
(0.024450273 6.4201789e-09 0)
(0.024443731 6.023266e-09 0)
(0.024437477 5.6636583e-09 0)
(0.024431484 5.3368251e-09 0)
(0.024425727 5.0388781e-09 0)
(0.024420184 4.7664675e-09 0)
(0.024414834 4.516676e-09 0)
(0.024409662 4.2869565e-09 0)
(0.02440465 4.0750851e-09 0)
(0.024399785 3.879114e-09 0)
(0.024395054 3.6973312e-09 0)
(0.024390446 3.5282325e-09 0)
(0.02438595 3.3704994e-09 0)
(0.024381558 3.2229648e-09 0)
(0.02437726 3.0845831e-09 0)
(0.02437305 2.9544279e-09 0)
(0.02436892 2.831688e-09 0)
(0.024364865 2.7156435e-09 0)
(0.024360878 2.6056504e-09 0)
(0.024356955 2.5011341e-09 0)
(0.024353092 2.4015845e-09 0)
(0.024349283 2.3065497e-09 0)
(0.024345526 2.2156247e-09 0)
(0.024341816 2.1284516e-09 0)
(0.024338152 2.0447125e-09 0)
(0.02433453 1.96407e-09 0)
(0.024330947 1.8863897e-09 0)
(0.024327403 1.8113734e-09 -3.3335083e-27)
(0.024323894 1.7387832e-09 0)
(0.02432042 1.6682897e-09 0)
(0.024316979 1.6006604e-09 0)
(0.024313567 1.5345911e-09 0)
(0.024310187 1.4698151e-09 0)
(0.024306837 1.4075216e-09 0)
(0.024303515 1.3467528e-09 0)
(0.024300221 1.2875799e-09 0)
(0.024296955 1.2299449e-09 0)
(0.024293715 1.173792e-09 0)
(0.024290503 1.1190732e-09 0)
(0.024287318 1.0657488e-09 0)
(0.02428416 1.0137881e-09 0)
(0.024281029 9.6316538e-10 0)
(0.024277925 9.1385794e-10 0)
(0.024274849 8.6584927e-10 0)
(0.024271801 8.1912824e-10 0)
(0.024268782 7.7368724e-10 0)
(0.024265792 7.2951995e-10 0)
(0.024262832 6.8662218e-10 0)
(0.024259903 6.4499439e-10 0)
(0.024257005 6.0463739e-10 0)
(0.024254141 5.655448e-10 0)
(0.024251311 5.2771191e-10 0)
(0.024248516 4.9109003e-10 0)
(0.024245759 4.5571595e-10 0)
(0.024243041 4.2078954e-10 0)
(0.024240375 3.8898879e-10 0)
(0.024237727 3.3467914e-10 0)
(0.024235538 2.5603156e-10 0)
(0.024233892 1.9510488e-10 0)
(0.02423258 1.5780421e-10 0)
(0.024231492 1.3222279e-10 0)
(0.024230564 1.1351076e-10 0)
(0.024229759 9.8996095e-11 0)
(0.024229051 8.7253098e-11 0)
(0.024228423 7.7526093e-11 0)
(0.024227863 6.9349159e-11 0)
(0.024227359 6.2392745e-11 0)
(0.024226905 5.6415486e-11 0)
(0.024226492 5.1240764e-11 0)
(0.024226117 4.6735724e-11 0)
(0.024225773 4.2804569e-11 0)
(0.024225458 3.9362589e-11 0)
(0.024225167 3.6402151e-11 0)
(0.024224897 3.3781696e-11 0)
(0.024224646 3.1990831e-11 0)
(0.024224403 2.9780154e-11 0)
(0.024224187 3.1920875e-11 0)
(0.024223913 2.9675788e-11 0)
(0.024223732 3.012534e-11 0)
(0.024223445 1.8925413e-11 -5.2690674e-26)
(1 2.2547659e-10 0)
(0.99999858 5.1426477e-10 0)
(0.99999695 6.3201067e-10 0)
(0.99999523 7.9996388e-10 0)
(0.99999322 1.0725305e-09 0)
(0.99999084 1.4458052e-09 0)
(0.99998801 1.9552069e-09 0)
(0.99998464 2.6607555e-09 0)
(0.99998058 3.6428608e-09 0)
(0.99997567 5.0137269e-09 0)
(0.99996968 6.9349833e-09 0)
(0.99996235 9.6506083e-09 0)
(0.99995327 1.3513677e-08 0)
(0.99994194 1.9128783e-08 0)
(0.99992755 2.7271736e-08 0)
(0.99990916 3.9931472e-08 0)
(0.99988448 5.8257338e-08 0)
(0.9998523 9.2505923e-08 0)
(0.99980261 1.3562185e-07 0)
(0.99974148 2.6189526e-07 0)
(0.9996061 3.4578483e-07 0)
(0.99949259 8.7811932e-07 0)
(0.99901157 1.7149526e-07 0)
(0.99937431 0.0017476952 0)
(0.054980034 0.0017663236 0)
(0.034774503 2.0508018e-05 0)
(0.031980004 3.1504834e-06 0)
(0.031129772 1.0519884e-06 0)
(0.030737591 5.4565931e-07 0)
(0.030477784 3.7619522e-07 0)
(0.030284102 2.7898549e-07 0)
(0.030138356 2.1073907e-07 0)
(0.030024973 1.6445484e-07 0)
(0.029933919 1.3190284e-07 0)
(0.029859189 1.078661e-07 0)
(0.02979682 8.9585815e-08 0)
(0.029744016 7.5401769e-08 0)
(0.029698746 6.4205872e-08 0)
(0.029659506 5.5230214e-08 0)
(0.029625165 4.7934147e-08 0)
(0.029594854 4.1931291e-08 0)
(0.029567896 3.6940548e-08 0)
(0.029543752 3.2753458e-08 0)
(0.029521991 2.9212043e-08 1.7391452e-36)
(0.029502263 2.6194329e-08 0)
(0.029484282 2.3605272e-08 0)
(0.02946781 2.1370421e-08 0)
(0.02945265 1.9430627e-08 0)
(0.029438635 1.773824e-08 0)
(0.029425626 1.6254532e-08 0)
(0.029413501 1.4947908e-08 0)
(0.02940216 1.3792426e-08 0)
(0.029391514 1.276658e-08 0)
(0.029381486 1.1852413e-08 0)
(0.02937201 1.103482e-08 0)
(0.029363029 1.0301062e-08 0)
(0.029354491 9.6403714e-09 0)
(0.029346354 9.0435885e-09 0)
(0.029338576 8.5028397e-09 0)
(0.029331123 8.0113306e-09 0)
(0.029323966 7.5632287e-09 0)
(0.029317075 7.1535088e-09 0)
(0.029310427 6.7777938e-09 0)
(0.029304 6.4322616e-09 0)
(0.029297774 6.1135742e-09 0)
(0.029291732 5.8188078e-09 0)
(0.029285858 5.545392e-09 0)
(0.029280137 5.2910677e-09 0)
(0.029274558 5.053855e-09 0)
(0.029269108 4.8320005e-09 0)
(0.029263776 4.623933e-09 0)
(0.029258555 4.4282603e-09 0)
(0.029253434 4.2437627e-09 0)
(0.029248406 4.0693581e-09 0)
(0.029243465 3.9040776e-09 0)
(0.029238604 3.7470568e-09 0)
(0.029233817 3.597528e-09 0)
(0.029229099 3.4548109e-09 0)
(0.029224445 3.3182957e-09 0)
(0.029219852 3.1874431e-09 0)
(0.029215315 3.061774e-09 0)
(0.029210831 2.9407817e-09 0)
(0.029206397 2.8242543e-09 -4.9082945e-27)
(0.02920201 2.7117545e-09 -3.8866666e-27)
(0.029197669 2.6029223e-09 0)
(0.02919337 2.4972549e-09 0)
(0.029189113 2.3958855e-09 0)
(0.029184891 2.2968873e-09 0)
(0.029180711 2.19986e-09 0)
(0.029176567 2.1065518e-09 0)
(0.029172458 2.0155489e-09 0)
(0.029168384 1.9269509e-09 0)
(0.029164344 1.8406693e-09 0)
(0.029160338 1.7566189e-09 0)
(0.029156366 1.6747261e-09 0)
(0.029152427 1.59493e-09 0)
(0.029148521 1.5171834e-09 0)
(0.029144648 1.4414462e-09 0)
(0.02914081 1.3676833e-09 0)
(0.029137005 1.2958688e-09 0)
(0.029133235 1.2259849e-09 0)
(0.0291295 1.1580192e-09 0)
(0.029125801 1.0919613e-09 0)
(0.029122139 1.0278041e-09 0)
(0.029118515 9.6554725e-10 0)
(0.029114929 9.0519145e-10 0)
(0.029111384 8.4672644e-10 0)
(0.029107881 7.9014461e-10 0)
(0.029104421 7.3537282e-10 0)
(0.029101008 6.8246537e-10 0)
(0.029097642 6.3022959e-10 0)
(0.02909434 5.8264897e-10 0)
(0.02909106 5.0172964e-10 0)
(0.02908834 3.8466646e-10 0)
(0.029086284 2.9378121e-10 0)
(0.029084641 2.3794275e-10 0)
(0.029083276 1.9956344e-10 0)
(0.029082111 1.7144636e-10 0)
(0.029081098 1.4961293e-10 0)
(0.029080207 1.3193487e-10 0)
(0.029079416 1.1728205e-10 0)
(0.02907871 1.0495694e-10 0)
(0.029078075 9.4465875e-11 0)
(0.029077501 8.5447094e-11 0)
(0.02907698 7.7635668e-11 0)
(0.029076506 7.0832198e-11 0)
(0.029076071 6.4892816e-11 0)
(0.029075672 5.9690268e-11 0)
(0.029075304 5.5212868e-11 0)
(0.029074962 5.1248136e-11 0)
(0.029074644 4.8529677e-11 0)
(0.029074337 4.5183967e-11 0)
(0.029074063 4.8351611e-11 0)
(0.029073718 4.4937642e-11 -2.5846609e-25)
(0.029073488 4.5760877e-11 0)
(0.029073124 2.864754e-11 0)
(1 2.8002123e-10 0)
(0.99999846 6.400666e-10 0)
(0.99999667 7.8825122e-10 0)
(0.9999948 9.9782111e-10 0)
(0.9999926 1.3372265e-09 0)
(0.99998999 1.8017074e-09 0)
(0.99998691 2.4350802e-09 0)
(0.99998323 3.3116578e-09 0)
(0.9999788 4.5309326e-09 0)
(0.99997346 6.2316229e-09 0)
(0.99996695 8.6134092e-09 0)
(0.99995899 1.1977539e-08 0)
(0.99994915 1.6759629e-08 0)
(0.99993689 2.3705354e-08 0)
(0.99992133 3.3770325e-08 0)
(0.99990148 4.9405336e-08 0)