/*--------------------------------*- C++ -*----------------------------------*\
| =========                 |                                                 |
| \\      /  F ield         | OpenFOAM: The Open Source CFD Toolbox           |
|  \\    /   O peration     | Version:  2206                                  |
|   \\  /    A nd           | Website:  www.openfoam.com                      |
|    \\/     M anipulation  |                                                 |
\*---------------------------------------------------------------------------*/
FoamFile
{
    version     2.0;
    format      ascii;
    arch        "LSB;label=32;scalar=64";
    class       volScalarField;
    location    "200";
    object      k;
}
// * * * * * * * * * * * * * * * * * * * * * * * * * * * * * * * * * * * * * //

dimensions      [0 2 -2 0 0 0 0];

internalField   nonuniform List<scalar> 
13056
(
0.00013806539
0.00013630448
0.00013613815
0.00013616268
0.00013617637
0.00013618034
0.00013618194
0.00013618318
0.00013618448
0.00013618591
0.00013618752
0.00013618937
0.0001361915
0.00013619398
0.00013619692
0.00013620048
0.00013620491
0.00013621063
0.00013621866
0.00013622985
0.00013625293
0.00013626817
0.00013662977
0.00011589069
3.2867206e-07
5.0936123e-08
2.6490199e-08
1.8240434e-08
1.4257028e-08
1.1816756e-08
1.0164309e-08
8.9523894e-09
8.0218266e-09
7.2843435e-09
6.6838878e-09
6.1842718e-09
5.761459e-09
5.3986591e-09
5.0836603e-09
4.8073401e-09
4.5627872e-09
4.3446649e-09
4.1487669e-09
3.9717427e-09
3.8108979e-09
3.6640168e-09
3.5292793e-09
3.4051687e-09
3.2904128e-09
3.1839383e-09
3.0848282e-09
2.9922951e-09
2.905662e-09
2.824342e-09
2.7478247e-09
2.6756645e-09
2.6074678e-09
2.5428865e-09
2.4816126e-09
2.4233725e-09
2.3679212e-09
2.3150404e-09
2.2645358e-09
2.2162311e-09
2.1699649e-09
2.1255919e-09
2.0829807e-09
2.0420123e-09
2.0025781e-09
1.9645789e-09
1.9279259e-09
1.8925373e-09
1.8583372e-09
1.8252567e-09
1.7932326e-09
1.7622067e-09
1.7321256e-09
1.702939e-09
1.6746021e-09
1.6470769e-09
1.6203296e-09
1.5943278e-09
1.5690416e-09
1.5444454e-09
1.5205179e-09
1.4972408e-09
1.4746012e-09
1.4525977e-09
1.4312343e-09
1.4105146e-09
1.3904452e-09
1.3710362e-09
1.3522977e-09
1.3342605e-09
1.3169572e-09
1.3004624e-09
1.2848602e-09
1.2702388e-09
1.2566913e-09
1.2443153e-09
1.2332199e-09
1.2235336e-09
1.215406e-09
1.2089603e-09
1.2042273e-09
1.2011552e-09
1.1995616e-09
1.199239e-09
1.199924e-09
1.2013475e-09
1.2032439e-09
1.2053902e-09
1.2076087e-09
1.2097169e-09
1.2115364e-09
1.2129664e-09
1.2139431e-09
1.2144357e-09
1.2144405e-09
1.2139854e-09
1.213121e-09
1.2119056e-09
1.2103951e-09
1.208639e-09
1.2066776e-09
1.2045396e-09
1.2022427e-09
1.1998067e-09
1.1972464e-09
1.194548e-09
1.1917381e-09
1.1886115e-09
1.1856032e-09
1.1809431e-09
1.1775549e-09
1.1723519e-09
0.00013805041
0.00013628598
0.00013611928
0.00013614386
0.00013615757
0.00013616155
0.00013616315
0.0001361644
0.00013616569
0.00013616712
0.00013616874
0.00013617059
0.00013617272
0.00013617521
0.00013617815
0.00013618171
0.00013618615
0.00013619188
0.00013619993
0.00013621114
0.00013623428
0.0001362495
0.00013661225
0.00011586378
5.1437994e-08
7.8239427e-09
4.070028e-09
2.803055e-09
2.1913359e-09
1.8165605e-09
1.5627685e-09
1.3766272e-09
1.2336927e-09
1.1204097e-09
1.0281713e-09
9.514204e-10
8.8646562e-10
8.3072838e-10
7.8233325e-10
7.3987919e-10
7.0230471e-10
6.6879018e-10
6.3868953e-10
6.1148816e-10
5.867722e-10
5.6420142e-10
5.4349609e-10
5.2442335e-10
5.0678775e-10
4.9042442e-10
4.7519249e-10
4.6097101e-10
4.4765598e-10
4.3515725e-10
4.233964e-10
4.1230498e-10
4.0182254e-10
3.9189557e-10
3.8247676e-10
3.7352409e-10
3.6499991e-10
3.5687069e-10
3.4910654e-10
3.4168039e-10
3.3456744e-10
3.2774539e-10
3.2119407e-10
3.1489523e-10
3.0883215e-10
3.0298958e-10
2.9735387e-10
2.9191244e-10
2.8665365e-10
2.815669e-10
2.7664246e-10
2.7187142e-10
2.6724554e-10
2.6275712e-10
2.5839925e-10
2.5416606e-10
2.5005235e-10
2.4605309e-10
2.4216358e-10
2.3837996e-10
2.3469937e-10
2.3111891e-10
2.2763649e-10
2.2425183e-10
2.2096554e-10
2.1777817e-10
2.1469068e-10
2.1170458e-10
2.0882134e-10
2.0604504e-10
2.0337993e-10
2.0084052e-10
1.9843953e-10
1.961897e-10
1.9410523e-10
1.9220115e-10
1.9049435e-10
1.8900447e-10
1.8775372e-10
1.8675707e-10
1.8601451e-10
1.8554259e-10
1.8530417e-10
1.8526425e-10
1.8538156e-10
1.8561425e-10
1.8592095e-10
1.8626678e-10
1.8662396e-10
1.8696363e-10
1.8725759e-10
1.874901e-10
1.8765131e-10
1.8773661e-10
1.8774552e-10
1.8768247e-10
1.8755535e-10
1.873733e-10
1.8714502e-10
1.8687826e-10
1.8657929e-10
1.8625262e-10
1.8590101e-10
1.855276e-10
1.8513471e-10
1.8472029e-10
1.842884e-10
1.8380768e-10
1.8334468e-10
1.8262792e-10
1.8210618e-10
1.8130461e-10
0.00013800261
0.00013622745
0.00013605966
0.00013608437
0.00013609816
0.00013610216
0.00013610376
0.00013610501
0.00013610631
0.00013610774
0.00013610936
0.00013611121
0.00013611335
0.00013611585
0.00013611881
0.00013612239
0.00013612685
0.00013613261
0.00013614071
0.00013615199
0.00013617532
0.00013619046
0.00013655664
0.00011574506
1.8554121e-08
2.4417396e-09
1.270528e-09
8.7521759e-10
6.8437792e-10
5.6744949e-10
4.8826335e-10
4.3018174e-10
3.85579e-10
3.5022677e-10
3.2144e-10
2.9748588e-10
2.7721282e-10
2.5981609e-10
2.4471049e-10
2.3145887e-10
2.1972998e-10
2.0926806e-10
1.9987153e-10
1.9137986e-10
1.8366388e-10
1.7661748e-10
1.7015332e-10
1.6419875e-10
1.5869278e-10
1.5358397e-10
1.4882832e-10
1.4438806e-10
1.4023076e-10
1.363283e-10
1.3265619e-10
1.2919309e-10
1.2592014e-10
1.2282062e-10
1.1987975e-10
1.1708441e-10
1.1442285e-10
1.1188458e-10
1.0946026e-10
1.071414e-10
1.0492027e-10
1.0279002e-10
1.0074455e-10
9.8778266e-11
9.6885896e-11
9.5062609e-11
9.3304119e-11
9.1606503e-11
8.996614e-11
8.8379744e-11
8.6844312e-11
8.5357092e-11
8.3915562e-11
8.2517341e-11
8.1160243e-11
7.9842467e-11
7.8562338e-11
7.7318022e-11
7.6107571e-11
7.4930303e-11
7.3787826e-11
7.2679097e-11
7.1602914e-11
7.0559224e-11
6.9548406e-11
6.8570907e-11
6.762736e-11
6.6718399e-11
6.584423e-11
6.5003934e-11
6.4194594e-11
6.343854e-11
6.2740968e-11
6.2102337e-11
6.1527833e-11
6.1023891e-11
6.0597718e-11
6.0256738e-11
6.0005373e-11
5.9828869e-11
5.9698808e-11
5.9740535e-11
5.9894814e-11
6.0127821e-11
6.0416658e-11
6.0740266e-11
6.1079178e-11
6.1417717e-11
6.1744314e-11
6.2043824e-11
6.2301836e-11
6.2514409e-11
6.2681995e-11
6.2806278e-11
6.2889775e-11
6.2936085e-11
6.2949575e-11
6.2934763e-11
6.2895859e-11
6.2836605e-11
6.2760086e-11
6.2668713e-11
6.256413e-11
6.2448126e-11
6.2322096e-11
6.2185963e-11
6.2041253e-11
6.1878805e-11
6.1718599e-11
6.147664e-11
6.1294204e-11
6.1012586e-11
0.00013792051
0.00013612705
0.00013595738
0.00013598232
0.00013599624
0.00013600027
0.00013600188
0.00013600313
0.00013600443
0.00013600587
0.0001360075
0.00013600936
0.00013601151
0.00013601402
0.000136017
0.00013602061
0.00013602511
0.00013603093
0.00013603912
0.00013605052
0.00013607417
0.00013608916
0.00013646117
0.00011553133
1.2921402e-08
1.0785832e-09
5.6118555e-10
3.8664699e-10
3.0242557e-10
2.5082721e-10
2.1588154e-10
1.9024691e-10
1.7055937e-10
1.5495347e-10
1.422435e-10
1.316675e-10
1.2271749e-10
1.1503753e-10
1.0836909e-10
1.0251925e-10
9.7341575e-11
9.2723116e-11
8.8574986e-11
8.48264e-11
8.1420385e-11
7.8310139e-11
7.5457067e-11
7.282913e-11
7.0399399e-11
6.8145201e-11
6.6047004e-11
6.4088082e-11
6.2254147e-11
6.0532833e-11
5.8913371e-11
5.7386349e-11
5.5943461e-11
5.457732e-11
5.3281307e-11
5.2049658e-11
5.0877179e-11
4.97592e-11
4.869152e-11
4.7670353e-11
4.6692241e-11
4.5754474e-11
4.4854982e-11
4.3991604e-11
4.3161837e-11
4.236337e-11
4.1594261e-11
4.0852806e-11
4.0137465e-11
3.944687e-11
3.8779805e-11
3.8135187e-11
3.7512063e-11
3.6909485e-11
3.6326479e-11
3.5762383e-11
3.5216403e-11
3.4687067e-11
3.4172217e-11
3.3673033e-11
3.3197272e-11
3.2744239e-11
3.2312106e-11
3.1901202e-11
3.1512528e-11
3.1147367e-11
3.0807272e-11
3.0493476e-11
3.0206032e-11
2.9939868e-11
2.9683482e-11
2.9492506e-11
2.9374538e-11
2.9322683e-11
2.9343237e-11
2.944568e-11
2.9640757e-11
2.9938385e-11
3.0338862e-11
3.0797342e-11
3.1236931e-11
3.1956953e-11
3.2834074e-11
3.37975e-11
3.4805666e-11
3.5822156e-11
3.6816154e-11
3.7764711e-11
3.8653251e-11
3.9454335e-11
4.0142595e-11
4.0719864e-11
4.1198666e-11
4.1590611e-11
4.1906008e-11
4.2154049e-11
4.2343159e-11
4.248104e-11
4.2574655e-11
4.2630225e-11
4.2653027e-11
4.2647596e-11
4.2617396e-11
4.2566035e-11
4.2496467e-11
4.2410632e-11
4.2310124e-11
4.2193032e-11
4.2065563e-11
4.1892896e-11
4.1742136e-11
4.1505519e-11
0.00013780179
0.00013598185
0.00013580948
0.00013583476
0.00013584886
0.00013585294
0.00013585456
0.00013585581
0.00013585712
0.00013585857
0.00013586021
0.00013586208
0.00013586425
0.00013586678
0.00013586979
0.00013587344
0.000135878
0.00013588389
0.00013589221
0.00013590378
0.00013592789
0.00013594267
0.00013632307
0.00011521783
1.4508555e-08
5.7949454e-10
3.0101283e-10
2.0734941e-10
1.6223273e-10
1.3461486e-10
1.1590873e-10
1.0218332e-10
9.1640376e-11
8.3281673e-11
7.6470398e-11
7.0804209e-11
6.6011608e-11
6.190029e-11
5.8331273e-11
5.5201217e-11
5.2431187e-11
4.9960516e-11
4.7741791e-11
4.573729e-11
4.3916591e-11
4.2254667e-11
4.0730837e-11
3.9327951e-11
3.8031585e-11
3.6829687e-11
3.5711529e-11
3.4668021e-11
3.3691597e-11
3.2775753e-11
3.1914793e-11
3.1103728e-11
3.0338154e-11
2.96141e-11
2.8927866e-11
2.8276426e-11
2.7656994e-11
2.7066995e-11
2.6504036e-11
2.5966024e-11
2.545099e-11
2.4958116e-11
2.4487549e-11
2.4038763e-11
2.3610103e-11
2.3200017e-11
2.2807424e-11
2.2431498e-11
2.2071575e-11
2.1727135e-11
2.1397796e-11
2.1083308e-11
2.0783554e-11
2.0498333e-11
2.0227254e-11
1.9970368e-11
1.9727337e-11
1.9496273e-11
1.9273729e-11
1.9063376e-11
1.888268e-11
1.8731071e-11
1.8605891e-11
1.8508682e-11
1.8442329e-11
1.8410428e-11
1.8417147e-11
1.8466291e-11
1.8559772e-11
1.8690035e-11
1.8837418e-11
1.9105034e-11
1.9511088e-11
2.0048074e-11
2.0731929e-11
2.1585289e-11
2.2634578e-11
2.3907183e-11
2.5419011e-11
2.7135205e-11
2.8958051e-11
3.1143116e-11
3.3607944e-11
3.6233947e-11
3.8926944e-11
4.1602101e-11
4.4189392e-11
4.6638351e-11
4.8919039e-11
5.0967374e-11
5.2724625e-11
5.4201143e-11
5.5433946e-11
5.6455832e-11
5.7294706e-11
5.7973929e-11
5.8513759e-11
5.8932158e-11
5.9245236e-11
5.9467421e-11
5.9611068e-11
5.9687044e-11
5.9703889e-11
5.9670346e-11
5.9593665e-11
5.9479668e-11
5.933147e-11
5.9153101e-11
5.8941791e-11
5.8683339e-11
5.8427126e-11
5.8020191e-11
0.00013764329
0.00013578794
0.00013561194
0.00013563766
0.00013565202
0.00013565616
0.00013565779
0.00013565906
0.00013566037
0.00013566183
0.00013566348
0.00013566537
0.00013566756
0.00013567012
0.00013567317
0.00013567687
0.00013568151
0.00013568751
0.00013569599
0.00013570779
0.00013573252
0.00013574701
0.00013613857
0.00011479848
1.9754459e-08
3.5701413e-10
1.8426416e-10
1.2674013e-10
9.9185511e-11
8.2370465e-11
7.0980046e-11
6.2616966e-11
5.6190805e-11
5.1094009e-11
4.6935204e-11
4.3478599e-11
4.0559645e-11
3.8058209e-11
3.5888591e-11
3.398775e-11
3.2306499e-11
3.0807488e-11
2.9462178e-11
2.8247944e-11
2.7146413e-11
2.614239e-11
2.5223259e-11
2.4378575e-11
2.3599545e-11
2.2878999e-11
2.2209869e-11
2.1586347e-11
2.1003998e-11
2.045909e-11
1.9948304e-11
1.9468699e-11
1.9017686e-11
1.8592841e-11
1.8191702e-11
1.7812551e-11
1.7453702e-11
1.7113484e-11
1.6790228e-11
1.6482598e-11
1.6189128e-11
1.5910307e-11
1.5648264e-11
1.5403703e-11
1.5175199e-11
1.4961455e-11
1.4761853e-11
1.457613e-11
1.4404224e-11
1.4246265e-11
1.4102576e-11
1.3973685e-11
1.3860329e-11
1.3763135e-11
1.3682452e-11
1.3619293e-11
1.3574131e-11
1.3544709e-11
1.3526193e-11
1.3525508e-11
1.3571712e-11
1.3665601e-11
1.3805364e-11
1.3995614e-11
1.4243576e-11
1.4557895e-11
1.4948488e-11
1.5425918e-11
1.6000417e-11
1.6674887e-11
1.7438472e-11
1.8396431e-11
1.9609173e-11
2.1093079e-11
2.2887343e-11
2.5042708e-11
2.7618357e-11
3.0677837e-11
3.4268802e-11
3.8373662e-11
4.286951e-11
4.7955628e-11
5.3560164e-11
5.9479118e-11
6.5513378e-11
7.1479456e-11
7.7227319e-11
8.2650681e-11
8.7688479e-11
9.2204017e-11
9.6072461e-11
9.932075e-11
1.0203375e-10
1.0428574e-10
1.0613918e-10
1.0764561e-10
1.0884918e-10
1.0978882e-10
1.1049936e-10
1.1101207e-10
1.1135376e-10
1.1154818e-10
1.1161413e-10
1.1157064e-10
1.1143357e-10
1.1121614e-10
1.1092483e-10
1.1057229e-10
1.1014456e-10
1.0964141e-10
1.091217e-10
1.0829369e-10
0.00013744107
0.00013554037
0.00013535972
0.00013538602
0.00013540069
0.00013540491
0.00013540656
0.00013540784
0.00013540916
0.00013541063
0.0001354123
0.00013541421
0.00013541643
0.00013541903
0.00013542213
0.0001354259
0.00013543063
0.00013543677
0.00013544547
0.00013545756
0.00013548305
0.00013549716
0.00013590298
0.00011426617
2.7964657e-08
2.5088622e-10
1.2729995e-10
8.7162901e-11
6.8209107e-11
5.6740268e-11
4.8970186e-11
4.3256117e-11
3.8862263e-11
3.5374562e-11
3.2521251e-11
3.0154594e-11
2.8163536e-11
2.6461751e-11
2.4989155e-11
2.3702565e-11
2.2566425e-11
2.1554522e-11
2.0647968e-11
1.9831935e-11
1.9094162e-11
1.8424354e-11
1.7813879e-11
1.7255603e-11
1.6743509e-11
1.6273014e-11
1.5838347e-11
1.5435063e-11
1.5060441e-11
1.471235e-11
1.4388791e-11
1.408794e-11
1.3808201e-11
1.3547973e-11
1.330542e-11
1.3079578e-11
1.2869358e-11
1.2673549e-11
1.2490782e-11
1.2320188e-11
1.2160168e-11
1.2012181e-11
1.1880309e-11
1.1766512e-11
1.1669642e-11
1.1588699e-11
1.1523554e-11
1.1474537e-11
1.144227e-11
1.1427668e-11
1.1431978e-11
1.1456809e-11
1.1504154e-11
1.1576132e-11
1.1674733e-11
1.1802765e-11
1.1963049e-11
1.215485e-11
1.2374476e-11
1.2629459e-11
1.2952807e-11
1.3355538e-11
1.3841927e-11
1.4423034e-11
1.5114192e-11
1.5933418e-11
1.6901216e-11
1.8040568e-11
1.9377041e-11
2.093301e-11
2.2718199e-11
2.485113e-11
2.7449855e-11
3.0578724e-11
3.4322386e-11
3.8784098e-11
4.4083443e-11
5.0350027e-11
5.7688277e-11
6.6108045e-11
7.5450522e-11
8.5843047e-11
9.7172569e-11
1.0907895e-10
1.2117273e-10
1.330916e-10
1.4454201e-10
1.5531923e-10
1.6530874e-10
1.7424643e-10
1.8189175e-10
1.8830364e-10
1.936541e-10
1.980925e-10
2.0174351e-10
2.0470937e-10
2.0707733e-10
2.0892423e-10
2.103188e-10
2.1132276e-10
2.1198918e-10
2.1236512e-10
2.1248796e-10
2.1239522e-10
2.1211819e-10
2.1168332e-10
2.1110325e-10
2.10405e-10
2.0955684e-10
2.085733e-10
2.0754845e-10
2.0591515e-10
0.00013719043
0.00013523322
0.00013504679
0.00013507379
0.00013508886
0.00013509318
0.00013509486
0.00013509614
0.00013509748
0.00013509897
0.00013510065
0.00013510259
0.00013510484
0.00013510749
0.00013511065
0.00013511451
0.00013511936
0.00013512567
0.00013513463
0.00013514707
0.00013517353
0.00013518714
0.00013561066
0.00011361311
3.9242562e-08
2.0745111e-10
1.0178527e-10
6.9016866e-11
5.3975311e-11
4.5034033e-11
3.8975183e-11
3.4505139e-11
3.1063231e-11
2.8327276e-11
2.6080861e-11
2.4224394e-11
2.2672449e-11
2.1352687e-11
2.0216215e-11
1.9229143e-11
1.8360524e-11
1.7588721e-11
1.6899918e-11
1.6283514e-11
1.5730381e-11
1.5232593e-11
1.4783384e-11
1.4377174e-11
1.4009246e-11
1.367652e-11
1.337298e-11
1.3094391e-11
1.2839113e-11
1.2606155e-11
1.2394395e-11
1.2202708e-11
1.2030137e-11
1.1875736e-11
1.1738231e-11
1.1617102e-11
1.1511739e-11
1.1421346e-11
1.1344831e-11
1.1281876e-11
1.1229851e-11
1.118999e-11
1.1167502e-11
1.1166215e-11
1.1186512e-11
1.1228299e-11
1.1292234e-11
1.1379515e-11
1.1491759e-11
1.1631058e-11
1.180008e-11
1.2002142e-11
1.2241248e-11
1.2521915e-11
1.2848904e-11
1.3228101e-11
1.3666349e-11
1.4165673e-11
1.4724926e-11
1.5354306e-11
1.6092035e-11
1.6963284e-11
1.7983961e-11
1.9177009e-11
2.0572007e-11
2.2203342e-11
2.4109966e-11
2.6336391e-11
2.893464e-11
3.1960192e-11
3.5460394e-11
3.9592541e-11
4.4558314e-11
5.0504046e-11
5.7595424e-11
6.6027712e-11
7.6025422e-11
8.7832093e-11
1.0164876e-10
1.1753096e-10
1.3526899e-10
1.5487084e-10
1.7610043e-10
1.9832252e-10
2.2081943e-10
2.4292345e-10
2.6409968e-10
2.8398139e-10
3.0236933e-10
3.1878984e-10
3.3281271e-10
3.4455614e-10
3.5434285e-10
3.6245115e-10
3.6911179e-10
3.7451307e-10
3.7881546e-10
3.8216029e-10
3.8467395e-10
3.8646999e-10
3.8764628e-10
3.8828958e-10
3.8846909e-10
3.8825355e-10
3.8770034e-10
3.8685834e-10
3.8575074e-10
3.8442845e-10
3.8283052e-10
3.8099151e-10
3.7907559e-10
3.7602374e-10
0.00013688594
0.00013485961
0.00013466611
0.00013469398
0.00013470954
0.00013471398
0.00013471568
0.00013471698
0.00013471834
0.00013471984
0.00013472155
0.00013472352
0.00013472582
0.00013472852
0.00013473176
0.00013473572
0.00013474072
0.00013474723
0.00013475651
0.00013476938
0.00013479699
0.00013480998
0.00013525504
0.0001128312
5.4041846e-08
2.0874869e-10
9.7736497e-11
6.5288724e-11
5.0993334e-11
4.2725959e-11
3.7122532e-11
3.2967854e-11
2.976244e-11
2.7209558e-11
2.5108578e-11
2.3380733e-11
2.1945784e-11
2.073381e-11
1.9697907e-11
1.8806577e-11
1.8026623e-11
1.7336297e-11
1.6724079e-11
1.6181499e-11
1.570071e-11
1.5274511e-11
1.4896592e-11
1.4561764e-11
1.4265624e-11
1.4006017e-11
1.377525e-11
1.3568309e-11
1.3384361e-11
1.3223432e-11
1.3085104e-11
1.2968768e-11
1.2873952e-11
1.2800266e-11
1.2746993e-11
1.2714002e-11
1.2701131e-11
1.2707994e-11
1.2733742e-11
1.2778812e-11
1.2838758e-11
1.2914213e-11
1.3011707e-11
1.3137459e-11
1.3294147e-11
1.3483261e-11
1.3706791e-11
1.3967331e-11
1.4268076e-11
1.4612997e-11
1.5007045e-11
1.5456293e-11
1.5968025e-11
1.6550615e-11
1.721334e-11
1.7967222e-11
1.8825704e-11
1.9795289e-11
2.087917e-11
2.2094075e-11
2.3488346e-11
2.5106659e-11
2.6984102e-11
2.9164059e-11
3.1700219e-11
3.4654555e-11
3.8097117e-11
4.2108678e-11
4.6785795e-11
5.2239595e-11
5.8583227e-11
6.6050587e-11
7.4971122e-11
8.5626276e-11
9.8319435e-11
1.1340092e-10
1.3127096e-10
1.5236252e-10
1.7703512e-10
2.054186e-10
2.3722926e-10
2.7226379e-10
3.1002182e-10
3.4939738e-10
3.8912566e-10
4.2803656e-10
4.6520543e-10
5.0001054e-10
5.3212521e-10
5.6074536e-10
5.8514257e-10
6.0554086e-10
6.2251474e-10
6.3655606e-10
6.4806991e-10
6.5738545e-10
6.6478289e-10
6.7050931e-10
6.7478553e-10
6.7781005e-10
6.7975429e-10
6.8077021e-10
6.8097947e-10
6.8050156e-10
6.7943639e-10
6.7786955e-10
6.7584155e-10
6.7344223e-10
6.7056299e-10
6.672681e-10
6.6384525e-10
6.5839712e-10
0.00013652146
0.00013441175
0.00013420971
0.00013423862
0.00013425477
0.00013425935
0.00013426108
0.00013426241
0.00013426378
0.0001342653
0.00013426704
0.00013426905
0.0001342714
0.00013427417
0.0001342775
0.00013428159
0.00013428676
0.00013429351
0.00013430317
0.00013431655
0.00013434555
0.00013435774
0.00013482865
0.00011191251
7.3057549e-08
2.5230814e-10
1.1296826e-10
7.4298718e-11
5.7940347e-11
4.8752884e-11
4.252466e-11
3.788189e-11
3.4292674e-11
3.1429078e-11
2.9071601e-11
2.7141056e-11
2.5546168e-11
2.4208309e-11
2.3074087e-11
2.2108416e-11
2.1268895e-11
2.0529232e-11
1.9878104e-11
1.9307682e-11
1.8809946e-11
1.8377041e-11
1.8001891e-11
1.7678699e-11
1.7402519e-11
1.717179e-11
1.6975425e-11
1.6806531e-11
1.6664989e-11
1.6551967e-11
1.6467751e-11
1.6412192e-11
1.6385274e-11
1.6387171e-11
1.6417785e-11
1.647747e-11
1.6566581e-11
1.6685214e-11
1.6832777e-11
1.7010836e-11
1.7212082e-11
1.7436329e-11
1.7692171e-11
1.7989117e-11
1.833305e-11
1.8727964e-11
1.9178043e-11
1.9688147e-11
2.0264017e-11
2.0912643e-11
2.1642655e-11
2.2464572e-11
2.3390971e-11
2.4436435e-11
2.5617519e-11
2.6953657e-11
2.8469007e-11
3.0177353e-11
3.2089178e-11
3.4233596e-11
3.6676945e-11
3.949236e-11
4.2745605e-11
4.6513939e-11
5.0890822e-11
5.598365e-11
6.1913712e-11
6.8821575e-11
7.6877362e-11
8.6284472e-11
9.7268023e-11
1.101962e-10
1.2559661e-10
1.4396944e-10
1.6584547e-10
1.918298e-10
2.2260966e-10
2.5892519e-10
3.0138879e-10
3.5024615e-10
4.0510015e-10
4.6537903e-10
5.3007349e-10
5.9728724e-10
6.6486462e-10
7.3083056e-10
7.9364869e-10
8.5230838e-10
9.0629924e-10
9.5431096e-10
9.9515975e-10
1.0292532e-09
1.0575759e-09
1.0809649e-09
1.1001045e-09
1.1155485e-09
1.1277684e-09
1.1371803e-09
1.1441558e-09
1.1490292e-09
1.1520898e-09
1.1535938e-09
1.1537473e-09
1.1527502e-09
1.15077e-09
1.147951e-09
1.1443613e-09
1.140153e-09
1.1351409e-09
1.1294344e-09
1.1235286e-09
1.1141365e-09
0.00013609017
0.00013388087
0.00013366864
0.00013369879
0.00013371564
0.00013372039
0.00013372217
0.00013372351
0.0001337249
0.00013372645
0.00013372823
0.00013373028
0.00013373269
0.00013373554
0.00013373898
0.00013374321
0.00013374859
0.00013375563
0.00013376574
0.00013377972
0.00013381035
0.00013382154
0.00013432314
0.00011084977
9.7213228e-08
3.4565278e-10
1.5003309e-10
9.7532268e-11
7.5962703e-11
6.4117518e-11
5.6086579e-11
5.0074991e-11
4.5420788e-11
4.17036e-11
3.8647023e-11
3.6150049e-11
3.4093267e-11
3.2376619e-11
3.0930589e-11
2.9709985e-11
2.8654587e-11
2.7728309e-11
2.6918017e-11
2.6215204e-11
2.5610227e-11
2.5093107e-11
2.4654662e-11
2.4287392e-11
2.3984878e-11
2.3745945e-11
2.3553773e-11
2.3398137e-11
2.3279688e-11
2.3201082e-11
2.3163463e-11
2.3167182e-11
2.3212752e-11
2.3301037e-11
2.3432729e-11
2.3608888e-11
2.3830578e-11
2.4098561e-11
2.4412587e-11
2.477597e-11
2.5176998e-11
2.56144e-11
2.6100065e-11
2.6648277e-11
2.7269525e-11
2.7971675e-11
2.8762445e-11
2.9650346e-11
3.0645198e-11
3.1758824e-11
3.300573e-11
3.4403543e-11
3.5973305e-11
3.7739506e-11
3.9730346e-11
4.1978828e-11
4.4526341e-11
4.73985e-11
5.0617951e-11
5.4235234e-11
5.8346603e-11
6.3068031e-11
6.8513845e-11
7.4816289e-11
8.2133269e-11
9.064575e-11
1.005581e-10
1.1210797e-10
1.2558516e-10
1.4134386e-10
1.5979545e-10
1.8153302e-10
2.073923e-10
2.3822269e-10
2.749235e-10
3.1851105e-10
3.7013343e-10
4.3101969e-10
5.0217759e-10
5.8402616e-10
6.7598427e-10
7.7685247e-10
8.8469825e-10
9.9631576e-10
1.1081236e-09
1.2168818e-09
1.320114e-09
1.4162312e-09
1.5044677e-09
1.5827541e-09
1.6492256e-09
1.7046008e-09
1.750521e-09
1.7883702e-09
1.8192719e-09
1.8441324e-09
1.863723e-09
1.8787253e-09
1.8897481e-09
1.8973388e-09
1.9019719e-09
1.904068e-09
1.9039661e-09
1.9019918e-09
1.8984179e-09
1.8934809e-09
1.8872921e-09
1.8801015e-09
1.8716029e-09
1.8619736e-09
1.8520487e-09
1.8362794e-09
0.00013558464
0.00013325733
0.00013303302
0.00013306464
0.00013308231
0.00013308726
0.00013308909
0.00013309045
0.00013309187
0.00013309346
0.00013309527
0.00013309738
0.00013309986
0.0001331028
0.00013310637
0.00013311077
0.00013311638
0.00013312377
0.0001331344
0.00013314907
0.0001331816
0.00013319156
0.00013372925
0.00010963692
1.2768592e-07
5.0566057e-10
2.1568086e-10
1.392274e-10
1.0835151e-10
9.1627547e-11
8.028796e-11
7.1777753e-11
6.51838e-11
5.9915509e-11
5.5590952e-11
5.2060868e-11
4.9156114e-11
4.6738767e-11
4.4710653e-11
4.3008153e-11
4.1541358e-11
4.0257341e-11
3.9138812e-11
3.8175145e-11
3.7353335e-11
3.6659423e-11
3.6080408e-11
3.560569e-11
3.5226179e-11
3.494096e-11
3.4724109e-11
3.4560001e-11
3.445025e-11
3.4399627e-11
3.4410448e-11
3.4483718e-11
3.4620657e-11
3.4823085e-11
3.5092817e-11
3.5431999e-11
3.5842755e-11
3.6326852e-11
3.688457e-11
3.7521978e-11
3.8220654e-11
3.8977831e-11
3.9810561e-11
4.0740224e-11
4.1784087e-11
4.2955993e-11
4.4269274e-11
4.5738257e-11
4.7379243e-11
4.9211723e-11
5.125952e-11
5.3551514e-11
5.6122157e-11
5.9011627e-11
6.2266597e-11
6.5941705e-11
7.0105794e-11
7.480356e-11
8.0077719e-11
8.601437e-11
9.2757969e-11
1.0048973e-10
1.0940034e-10
1.1971003e-10
1.3167988e-10
1.4560859e-10
1.6183365e-10
1.8074854e-10
2.0283547e-10
2.2869195e-10
2.5903371e-10
2.9482213e-10
3.3737244e-10
3.8808521e-10
4.4844878e-10
5.2013484e-10
6.0502206e-10
7.0510735e-10
8.2200667e-10
9.5638896e-10
1.1073613e-09
1.2726722e-09
1.4487793e-09
1.6303305e-09
1.8114918e-09
1.987065e-09
2.1531538e-09
2.3073266e-09
2.448476e-09
2.5734127e-09
2.6792697e-09
2.7672829e-09
2.8401295e-09
2.9000498e-09
2.948849e-09
2.987978e-09
3.018673e-09
3.0420283e-09
3.0590198e-09
3.0705259e-09
3.0773089e-09
3.0800442e-09
3.0792784e-09
3.0755303e-09
3.0692351e-09
3.0607722e-09
3.0503196e-09
3.0382797e-09
3.0241565e-09
3.0082296e-09
2.9918822e-09
2.9659331e-09
0.00013499679
0.00013253057
0.00013229204
0.00013232537
0.00013234402
0.00013234921
0.00013235109
0.00013235249
0.00013235393
0.00013235556
0.00013235742
0.00013235959
0.00013236215
0.00013236521
0.00013236892
0.00013237352
0.00013237941
0.00013238718
0.00013239842
0.00013241389
0.00013244862
0.00013245705
0.00013303686
0.00010826968
1.6595395e-07
7.6054529e-10
3.2157316e-10
2.0680233e-10
1.6087377e-10
1.3618303e-10
1.1944076e-10
1.0685807e-10
9.7105202e-11
8.931361e-11
8.2928364e-11
7.7715257e-11
7.3425616e-11
6.986092e-11
6.6876799e-11
6.4379683e-11
6.2232841e-11
6.0356419e-11
5.8725882e-11
5.7326665e-11
5.6140069e-11
5.5145597e-11
5.4324039e-11
5.365977e-11
5.313936e-11
5.276208e-11
5.2487935e-11
5.2292874e-11
5.2179823e-11
5.2156683e-11
5.222748e-11
5.2394158e-11
5.265897e-11
5.3025148e-11
5.3496192e-11
5.4075944e-11
5.4768179e-11
5.5576235e-11
5.6501264e-11
5.7553675e-11
5.8704887e-11
5.9950028e-11
6.1314129e-11
6.2829178e-11
6.4522555e-11
6.6417301e-11
6.8535583e-11
7.0900905e-11
7.3539791e-11
7.6483808e-11
7.9771432e-11
8.3449233e-11
8.7572738e-11
9.2206785e-11
9.7427136e-11
1.0332263e-10
1.1000547e-10
1.1755088e-10
1.2603424e-10
1.3559936e-10
1.4646728e-10
1.5891906e-10
1.7326463e-10
1.8986368e-10
2.0914088e-10
2.3158174e-10
2.5773521e-10
2.8824266e-10
3.2389291e-10
3.6567217e-10
4.1478662e-10
4.7279254e-10
5.4175164e-10
6.2392719e-10
7.2173897e-10
8.3789315e-10
9.7541553e-10
1.1374963e-09
1.3266754e-09
1.5439689e-09
1.7879426e-09
2.0545986e-09
2.3376648e-09
2.6283068e-09
2.9171669e-09
3.1960522e-09
3.4589517e-09
3.7022284e-09
3.9243363e-09
4.1204556e-09
4.2862619e-09
4.4238384e-09
4.5374796e-09
4.6307517e-09
4.706506e-09
4.7670281e-09
4.8142688e-09
4.849957e-09
4.8756335e-09
4.8926846e-09
4.9023156e-09
4.9055943e-09
4.9033871e-09
4.8965076e-09
4.8856392e-09
4.8713807e-09
4.854012e-09
4.8341698e-09
4.8110645e-09
4.7851272e-09
4.7586155e-09
4.7165729e-09
0.00013431804
0.00013168917
0.00013143399
0.00013146933
0.00013148911
0.00013149458
0.00013149653
0.00013149795
0.00013149943
0.0001315011
0.00013150302
0.00013150526
0.00013150791
0.0001315111
0.00013151498
0.00013151981
0.00013152602
0.00013153424
0.00013154617
0.00013156255
0.00013159981
0.00013160636
0.00013223498
0.00010674615
2.1386537e-07
1.1540603e-09
4.8599982e-10
3.1194052e-10
2.4261608e-10
2.0549522e-10
1.8032333e-10
1.6139109e-10
1.467151e-10
1.3499362e-10
1.2540127e-10
1.175652e-10
1.1111448e-10
1.0575745e-10
1.0127815e-10
9.7536476e-11
9.4323635e-11
9.1518063e-11
8.9083616e-11
8.6999309e-11
8.5237433e-11
8.3767273e-11
8.2559969e-11
8.1592085e-11
8.084346e-11
8.0313505e-11
7.9940802e-11
7.9688364e-11
7.956101e-11
7.9571334e-11
7.9725937e-11
8.0028176e-11
8.048187e-11
8.10924e-11
8.1865845e-11
8.280872e-11
8.3927381e-11
8.5227646e-11
8.671213e-11
8.8398037e-11
9.0241488e-11
9.2234639e-11
9.4414742e-11
9.6829698e-11
9.9522039e-11
1.0252891e-10
1.0588627e-10
1.0963201e-10
1.1380866e-10
1.1846669e-10
1.2366748e-10
1.2948524e-10
1.3600841e-10
1.4334037e-10
1.516024e-10
1.60937e-10
1.7152445e-10
1.8348836e-10
1.9695666e-10
2.1216552e-10
2.2945673e-10
2.4926457e-10
2.7208428e-10
2.9849476e-10
3.2917832e-10
3.6491482e-10
4.0658694e-10
4.552278e-10
5.1211131e-10
5.7883988e-10
6.5740187e-10
7.5030472e-10
8.6077268e-10
9.9241131e-10
1.1491013e-09
1.3351692e-09
1.5554286e-09
1.8149089e-09
2.1175388e-09
2.4647971e-09
2.8543005e-09
3.2791695e-09
3.7285958e-09
4.1881491e-09
4.6430054e-09
5.0804375e-09
5.4913226e-09
5.8703302e-09
6.2153808e-09
6.5193049e-09
6.7756805e-09
6.9879595e-09
7.1629407e-09
7.3062249e-09
7.4222566e-09
7.5145913e-09
7.5862703e-09
7.6399933e-09
7.678163e-09
7.7029411e-09
7.7162096e-09
7.7196352e-09
7.7145744e-09
7.7022874e-09
7.6838339e-09
7.6601471e-09
7.6316614e-09
7.5993721e-09
7.5620364e-09
7.5203104e-09
7.4778333e-09
7.4105387e-09
0.00013353933
0.0001307209
0.0001304463
0.00013048396
0.00013050506
0.00013051085
0.00013051288
0.00013051434
0.00013051586
0.00013051757
0.00013051955
0.00013052188
0.00013052464
0.00013052797
0.00013053204
0.00013053714
0.00013054371
0.00013055244
0.00013056516
0.00013058258
0.00013062271
0.00013062695
0.00013131177
0.00010506743
2.7373069e-07
1.7523246e-09
7.3673386e-10
4.7241246e-10
3.6740202e-10
3.1129069e-10
2.7323979e-10
2.4460933e-10
2.2241577e-10
2.0469635e-10
1.9021208e-10
1.7837126e-10
1.6861848e-10
1.6052147e-10
1.5375543e-10
1.481094e-10
1.4326512e-10
1.3903738e-10
1.3537209e-10
1.3223831e-10
1.2959449e-10
1.2739431e-10
1.2559421e-10
1.2415887e-10
1.2305789e-10
1.2229081e-10
1.2176387e-10
1.2142041e-10
1.2126804e-10
1.2132644e-10
1.2160612e-10
1.2211261e-10
1.2285216e-10
1.2383342e-10
1.2506648e-10
1.2656202e-10
1.2833045e-10
1.303815e-10
1.3272022e-10
1.3537439e-10
1.3827718e-10
1.4141656e-10
1.4484845e-10
1.4864465e-10
1.5287043e-10
1.5758446e-10
1.628441e-10
1.6870962e-10
1.7524852e-10
1.8254069e-10
1.9068316e-10
1.9979306e-10
2.1001005e-10
2.2149739e-10
2.3444724e-10
2.490859e-10
2.6569986e-10
2.8448894e-10
3.0566479e-10
3.2960979e-10
3.5685532e-10
3.8807132e-10
4.2403976e-10
4.6568209e-10
5.1408409e-10
5.7048706e-10
6.3629756e-10
7.1316459e-10
8.0312546e-10
9.087535e-10
1.0332746e-09
1.180705e-09
1.356079e-09
1.5650826e-09
1.8138729e-09
2.1092989e-09
2.4589441e-09
2.8706528e-09
3.3504224e-09
3.9003179e-09
4.5162893e-09
5.1867229e-09
5.8933835e-09
6.6129298e-09
7.3221192e-09
8.001418e-09
8.6371749e-09
9.2217214e-09
9.7523785e-09
1.0218621e-08
1.0611032e-08
1.093525e-08
1.1201923e-08
1.1419754e-08
1.1595596e-08
1.1734928e-08
1.1842447e-08
1.192233e-08
1.197829e-08
1.2013664e-08
1.2031362e-08
1.2033961e-08
1.2023564e-08
1.2002103e-08
1.1971206e-08
1.1932313e-08
1.1886092e-08
1.1834082e-08
1.1774347e-08
1.1707872e-08
1.1640468e-08
1.1533787e-08
0.00013265123
0.00012961274
0.00012931558
0.00012935593
0.00012937856
0.00012938473
0.00012938684
0.00012938835
0.00012938991
0.00012939168
0.00012939373
0.00012939615
0.00012939904
0.00012940253
0.00012940682
0.00012941221
0.0001294192
0.00012942851
0.00012944211
0.00012946069
0.00012950407
0.00012950549
0.00013025461
0.00010323815
3.4844666e-07
2.6542395e-09
1.1154208e-09
7.1488451e-10
5.5597823e-10
4.7116685e-10
4.1365124e-10
3.7036493e-10
3.3681296e-10
3.1003496e-10
2.8816616e-10
2.7027549e-10
2.5553176e-10
2.432925e-10
2.3306888e-10
2.2454327e-10
2.1723229e-10
2.1085444e-10
2.0532837e-10
2.0060799e-10
1.9663086e-10
1.9332708e-10
1.9063092e-10
1.884892e-10
1.8685607e-10
1.8573129e-10
1.8497245e-10
1.8449322e-10