/*--------------------------------*- C++ -*----------------------------------*\
| =========                 |                                                 |
| \\      /  F ield         | OpenFOAM: The Open Source CFD Toolbox           |
|  \\    /   O peration     | Version:  2206                                  |
|   \\  /    A nd           | Website:  www.openfoam.com                      |
|    \\/     M anipulation  |                                                 |
\*---------------------------------------------------------------------------*/
FoamFile
{
    version     2.0;
    format      ascii;
    arch        "LSB;label=32;scalar=64";
    class       volScalarField;
    location    "200";
    object      nut;
}
// * * * * * * * * * * * * * * * * * * * * * * * * * * * * * * * * * * * * * //

dimensions      [0 2 -1 0 0 0 0];

internalField   nonuniform List<scalar> 
13056
(
1.9886752e-07
1.988124e-07
1.9882359e-07
1.9883698e-07
1.9884422e-07
1.9884766e-07
1.9884946e-07
1.988506e-07
1.9885145e-07
1.9885218e-07
1.9885285e-07
1.9885354e-07
1.9885429e-07
1.9885519e-07
1.9885631e-07
1.9885778e-07
1.9885983e-07
1.9886269e-07
1.988676e-07
1.9887277e-07
1.9890084e-07
1.9881928e-07
1.9951724e-07
8.4429761e-09
2.7516961e-16
4.2644552e-17
2.2178027e-17
1.5271189e-17
1.1936216e-17
9.8931805e-18
8.5097252e-18
7.4950864e-18
6.716004e-18
6.0985711e-18
5.5958598e-18
5.1775731e-18
4.8235874e-18
4.5198454e-18
4.2561233e-18
4.0247835e-18
3.8200398e-18
3.6374243e-18
3.4734153e-18
3.3252077e-18
3.1905458e-18
3.0675746e-18
2.9547701e-18
2.8508627e-18
2.7547872e-18
2.665645e-18
2.5826684e-18
2.5051982e-18
2.4326676e-18
2.3645852e-18
2.3005237e-18
2.2401099e-18
2.1830146e-18
2.128946e-18
2.0776465e-18
2.0288869e-18
1.9824622e-18
1.9381896e-18
1.8959063e-18
1.8554648e-18
1.81673e-18
1.7795802e-18
1.7439054e-18
1.709606e-18
1.676591e-18
1.6447775e-18
1.614091e-18
1.5844631e-18
1.5558302e-18
1.5281347e-18
1.5013236e-18
1.4753482e-18
1.4501638e-18
1.4257283e-18
1.4020042e-18
1.3789597e-18
1.3565664e-18
1.3347972e-18
1.3136272e-18
1.2930349e-18
1.2730024e-18
1.2535144e-18
1.2345602e-18
1.2161384e-18
1.1982527e-18
1.1809058e-18
1.1641034e-18
1.1478538e-18
1.1321657e-18
1.1170647e-18
1.102578e-18
1.0887683e-18
1.0757059e-18
1.0634647e-18
1.0521225e-18
1.041761e-18
1.0324718e-18
1.0243622e-18
1.0175577e-18
1.0121613e-18
1.0081987e-18
1.0056267e-18
1.0042926e-18
1.0040224e-18
1.0045959e-18
1.0057877e-18
1.0073754e-18
1.0091723e-18
1.0110297e-18
1.0127947e-18
1.014318e-18
1.0155153e-18
1.0163329e-18
1.0167454e-18
1.0167494e-18
1.0163684e-18
1.0156447e-18
1.0146271e-18
1.0133625e-18
1.0118923e-18
1.0102501e-18
1.0084602e-18
1.0065372e-18
1.0044977e-18
1.0023542e-18
1.0000951e-18
9.9774254e-19
9.9512496e-19
9.9260631e-19
9.887048e-19
9.8586819e-19
9.815121e-19
1.9886607e-07
1.9881077e-07
1.9882198e-07
1.988354e-07
1.9884266e-07
1.9884611e-07
1.9884791e-07
1.9884906e-07
1.9884991e-07
1.9885063e-07
1.9885131e-07
1.9885199e-07
1.9885275e-07
1.9885365e-07
1.9885478e-07
1.9885625e-07
1.9885831e-07
1.9886118e-07
1.988661e-07
1.9887128e-07
1.9889945e-07
1.9881761e-07
1.9951808e-07
8.6207233e-09
2.6259294e-16
3.9863148e-17
2.0736855e-17
1.4281595e-17
1.1164869e-17
9.2553781e-18
7.962301e-18
7.0139064e-18
6.2856517e-18
5.7084721e-18
5.2385157e-18
4.8474683e-18
4.5165225e-18
4.2325402e-18
3.9859661e-18
3.7696619e-18
3.5782193e-18
3.4074623e-18
3.254099e-18
3.1155076e-18
2.9895794e-18
2.874581e-18
2.7690871e-18
2.6719112e-18
2.5820576e-18
2.4986862e-18
2.4210794e-18
2.3486208e-18
2.2807805e-18
2.2170994e-18
2.1571777e-18
2.1006668e-18
2.0472586e-18
1.9966806e-18
1.9486916e-18
1.9030776e-18
1.8596468e-18
1.8182282e-18
1.7786697e-18
1.7408333e-18
1.7045927e-18
1.6698341e-18
1.636455e-18
1.6043624e-18
1.5734708e-18
1.5437028e-18
1.5149888e-18
1.4872646e-18
1.4604708e-18
1.4345536e-18
1.4094635e-18
1.3851547e-18
1.3615856e-18
1.3387169e-18
1.3165131e-18
1.2949446e-18
1.2739847e-18
1.2536077e-18
1.2337896e-18
1.2145111e-18
1.195758e-18
1.1775149e-18
1.1597712e-18
1.1425255e-18
1.1257807e-18
1.1095397e-18
1.0938073e-18
1.078591e-18
1.063898e-18
1.049748e-18
1.036162e-18
1.0232211e-18
1.0109846e-18
9.9951725e-19
9.8889134e-19
9.7918326e-19
9.7047853e-19
9.6287628e-19
9.5648684e-19
9.5137508e-19
9.4754121e-19
9.451261e-19
9.4389434e-19
9.4367176e-19
9.4424905e-19
9.4541357e-19
9.469551e-19
9.4869641e-19
9.504962e-19
9.5220826e-19
9.5368948e-19
9.5485975e-19
9.5566882e-19
9.5609292e-19
9.5612942e-19
9.5580076e-19
9.55147e-19
9.5421452e-19
9.5304757e-19
9.5168548e-19
9.5016004e-19
9.4849424e-19
9.4670199e-19
9.447992e-19
9.4279761e-19
9.4068671e-19
9.384872e-19
9.3603918e-19
9.3368184e-19
9.3003183e-19
9.2737567e-19
9.2329509e-19
1.988614e-07
1.9880558e-07
1.9881682e-07
1.9883034e-07
1.9883765e-07
1.9884113e-07
1.9884294e-07
1.9884409e-07
1.9884495e-07
1.9884568e-07
1.9884636e-07
1.9884705e-07
1.9884782e-07
1.9884873e-07
1.9884986e-07
1.9885135e-07
1.9885343e-07
1.9885632e-07
1.9886128e-07
1.988665e-07
1.9889493e-07
1.9881228e-07
1.9951937e-07
8.8220303e-09
2.8853236e-16
3.8020391e-17
1.9783442e-17
1.3628048e-17
1.0656468e-17
8.8357633e-18
7.602748e-18
6.698354e-18
6.003841e-18
5.4533685e-18
5.0051262e-18
4.6321337e-18
4.3164606e-18
4.0455752e-18
3.8103652e-18
3.6040236e-18
3.4213926e-18
3.2584895e-18
3.1121758e-18
2.9799515e-18
2.8598056e-18
2.7500859e-18
2.649432e-18
2.5567131e-18
2.4709793e-18
2.3914297e-18
2.3173791e-18
2.2482396e-18
2.183506e-18
2.1227403e-18
2.0655616e-18
2.0116372e-18
1.9606737e-18
1.9124105e-18
1.8666172e-18
1.8230898e-18
1.781645e-18
1.7421196e-18
1.7043678e-18
1.6682576e-18
1.6336687e-18
1.6004953e-18
1.5686439e-18
1.5380267e-18
1.5085605e-18
1.4801701e-18
1.4527885e-18
1.4263547e-18
1.4008124e-18
1.3761102e-18
1.3522015e-18
1.3290434e-18
1.3065966e-18
1.2848235e-18
1.2636897e-18
1.2431667e-18
1.2232274e-18
1.2038407e-18
1.1849726e-18
1.1666219e-18
1.1488294e-18
1.1315647e-18
1.1148065e-18
1.0985537e-18
1.0828112e-18
1.0675856e-18
1.0528854e-18
1.0387169e-18
1.0250739e-18
1.0119104e-18
9.9914771e-19
9.8735323e-19
9.7648425e-19
9.6652899e-19
9.575662e-19
9.496922e-19
9.430104e-19
9.3761294e-19
9.3349038e-19
9.3008741e-19
9.2679775e-19
9.2741768e-19
9.2975828e-19
9.3330884e-19
9.3771487e-19
9.4264988e-19
9.4781259e-19
9.5296101e-19
9.5791714e-19
9.6245063e-19
9.6634427e-19
9.6954021e-19
9.7204652e-19
9.7388985e-19
9.7510942e-19
9.7576111e-19
9.7591251e-19
9.7563345e-19
9.749888e-19
9.7403601e-19
9.7282233e-19
9.713845e-19
9.6974739e-19
9.6793805e-19
9.6597745e-19
9.6386374e-19
9.6162037e-19
9.5910381e-19
9.5662636e-19
9.5287809e-19
9.500592e-19
9.4570911e-19
1.9885338e-07
1.9879665e-07
1.9880796e-07
1.9882163e-07
1.9882904e-07
1.9883255e-07
1.9883439e-07
1.9883555e-07
1.9883642e-07
1.9883716e-07
1.9883785e-07
1.9883855e-07
1.9883933e-07
1.9884025e-07
1.988414e-07
1.9884291e-07
1.9884502e-07
1.9884796e-07
1.98853e-07
1.9885827e-07
1.9888716e-07
1.9880312e-07
1.9952116e-07
9.0301858e-09
4.2782785e-16
3.6755992e-17
1.9124384e-17
1.3176468e-17
1.0306302e-17
8.5478641e-18
7.3569395e-18
6.4833312e-18
5.8123965e-18
5.2805613e-18
4.8474027e-18
4.4869701e-18
4.1819636e-18
3.920242e-18
3.6929919e-18
3.493638e-18
3.3171907e-18
3.1598004e-18
3.0184381e-18
2.8906916e-18
2.7746193e-18
2.6686261e-18
2.5713969e-18
2.4818398e-18
2.3990371e-18
2.3222161e-18
2.2507112e-18
2.1839525e-18
2.1214529e-18
2.0627911e-18
2.0076e-18
1.9555589e-18
1.9063845e-18
1.8598237e-18
1.8156488e-18
1.7736646e-18
1.7336932e-18
1.6955741e-18
1.6591625e-18
1.6243284e-18
1.5909571e-18
1.5589667e-18
1.5282977e-18
1.4988733e-18
1.4705978e-18
1.443389e-18
1.4171802e-18
1.3919133e-18
1.3675357e-18
1.3440007e-18
1.3212667e-18
1.2992967e-18
1.2780578e-18
1.2575133e-18
1.2376245e-18
1.2183661e-18
1.1996983e-18
1.1815443e-18
1.1637915e-18
1.1465691e-18
1.1303233e-18
1.1148876e-18
1.1001635e-18
1.0861599e-18
1.0729004e-18
1.0604228e-18
1.0487691e-18
1.0379414e-18
1.0278422e-18
1.0179602e-18
1.007494e-18
1.0006748e-18
9.9661707e-19
9.9478056e-19
9.9535714e-19
9.9862821e-19
1.0048622e-18
1.0141273e-18
1.0255229e-18
1.0337376e-18
1.0334536e-18
1.0567779e-18
1.0857348e-18
1.1175352e-18
1.1508025e-18
1.1843323e-18
1.2171057e-18
1.2483652e-18
1.2776303e-18
1.3039988e-18
1.326639e-18
1.3456157e-18
1.3613446e-18
1.3742105e-18
1.384555e-18
1.392682e-18
1.3988703e-18
1.4033743e-18
1.4064238e-18
1.4082239e-18
1.4089485e-18
1.4087467e-18
1.4077324e-18
1.406024e-18
1.4037186e-18
1.4008795e-18
1.3975592e-18
1.3936929e-18
1.3894884e-18
1.383787e-18
1.3788164e-18
1.3710162e-18
1.9884176e-07
1.9878372e-07
1.9879511e-07
1.9880902e-07
1.9881656e-07
1.9882013e-07
1.98822e-07
1.9882318e-07
1.9882407e-07
1.9882482e-07
1.9882552e-07
1.9882624e-07
1.9882703e-07
1.9882797e-07
1.9882915e-07
1.9883069e-07
1.9883285e-07
1.9883585e-07
1.9884099e-07
1.9884635e-07
1.988759e-07
1.9878985e-07
1.9952356e-07
9.2424254e-09
8.635866e-16
3.6075031e-17
1.874056e-17
1.2909906e-17
1.0100905e-17
8.3812338e-18
7.2164671e-18
6.3618477e-18
5.705392e-18
5.1849432e-18
4.7607551e-18
4.407879e-18
4.1094803e-18
3.8535196e-18
3.6313232e-18
3.4364542e-18
3.2639987e-18
3.1101801e-18
2.9720464e-18
2.847249e-18
2.7338938e-18
2.6304226e-18
2.5355478e-18
2.4482018e-18
2.3674864e-18
2.2926511e-18
2.2230284e-18
2.1580523e-18
2.0972518e-18
2.0402215e-18
1.9866066e-18
1.9360961e-18
1.8884156e-18
1.8433089e-18
1.8005324e-18
1.7599047e-18
1.7212475e-18
1.6843918e-18
1.6491786e-18
1.6154705e-18
1.583165e-18
1.552275e-18
1.5228791e-18
1.4949261e-18
1.4682494e-18
1.4427298e-18
1.4182966e-18
1.3948979e-18
1.3724917e-18
1.351045e-18
1.3305332e-18
1.3109396e-18
1.292255e-18
1.2744399e-18
1.2574328e-18
1.2412201e-18
1.2256996e-18
1.2105817e-18
1.1953997e-18
1.1809307e-18
1.1694402e-18
1.1599995e-18
1.1521981e-18
1.1461173e-18
1.1418655e-18
1.1396239e-18
1.1395741e-18
1.1417028e-18
1.1454168e-18
1.1478567e-18
1.1448025e-18
1.1587165e-18
1.1832666e-18
1.2157593e-18
1.2571147e-18
1.3086591e-18
1.3718849e-18
1.4481415e-18
1.5373135e-18
1.6326638e-18
1.7234126e-18
1.8520256e-18
1.9985076e-18
2.1545765e-18
2.3146055e-18
2.4735456e-18
2.6272324e-18
2.7726665e-18
2.9080703e-18
3.0296429e-18
3.1339069e-18
3.2214869e-18
3.2945883e-18
3.3551642e-18
3.4048755e-18
3.4451124e-18
3.4770799e-18
3.501846e-18
3.5203678e-18
3.5335023e-18
3.5419829e-18
3.5464544e-18
3.5474232e-18
3.5454074e-18
3.5408369e-18
3.5340561e-18
3.5252496e-18
3.5146541e-18
3.50211e-18
3.4867577e-18
3.4715518e-18
3.4474025e-18
1.9882622e-07
1.9876642e-07
1.9877794e-07
1.9879216e-07
1.9879986e-07
1.9880352e-07
1.9880543e-07
1.9880664e-07
1.9880755e-07
1.9880831e-07
1.9880903e-07
1.9880977e-07
1.9881059e-07
1.9881155e-07
1.9881276e-07
1.9881435e-07
1.9881656e-07
1.9881965e-07
1.9882493e-07
1.9883041e-07
1.9886083e-07
1.9877209e-07
1.9952672e-07
9.4589037e-09
1.9094322e-15
3.6415606e-17
1.8802468e-17
1.2935676e-17
1.012352e-17
8.4067127e-18
7.2437595e-18
6.3899602e-18
5.7339287e-18
5.2136315e-18
4.7886914e-18
4.4354915e-18
4.1375564e-18
3.8823261e-18
3.6609615e-18
3.467016e-18
3.2954724e-18
3.1425211e-18
3.0052497e-18
2.8813489e-18
2.7689437e-18
2.6664838e-18
2.5726815e-18
2.4864712e-18
2.4069552e-18
2.3334012e-18
2.265089e-18
2.2014267e-18
2.1419607e-18
2.0863091e-18
2.0341319e-18
1.9851278e-18
1.939031e-18
1.8955505e-18
1.8543767e-18
1.8153664e-18
1.7783229e-18
1.7430354e-18
1.7092863e-18
1.6769064e-18
1.645841e-18
1.6164423e-18
1.5892483e-18
1.5642348e-18
1.540961e-18
1.5191947e-18
1.4988591e-18
1.4799238e-18
1.4623802e-18
1.4462381e-18
1.4315262e-18
1.4182924e-18
1.4066032e-18
1.3963834e-18
1.387489e-18
1.379928e-18
1.373328e-18
1.3665648e-18
1.3578451e-18
1.3507402e-18
1.3540899e-18
1.3633618e-18
1.3772535e-18
1.3961739e-18
1.4207761e-18
1.4518679e-18
1.4903544e-18
1.5370175e-18
1.5920883e-18
1.6531536e-18
1.7149219e-18
1.8051406e-18
1.9239168e-18
2.0693976e-18
2.245268e-18
2.456421e-18
2.7084761e-18
3.0071333e-18
3.3551924e-18
3.7427351e-18
4.1459823e-18
4.6323535e-18
5.1733029e-18
5.7447936e-18
6.3273828e-18
6.9033204e-18
7.4581104e-18
7.981489e-18
8.4675648e-18
8.9031583e-18
9.2762484e-18
9.5894598e-18
9.8510006e-18
1.0068053e-17
1.0246653e-17
1.0391782e-17
1.0507706e-17
1.0598184e-17
1.066658e-17
1.071591e-17
1.0748763e-17
1.0767427e-17
1.0773716e-17
1.0769463e-17
1.0756197e-17
1.073519e-17
1.0707068e-17
1.0673045e-17
1.0631783e-17
1.0583224e-17
1.05331e-17
1.0453244e-17
1.9880638e-07
1.9874429e-07
1.9875597e-07
1.9877059e-07
1.9877852e-07
1.9878228e-07
1.9878425e-07
1.9878549e-07
1.9878642e-07
1.9878721e-07
1.9878795e-07
1.9878871e-07
1.9878956e-07
1.9879056e-07
1.9879181e-07
1.9879345e-07
1.9879574e-07
1.9879893e-07
1.988044e-07
1.9881002e-07
1.9884156e-07
1.9874935e-07
1.9953086e-07
9.680791e-09
4.1105843e-15
3.8985002e-17
1.9807131e-17
1.3573075e-17
1.0622329e-17
8.8342696e-18
7.6228723e-18
6.7322554e-18
6.0475021e-18
5.5040483e-18
5.0579805e-18
4.6879083e-18
4.3778133e-18
4.1131145e-18
3.8841015e-18
3.684003e-18
3.5072932e-18
3.3498985e-18
3.2088798e-18
3.0819288e-18
2.9671372e-18
2.862903e-18
2.767883e-18
2.6809669e-18
2.6012176e-18
2.5279193e-18
2.4601775e-18
2.3973026e-18
2.3388678e-18
2.2845368e-18
2.2339942e-18
2.1869506e-18
2.1431514e-18
2.1021541e-18
2.0634598e-18
2.0270419e-18
1.9926209e-18
1.9598391e-18
1.9282857e-18
1.8976944e-18
1.8682288e-18
1.8413898e-18
1.8191019e-18
1.8011804e-18
1.7862461e-18
1.7737906e-18
1.7637528e-18
1.7561754e-18
1.7511499e-18
1.7488123e-18
1.7493488e-18
1.7529992e-18
1.7600587e-18
1.7707284e-18
1.7851022e-18
1.803498e-18
1.8258979e-18
1.8512044e-18
1.8772889e-18
1.9076941e-18
1.9543534e-18
2.0148686e-18
2.0881622e-18
2.1757479e-18
2.2798459e-18
2.403082e-18
2.5484227e-18
2.7189384e-18
2.9173189e-18
3.1428865e-18
3.3895219e-18
3.6989403e-18
4.0848782e-18
4.5502315e-18
5.1070002e-18
5.7703441e-18
6.5576809e-18
7.4872361e-18
8.5708427e-18
9.793754e-18
1.1103971e-17
1.2613688e-17
1.4276204e-17
1.6024751e-17
1.7800876e-17
1.9551178e-17
2.12325e-17
2.2814763e-17
2.4281156e-17
2.5592932e-17
2.6714836e-17
2.7655581e-17
2.8440462e-17
2.9091439e-17
2.962684e-17
3.0061691e-17
3.0408812e-17
3.0679492e-17
3.0883826e-17
3.1030874e-17
3.1128427e-17
3.1183389e-17
3.1201246e-17
3.11875e-17
3.1146737e-17
3.1082835e-17
3.099765e-17
3.0895129e-17
3.0770645e-17
3.0626243e-17
3.047585e-17
3.0236176e-17
1.9878174e-07
1.9871679e-07
1.9872866e-07
1.9874378e-07
1.9875199e-07
1.9875588e-07
1.9875792e-07
1.987592e-07
1.9876017e-07
1.9876099e-07
1.9876176e-07
1.9876255e-07
1.9876342e-07
1.9876446e-07
1.9876577e-07
1.9876748e-07
1.9876987e-07
1.9877319e-07
1.9877889e-07
1.9878468e-07
1.9881762e-07
1.9872105e-07
1.995363e-07
9.9097588e-09
8.389574e-15
4.6462669e-17
2.2868402e-17
1.5542044e-17
1.2157329e-17
1.013693e-17
8.7678575e-18
7.7585796e-18
6.9817375e-18
6.364498e-18
5.8526929e-18
5.4291875e-18
5.0796132e-18
4.7836056e-18
4.5288796e-18
4.3076354e-18
4.1129308e-18
3.9399191e-18
3.7855019e-18
3.6473011e-18
3.5232688e-18
3.4116277e-18
3.3108604e-18
3.2197154e-18
3.1371338e-18
3.0624214e-18
2.9942338e-18
2.9316224e-18
2.8742165e-18
2.8217882e-18
2.7740803e-18
2.7308349e-18
2.6918296e-18
2.6566887e-18
2.6248629e-18
2.5963422e-18
2.5708829e-18
2.5481208e-18
2.5275815e-18
2.5090081e-18
2.4921598e-18
2.4785787e-18
2.4709149e-18
2.4698094e-18
2.4740972e-18
2.4832433e-18
2.4972998e-18
2.516512e-18
2.5412297e-18
2.5719096e-18
2.6091345e-18
2.6536278e-18
2.7062619e-18
2.7678997e-18
2.8392984e-18
2.921584e-18
3.0156655e-18
3.1206305e-18
3.2338893e-18
3.3598843e-18
3.5168742e-18
3.7065371e-18
3.9293501e-18
4.1898781e-18
4.4944086e-18
4.8502737e-18
5.2657587e-18
5.7499137e-18
6.3121078e-18
6.9575044e-18
7.6816482e-18
8.5556896e-18
9.625472e-18
1.0909045e-17
1.2440144e-17
1.426038e-17
1.6417466e-17
1.896191e-17
2.192991e-17
2.5302148e-17
2.8969781e-17
3.3107408e-17
3.7635857e-17
4.2382531e-17
4.7188725e-17
5.191085e-17
5.6434406e-17
6.0680987e-17
6.4608028e-17
6.8114425e-17
7.1108416e-17
7.3615379e-17
7.5704337e-17
7.7434802e-17
7.8856109e-17
8.0008516e-17
8.0926317e-17
8.1639718e-17
8.2175722e-17
8.2558583e-17
8.2809201e-17
8.2946097e-17
8.2984047e-17
8.2937718e-17
8.2819354e-17
8.263938e-17
8.240275e-17
8.2120298e-17
8.1779069e-17
8.1386259e-17
8.097718e-17
8.0325578e-17
1.9875174e-07
1.9868326e-07
1.9869537e-07
1.9871111e-07
1.9871966e-07
1.9872371e-07
1.9872583e-07
1.9872716e-07
1.9872817e-07
1.9872902e-07
1.9872983e-07
1.9873065e-07
1.9873157e-07
1.9873266e-07
1.9873403e-07
1.9873583e-07
1.9873834e-07
1.9874181e-07
1.9874779e-07
1.9875378e-07
1.9878844e-07
1.986865e-07
1.995434e-07
1.0147837e-08
1.6283094e-14
6.5433144e-17
3.0717893e-17
2.0560229e-17
1.6061392e-17
1.3450211e-17
1.168037e-17
1.0368989e-17
9.3575536e-18
8.5523037e-18
7.8833327e-18
7.3330307e-18
6.8810087e-18
6.5006357e-18
6.1757097e-18
5.8961235e-18
5.6514588e-18
5.4348981e-18
5.2428258e-18
5.0725822e-18
4.9217036e-18
4.78793e-18
4.6692811e-18
4.5641281e-18
4.4710872e-18
4.3894778e-18
4.3168914e-18
4.2517566e-18
4.1938064e-18
4.1430422e-18
4.0993252e-18
4.0624555e-18
4.0322745e-18
4.0084949e-18
3.9905301e-18
3.9784254e-18
3.9720034e-18
3.9708975e-18
3.9745206e-18
3.982708e-18
3.9943886e-18
4.0112507e-18
4.0373612e-18
4.0748148e-18
4.1229576e-18
4.1814192e-18
4.2506044e-18
4.3312648e-18
4.4243727e-18
4.5311469e-18
4.6531103e-18
4.7921296e-18
4.9504402e-18
5.1304628e-18
5.3346036e-18
5.5659628e-18
5.8277712e-18
6.1198924e-18
6.4393973e-18
6.7933473e-18
7.2122911e-18
7.7069569e-18
8.2826487e-18
8.9514486e-18
9.7294298e-18
1.063524e-17
1.1689955e-17
1.2917169e-17
1.434299e-17
1.5989289e-17
1.786225e-17
2.0090034e-17
2.2792273e-17
2.6028793e-17
2.988567e-17
3.4467751e-17
3.9895067e-17
4.629524e-17
5.3764108e-17
6.2283723e-17
7.1636724e-17
8.2056125e-17
9.339966e-17
1.0525261e-16
1.1721601e-16
1.2893369e-16
1.4012625e-16
1.5060616e-16
1.6027503e-16
1.6889083e-16
1.7623452e-16
1.8237379e-16
1.8748183e-16
1.9170687e-16
1.9517098e-16
1.9797335e-16
2.001984e-16
2.0192055e-16
2.0320631e-16
2.0411545e-16
2.0469958e-16
2.0500443e-16
2.0506662e-16
2.0492211e-16
2.0460095e-16
2.0412889e-16
2.0351812e-16
2.0279562e-16
2.019288e-16
2.0093666e-16
1.999063e-16
1.9826632e-16
1.9871574e-07
1.9864294e-07
1.9865535e-07
1.9867183e-07
1.986808e-07
1.9868504e-07
1.9868726e-07
1.9868866e-07
1.9868971e-07
1.9869061e-07
1.9869145e-07
1.9869233e-07
1.986933e-07
1.9869445e-07
1.986959e-07
1.986978e-07
1.9870044e-07
1.9870411e-07
1.9871041e-07
1.9871666e-07
1.9875337e-07
1.986449e-07
1.9955267e-07
1.0397409e-08
3.0323559e-14
1.0834151e-16
4.8620639e-17
3.2031915e-17
2.4983577e-17
2.1012486e-17
1.8320334e-17
1.6314655e-17
1.4764524e-17
1.3528119e-17
1.2500949e-17
1.1660312e-17
1.0972487e-17
1.0397371e-17
9.9100368e-18
9.4951087e-18
9.1343635e-18
8.8165095e-18
8.5366786e-18
8.2915026e-18
8.0775319e-18
7.8913897e-18
7.7300341e-18
7.5909709e-18
7.4720722e-18
7.3726597e-18
7.2879755e-18
7.2150602e-18
7.1538544e-18
7.1048484e-18
7.0681534e-18
7.0436911e-18
7.0314377e-18
7.0312745e-18
7.0426181e-18
7.0656627e-18
7.1003863e-18
7.1464622e-18
7.203131e-18
7.270536e-18
7.3458433e-18
7.4309555e-18
7.5326405e-18
7.6558044e-18
7.8010552e-18
7.9686492e-18
8.1598823e-18
8.376681e-18
8.6214369e-18
8.8970965e-18
9.2073065e-18
9.5565124e-18
9.9500243e-18
1.0393795e-17
1.0894086e-17
1.1458563e-17
1.2095964e-17
1.2808573e-17
1.3594053e-17
1.4465586e-17
1.5476633e-17
1.6658266e-17
1.8028593e-17
1.9617086e-17
2.1462141e-17
2.3608262e-17
2.6105785e-17
2.9011885e-17
3.2392153e-17
3.6311228e-17
4.0811073e-17
4.6128148e-17
5.2542208e-17
6.0219181e-17
6.9365211e-17
8.0228759e-17
9.3093847e-17
1.0826268e-16
1.2596749e-16
1.4621072e-16
1.6857397e-16
1.9327939e-16
2.2003577e-16
2.4790346e-16
2.7593815e-16
3.0330758e-16
3.2937073e-16
3.537072e-16
3.7610494e-16
3.9602049e-16
4.1296317e-16
4.2710256e-16
4.3884759e-16
4.485457e-16
4.56481e-16
4.6288344e-16
4.6794868e-16
4.718494e-16
4.7473985e-16
4.7675872e-16
4.7802596e-16
4.786479e-16
4.7870996e-16
4.7829507e-16
4.7747266e-16
4.7630254e-16
4.7481293e-16
4.7306683e-16
4.7098764e-16
4.6862e-16
4.6617028e-16
4.6227452e-16
1.9867301e-07
1.9859499e-07
1.9860774e-07
1.9862511e-07
1.9863459e-07
1.9863907e-07
1.986414e-07
1.9864288e-07
1.9864399e-07
1.9864494e-07
1.9864583e-07
1.9864676e-07
1.9864779e-07
1.9864901e-07
1.9865056e-07
1.9865258e-07
1.9865539e-07
1.9865928e-07
1.9866598e-07
1.9867251e-07
1.9871169e-07
1.9859533e-07
1.9956477e-07
1.0661265e-08
5.4650834e-14
2.0012255e-16
8.7039261e-17
5.6665337e-17
4.4140262e-17
3.7242974e-17
3.2566388e-17
2.9067477e-17
2.6359213e-17
2.4196609e-17
2.2402748e-17
2.09393e-17
1.974396e-17
1.8749091e-17
1.7911414e-17
1.7204298e-17
1.6592852e-17
1.6056183e-17
1.5586676e-17
1.5179395e-17
1.4828748e-17
1.4528952e-17
1.4274683e-17
1.4061593e-17
1.3885957e-17
1.3747083e-17
1.3635236e-17
1.3544495e-17
1.3475226e-17
1.3428946e-17
1.3406298e-17
1.3407463e-17
1.3432708e-17
1.3482285e-17
1.3555749e-17
1.3653646e-17
1.3776325e-17
1.3923643e-17
1.4094616e-17
1.4290219e-17
1.4503909e-17
1.4737739e-17
1.5003506e-17
1.5311664e-17
1.5665856e-17
1.6068085e-17
1.6521713e-17
1.7031262e-17
1.7602235e-17
1.8241355e-17
1.8956902e-17
1.9758944e-17
2.0659494e-17
2.1672249e-17
2.2812105e-17
2.4096882e-17
2.5547784e-17
2.7173551e-17
2.8975462e-17
3.0980386e-17
3.3283641e-17
3.5960211e-17
3.9059676e-17
4.2650329e-17
4.6819658e-17
5.1669131e-17
5.7313666e-17
6.3885089e-17
7.1538117e-17
8.0439082e-17
9.0728096e-17
1.0284984e-16
1.1741498e-16
1.3484211e-16
1.5560445e-16
1.8026516e-16
2.0946666e-16
2.4389133e-16
2.8406846e-16
3.3006664e-16
3.8109803e-16
4.3714608e-16
4.9752598e-16
5.6019418e-16
6.2302001e-16
6.8414558e-16
7.4216749e-16
7.9618887e-16
8.4577816e-16
8.8977225e-16
9.2712383e-16
9.5823767e-16
9.840368e-16
1.0052997e-15
1.0226581e-15
1.0366217e-15
1.0476241e-15
1.0560486e-15
1.0622373e-15
1.066498e-15
1.0690972e-15
1.0702714e-15
1.0702111e-15
1.0690991e-15
1.0670887e-15
1.0643127e-15
1.0608336e-15
1.0567917e-15
1.0520154e-15
1.0466029e-15
1.0410254e-15
1.0321637e-15
1.9862275e-07
1.9853843e-07
1.9855158e-07
1.9857003e-07
1.985801e-07
1.9858486e-07
1.9858734e-07
1.9858891e-07
1.9859009e-07
1.985911e-07
1.9859205e-07
1.9859304e-07
1.9859414e-07
1.9859546e-07
1.9859711e-07
1.9859927e-07
1.9860228e-07
1.9860644e-07
1.986136e-07
1.9862046e-07
1.9866256e-07
1.9853674e-07
1.9958051e-07
1.0942703e-08
9.5990287e-14
3.9004114e-16
1.6666021e-16
1.0772239e-16
8.384479e-17
7.0880197e-17
6.2089078e-17
5.5494354e-17
5.0385562e-17
4.6304257e-17
4.2926169e-17
4.0174086e-17
3.7926093e-17
3.6059824e-17
3.4494621e-17
3.3180662e-17
3.2048556e-17
3.1057469e-17
3.0194051e-17
2.9450086e-17
2.881553e-17
2.8279603e-17
2.7832263e-17
2.7465326e-17
2.7171764e-17
2.6950852e-17
2.6782596e-17
2.6654945e-17
2.6569121e-17
2.6528773e-17
2.6535652e-17
2.6590495e-17
2.6694194e-17
2.6847819e-17
2.7051442e-17
2.7306396e-17
2.7613884e-17
2.7974318e-17
2.838651e-17
2.8853458e-17
2.9360988e-17
2.9910915e-17
3.052427e-17
3.122235e-17
3.2015721e-17
3.2910752e-17
3.391542e-17
3.5039806e-17
3.629604e-17
3.7698882e-17
3.9266468e-17
4.1020815e-17
4.2988179e-17
4.519879e-17
4.7686283e-17
5.0490412e-17
5.365965e-17
5.7218374e-17
6.117944e-17
6.5599973e-17
7.0651628e-17
7.6500131e-17
8.3268157e-17
9.1108728e-17
1.0021458e-16
1.1080942e-16
1.2314702e-16
1.3752056e-16
1.542796e-16
1.7382048e-16
1.9652563e-16
2.232492e-16
2.5526359e-16
2.9355817e-16
3.391873e-16
3.9338635e-16
4.5756018e-16
5.331954e-16
6.2144541e-16
7.2254123e-16
8.3500914e-16
9.5801203e-16
1.0898218e-15
1.2261055e-15
1.3622344e-15
1.4942077e-15
1.6190631e-15
1.7349612e-15
1.8410651e-15
1.9349766e-15
2.0145411e-15
2.0806894e-15
2.1354349e-15
2.180463e-15
2.2171311e-15
2.2465304e-15
2.2695908e-15
2.287135e-15
2.2998967e-15
2.3085363e-15
2.3136268e-15
2.3156761e-15
2.3150946e-15
2.3122725e-15
2.3075366e-15
2.3011722e-15
2.2933128e-15
2.2842605e-15
2.2736434e-15
2.2616693e-15
2.2493809e-15
2.2298754e-15
1.9856404e-07
1.9847218e-07
1.984858e-07
1.9850553e-07
1.9851631e-07
1.9852141e-07
1.9852406e-07
1.9852573e-07
1.9852699e-07
1.9852807e-07
1.985291e-07
1.9853016e-07
1.9853135e-07
1.9853276e-07
1.9853454e-07
1.9853688e-07
1.9854012e-07
1.9854458e-07
1.9855229e-07
1.9855952e-07
1.9860505e-07
1.9846794e-07
1.9960092e-07
1.1245667e-08
1.6521421e-13
7.7447491e-16
3.2798155e-16
2.1116349e-16
1.6428728e-16
1.3903371e-16
1.2190876e-16
1.0904338e-16
9.9073046e-17
9.1107713e-17
8.4529104e-17
7.9171107e-17
7.4790303e-17
7.1157397e-17
6.8117098e-17
6.5572884e-17
6.3385444e-17
6.1473448e-17
5.9811882e-17
5.8385886e-17
5.7176393e-17
5.6162507e-17
5.5324647e-17
5.464688e-17
5.4115509e-17
5.3729751e-17
5.3448888e-17
5.3248425e-17
5.3131304e-17
5.3105518e-17
5.3175105e-17
5.3341981e-17
5.3608355e-17
5.3977062e-17
5.4449609e-17
5.5029071e-17
5.571853e-17
5.6519833e-17
5.7431816e-17
5.846213e-17
5.9581197e-17
6.0789546e-17
6.212509e-17
6.3629979e-17
6.5329783e-17
6.7241106e-17
6.9382001e-17
7.1774236e-17
7.4443777e-17
7.7422156e-17
8.0748069e-17
8.4468437e-17
8.8639224e-17
9.3325242e-17
9.8599814e-17
1.0454908e-16
1.1127961e-16
1.1885147e-16
1.2730799e-16
1.3677254e-16
1.4755751e-16
1.6001007e-16
1.7441505e-16
1.911072e-16
2.1050091e-16
2.3307716e-16
2.5938239e-16
2.9005152e-16
3.2584993e-16
3.6767636e-16
4.1647404e-16
4.7391897e-16
5.4258237e-16
6.246903e-16
7.2253841e-16
8.3877203e-16
9.7638552e-16
1.1385299e-15
1.3276344e-15
1.5442777e-15
1.7856835e-15
2.0488515e-15
2.3294054e-15
2.6182856e-15
2.9057311e-15
3.1833721e-15
3.4451381e-15
3.6873751e-15
3.9085307e-15
4.1038015e-15
4.2688821e-15
4.4058486e-15
4.5189793e-15
4.6118267e-15
4.6872311e-15
4.7474693e-15
4.7944843e-15
4.8299982e-15
4.8555453e-15
4.8725062e-15
4.8820811e-15
4.8853331e-15
4.8831248e-15
4.876266e-15
4.8654372e-15
4.8512341e-15
4.8339355e-15
4.8141747e-15
4.7911666e-15
4.7653367e-15
4.7389382e-15
4.6970757e-15
1.9849592e-07
1.9839503e-07
1.9840919e-07
1.9843043e-07
1.9844206e-07
1.9844755e-07
1.984504e-07
1.9845221e-07
1.9845356e-07
1.9845473e-07
1.9845584e-07
1.9845699e-07
1.9845827e-07
1.9845981e-07
1.9846174e-07
1.9846427e-07
1.9846778e-07
1.984726e-07
1.9848093e-07
1.9848859e-07
1.9853815e-07
1.9838759e-07
1.9962729e-07
1.1574919e-08
2.798334e-13
1.5405883e-15
6.4971025e-16
4.1743859e-16
3.2470721e-16
2.7496043e-16
2.4122486e-16
2.1586011e-16
1.9620056e-16
1.8049705e-16
1.6755284e-16
1.5700745e-16
1.4837439e-16
1.4121772e-16
1.3523518e-16
1.3023764e-16
1.2594625e-16
1.221987e-16
1.1894667e-16
1.1616211e-16
1.1380799e-16
1.1184325e-16
1.1022933e-16
1.0893491e-16
1.0793304e-16
1.0722286e-16
1.067224e-16
1.0638227e-16
1.0620883e-16
1.0621882e-16
1.0642094e-16
1.0681956e-16
1.0741964e-16
1.0822772e-16
1.0924882e-16
1.1048981e-16
1.1195779e-16
1.1365801e-16
1.1559009e-16
1.1777193e-16
1.2014339e-16
1.2270135e-16
1.255147e-16
1.2866517e-16
1.3220955e-16
1.3618726e-16
1.4063801e-16
1.4560783e-16
1.5115118e-16
1.5733407e-16
1.6423745e-16
1.7195943e-16
1.80617e-16
1.9034622e-16
2.0130293e-16
2.1366978e-16
2.2767465e-16
2.4345594e-16
2.6112974e-16
2.8096264e-16
3.0353083e-16
3.2953681e-16
3.5961214e-16
3.9447552e-16
4.3500197e-16
4.8220616e-16
5.3724253e-16
6.0145818e-16
6.7649043e-16
7.6430827e-16
8.6709805e-16
9.8820714e-16
1.1327351e-15
1.3055031e-15
1.5114157e-15
1.7560346e-15
2.0456178e-15
2.3867028e-15
2.7842719e-15
3.2395825e-15
3.7473102e-15
4.2993469e-15
4.8849224e-15
5.4852321e-15
6.0801555e-15
6.6525959e-15
7.1904106e-15
7.6865378e-15
8.1382196e-15
8.5360572e-15
8.8716412e-15
9.1494923e-15
9.3785131e-15
9.5660381e-15
9.7178874e-15
9.8387168e-15
9.932509e-15
1.0002798e-14
1.0052731e-14
1.0085137e-14
1.010248e-14
1.0106942e-14
1.0100298e-14
1.0084197e-14
1.0060027e-14
1.0029009e-14
9.9917107e-15
9.9494346e-15
9.9005556e-15
9.8459257e-15
9.7903188e-15
9.7022239e-15
1.9841729e-07
1.9830563e-07
1.983204e-07
1.9834344e-07
1.9835607e-07
1.9836202e-07
1.9836512e-07
1.9836707e-07
1.9836854e-07
1.983698e-07
1.9837101e-07
1.9837226e-07
1.9837366e-07
1.9837534e-07
1.9837744e-07
1.983802e-07
1.9838402e-07
1.9838925e-07
1.9839831e-07
1.9840645e-07
1.9846069e-07
1.9829419e-07
1.9966123e-07
1.1936264e-08
4.6797489e-13
3.0498118e-15
1.2839631e-15
8.2404882e-16
6.4094657e-16
5.4294752e-16
4.7648745e-16
4.2649553e-16
3.8774791e-16
3.5680473e-16
3.3134269e-16
3.1058826e-16
2.9357571e-16
2.7947288e-16
2.6769073e-16
2.5785865e-16
2.4942243e-16
2.4205964e-16
2.3567604e-16
2.3021767e-16
2.2561216e-16
2.2177879e-16
2.1864168e-16
2.161393e-16
2.1421865e-16
2.1287884e-16
2.1195664e-16
2.1135347e-16
2.1108244e-16
2.1117765e-16
2.1165722e-16
2.1253061e-16
2.1380841e-16
2.1550486e-16
2.1763285e-16
2.2020745e-16
2.2324425e-16
2.2675606e-16
2.3074528e-16
2.3525178e-16
2.4015549e-16
2.4544487e-16
2.5124598e-16
2.5771519e-16
2.6497216e-16
2.7310535e-16
2.8220025e-16
2.9235284e-16
3.0367564e-16
3.1630477e-16
3.3040707e-16
3.461846e-16
3.6387844e-16
3.8376963e-16
4.0618317e-16
4.3149988e-16
4.6019741e-16
4.9258105e-16
5.2893117e-16
5.6981935e-16
6.1632498e-16
6.6983854e-16
7.3171252e-16
8.0346557e-16
8.8692024e-16
9.8418624e-16
1.0976667e-15
1.2301754e-15
1.3851532e-15
1.5668074e-15
1.7799985e-15
2.0314928e-15
2.3313037e-15
2.6895711e-15
3.1166038e-15
3.6239293e-15
4.2244289e-15
4.9314383e-15
5.7549614e-15
6.6974801e-15
7.7485391e-15
8.8886332e-15
1.0092225e-14
1.1320445e-14
1.2532533e-14
1.3694247e-14
1.4781795e-14
1.5781856e-14
1.6689755e-14
1.7487446e-14
1.8158803e-14
1.8713473e-14
1.9169678e-14
1.954231e-14
1.9843101e-14
2.0081423e-14
2.0265318e-14
2.0401933e-14
2.0497621e-14
2.0558093e-14
2.0588329e-14
2.0592736e-14
2.0574911e-14
2.0538162e-14
2.0485273e-14
2.0418708e-14
2.0339606e-14
2.0250603e-14
2.0148387e-14
2.0034634e-14
1.9919301e-14
1.9736764e-14
1.9832701e-07
1.9820247e-07
1.9821795e-07
1.982431e-07
1.9825692e-07
1.9826342e-07
1.9826679e-07
1.9826892e-07
1.9827053e-07
1.9827191e-07
1.9827323e-07
1.982746e-07
1.9827613e-07
1.9827797e-07
1.9828028e-07
1.9828329e-07
1.9828748e-07
1.9829318e-07
1.9830307e-07
1.9831173e-07
1.9837141e-07
1.9818604e-07
1.9970473e-07
1.233683e-08
7.7474092e-13
5.9970333e-15
2.5234684e-15
1.6186217e-15
1.2589662e-15
1.0667335e-15
9.3636177e-16
8.3826806e-16
7.6224179e-16
7.0154421e-16
6.5167432e-16
6.1099854e-16
5.7761712e-16
5.4994195e-16
5.2682863e-16
5.0755362e-16
4.9102414e-16
4.7660394e-16
4.64109e-16
4.5343503e-16
4.4444077e-16
4.3696814e-16
4.3086852e-16
4.2602157e-16
4.2232358e-16
4.1977382e-16
4.1805046e-16
4.1695842e-16
4.1652403e-16