/*--------------------------------*- C++ -*----------------------------------*\
| =========                 |                                                 |
| \\      /  F ield         | OpenFOAM: The Open Source CFD Toolbox           |
|  \\    /   O peration     | Version:  2206                                  |
|   \\  /    A nd           | Website:  www.openfoam.com                      |
|    \\/     M anipulation  |                                                 |
\*---------------------------------------------------------------------------*/
FoamFile
{
    version     2.0;
    format      ascii;
    arch        "LSB;label=32;scalar=64";
    class       volScalarField;
    location    "200";
    object      omega;
}
// * * * * * * * * * * * * * * * * * * * * * * * * * * * * * * * * * * * * * //

dimensions      [0 0 -1 0 0 0 0];

internalField   nonuniform List<scalar> 
13056
(
694.25815
685.59346
684.7183
684.79556
684.83944
684.84758
684.8494
684.85174
684.85532
684.86003
684.86584
684.87275
684.88085
684.89026
684.90119
684.91401
684.92923
684.94811
684.97159
685.01006
685.02941
685.38712
684.80183
13726.284
1.1944345e+09
1.1944345e+09
1.1944345e+09
1.1944345e+09
1.1944345e+09
1.1944345e+09
1.1944345e+09
1.1944345e+09
1.1944345e+09
1.1944345e+09
1.1944345e+09
1.1944345e+09
1.1944345e+09
1.1944345e+09
1.1944345e+09
1.1944345e+09
1.1944345e+09
1.1944345e+09
1.1944345e+09
1.1944345e+09
1.1944345e+09
1.1944345e+09
1.1944345e+09
1.1944345e+09
1.1944345e+09
1.1944345e+09
1.1944345e+09
1.1944345e+09
1.1944345e+09
1.1944345e+09
1.1944345e+09
1.1944345e+09
1.1944345e+09
1.1944345e+09
1.1944345e+09
1.1944345e+09
1.1944345e+09
1.1944345e+09
1.1944345e+09
1.1944345e+09
1.1944345e+09
1.1944345e+09
1.1944345e+09
1.1944345e+09
1.1944345e+09
1.1944345e+09
1.1944345e+09
1.1944345e+09
1.1944345e+09
1.1944345e+09
1.1944345e+09
1.1944345e+09
1.1944345e+09
1.1944345e+09
1.1944345e+09
1.1944345e+09
1.1944345e+09
1.1944345e+09
1.1944345e+09
1.1944345e+09
1.1944345e+09
1.1944345e+09
1.1944345e+09
1.1944345e+09
1.1944345e+09
1.1944345e+09
1.1944345e+09
1.1944345e+09
1.1944345e+09
1.1944345e+09
1.1944345e+09
1.1944345e+09
1.1944345e+09
1.1944345e+09
1.1944345e+09
1.1944345e+09
1.1944345e+09
1.1944345e+09
1.1944345e+09
1.1944345e+09
1.1944345e+09
1.1944345e+09
1.1944345e+09
1.1944345e+09
1.1944345e+09
1.1944345e+09
1.1944345e+09
1.1944345e+09
1.1944345e+09
1.1944345e+09
1.1944345e+09
1.1944345e+09
1.1944345e+09
1.1944345e+09
1.1944345e+09
1.1944345e+09
1.1944345e+09
1.1944345e+09
1.1944345e+09
1.1944345e+09
1.1944345e+09
1.1944345e+09
1.1944345e+09
1.1944345e+09
1.1944345e+09
1.1944345e+09
1.1944345e+09
1.1944345e+09
1.1944345e+09
1.1944345e+09
1.1944345e+09
1.1944345e+09
694.18785
685.506
684.62897
684.70636
684.75031
684.75845
684.76026
684.7626
684.76617
684.77089
684.77669
684.78361
684.79171
684.80113
684.81208
684.82491
684.84014
684.85905
684.88257
684.92112
684.94049
685.29896
684.71113
13440.146
1.9588491e+08
1.9627007e+08
1.9627026e+08
1.9627044e+08
1.9627063e+08
1.9627081e+08
1.9627096e+08
1.9627111e+08
1.9627125e+08
1.9627137e+08
1.9627149e+08
1.9627161e+08
1.9627172e+08
1.9627182e+08
1.9627193e+08
1.9627203e+08
1.9627212e+08
1.9627222e+08
1.9627231e+08
1.962724e+08
1.9627249e+08
1.9627258e+08
1.9627266e+08
1.9627274e+08
1.9627283e+08
1.9627291e+08
1.9627299e+08
1.9627307e+08
1.9627315e+08
1.9627323e+08
1.9627331e+08
1.9627339e+08
1.9627346e+08
1.9627354e+08
1.9627362e+08
1.962737e+08
1.9627378e+08
1.9627387e+08
1.9627395e+08
1.9627404e+08
1.9627413e+08
1.9627422e+08
1.962743e+08
1.9627438e+08
1.9627446e+08
1.9627455e+08
1.9627464e+08
1.9627473e+08
1.9627482e+08
1.9627492e+08
1.9627502e+08
1.9627512e+08
1.9627523e+08
1.9627535e+08
1.9627548e+08
1.9627563e+08
1.9627579e+08
1.9627599e+08
1.9627624e+08
1.9627648e+08
1.9627665e+08
1.9627684e+08
1.9627707e+08
1.9627732e+08
1.9627761e+08
1.9627794e+08
1.9627834e+08
1.9627882e+08
1.9627946e+08
1.9628047e+08
1.9628198e+08
1.9628261e+08
1.9628344e+08
1.9628446e+08
1.962857e+08
1.9628721e+08
1.9628909e+08
1.9629154e+08
1.9629514e+08
1.9630225e+08
1.9631284e+08
1.9631517e+08
1.9631876e+08
1.9632276e+08
1.9632698e+08
1.9633128e+08
1.9633555e+08
1.9633972e+08
1.9634371e+08
1.9634742e+08
1.963507e+08
1.9635354e+08
1.96356e+08
1.9635812e+08
1.9635994e+08
1.9636149e+08
1.9636281e+08
1.9636391e+08
1.9636483e+08
1.9636557e+08
1.9636617e+08
1.9636663e+08
1.9636698e+08
1.9636723e+08
1.963674e+08
1.9636749e+08
1.9636751e+08
1.963675e+08
1.963674e+08
1.9636738e+08
1.9636721e+08
1.9636692e+08
693.96378
685.22952
684.34682
684.42459
684.46875
684.47691
684.4787
684.48103
684.48459
684.48931
684.49512
684.50204
684.51015
684.51959
684.53057
684.54344
684.55873
684.57772
684.60136
684.64015
684.65959
685.02034
684.428
13120.003
64305164
64221844
64221789
64221786
64221835
64221898
64221956
64222007
64222055
64222099
64222156
64222213
64222252
64222286
64222318
64222350
64222382
64222412
64222443
64222473
64222503
64222533
64222563
64222594
64222625
64222656
64222688
64222720
64222753
64222787
64222821
64222857
64222895
64222939
64222997
64223065
64223147
64223249
64223377
64223537
64223716
64223877
64223976
64224027
64224069
64224112
64224158
64224208
64224262
64224320
64224385
64224457
64224537
64224651
64224821
64225067
64225455
64226126
64227286
64228441
64228704
64228846
64229008
64229199
64229484
64229894
64230503
64231552
64233639
64238823
64249354
64251109
64251900
64252948
64254391
64256494
64259861
64266112
64280655
64326071
64414062
64415997
64419769
64424356
64429668
64435659
64442252
64449349
64456842
64464423
64471678
64478408
64484563
64490125
64495095
64499481
64503297
64506565
64509314
64511583
64513410
64514838
64515905
64516656
64517133
64517380
64517407
64517318
64516933
64516795
64516194
64515172
693.57894
684.75524
683.86288
683.94129
683.98582
683.994
683.99576
683.99807
684.00162
684.00633
684.01214
684.01908
684.02721
684.03668
684.04771
684.06065
684.07604
684.09517
684.11901
684.15821
684.17776
684.54238
683.94336
12793.904
30202338
29344417
29343980
29343750
29343753
29343846
29343933
29344006
29344071
29344129
29344271
29344412
29344467
29344498
29344525
29344554
29344583
29344612
29344642
29344673
29344705
29344740
29344776
29344815
29344856
29344901
29344948
29344999
29345052
29345110
29345173
29345242
29345319
29345427
29345602
29345830
29346126
29346521
29347047
29347731
29348523
29349231
29349636
29349782
29349859
29349933
29350015
29350108
29350213
29350333
29350474
29350639
29350835
29351168
29351778
29352740
29354382
29357399
29362835
29368517
29369713
29369990
29370278
29370630
29371346
29372593
29374695
29378804
29387810
29411629
29462689
29472617
29474247
29476534
29480109
29486128
29497336
29521327
29583797
29792223
30225771
30239990
30241338
30242894
30244689
30246712
30248937
30251333
30253862
30256420
30258868
30261140
30263217
30265094
30266771
30268251
30269538
30270641
30271568
30272334
30272950
30273432
30273792
30274045
30274206
30274289
30274298
30274268
30274139
30274092
30273889
30273544
693.02239
684.06939
683.16307
683.24242
683.28747
683.29569
683.2974
683.29967
683.3032
683.30791
683.31372
683.32068
683.32885
683.33837
683.34946
683.3625
683.37803
683.39737
683.42149
683.46128
683.48098
683.85117
683.24297
12466.19
16800347
16063591
16062105
16061264
16061207
16061461
16061700
16061893
16062065
16062215
16062661
16063102
16063249
16063312
16063366
16063423
16063483
16063544
16063609
16063678
16063752
16063832
16063920
16064015
16064120
16064235
16064360
16064495
16064641
16064801
16064979
16065177
16065401
16065728
16066285
16067021
16067994
16069298
16071052
16073350
16076019
16078411
16079772
16080235
16080444
16080639
16080856
16081104
16081391
16081726
16082121
16082594
16083168
16084190
16086151
16089304
16094757
16104880
16123251
16142672
16146769
16147482
16148170
16149029
16151052
16154828
16161430
16174342
16203509
16282550
16454732
16488099
16489173
16490167
16491676
16494204
16498890
16508872
16534696
16620204
16802738
16815705
16816520
16817201
16817961
16818813
16819750
16820758
16821822
16822898
16823928
16824884
16825758
16826548
16827254
16827877
16828419
16828884
16829275
16829597
16829858
16830061
16830214
16830321
16830390
16830426
16830431
16830419
16830365
16830346
16830262
16830118
692.27934
683.15334
682.22833
682.30893
682.35468
682.36295
682.3646
682.36683
682.37033
682.37503
682.38086
682.38783
682.39604
682.40563
682.41681
682.42998
682.4457
682.46531
682.48982
682.53039
682.55028
682.92791
682.30749
12136.552
10345725
9803877.2
9799998.4
9797719.9
9797532.1
9798177.7
9798785.6
9799273.2
9799704.2
9800080.7
9801258.8
9802431.1
9802801.8
9802939.6
9803050.6
9803171
9803298.3
9803430.8
9803571
9803722.3
9803887.5
9804068.6
9804267.7
9804487.3
9804729.8
9805000.4
9805296.4
9805617.2
9805967.9
9806356
9806789.5
9807277.2
9807829.9
9808676.3
9810143.7
9812096.7
9814697.8
9818207.5
9822946.7
9829170.5
9836386.3
9842793.4
9846330.8
9847436.9
9847879.9
9848280.1
9848726.7
9849243.3
9849849
9850566.6
9851426.6
9852471.1
9853759.1
9856272.1
9861304.8
9869567.8
9884114.1
9911501.2
9961513.7
10013404
10022756
10023459
10023837
10024263
10025208
10027011
10030157
10036267
10049956
10086714
10168668
10191135
10192319
10192859
10193591
10194795
10197010
10201688
10213662
10252839
10340013
10352325
10353185
10353569
10353946
10354359
10354810
10355296
10355808
10356327
10356823
10357283
10357704
10358085
10358425
10358725
10358987
10359211
10359400
10359556
10359682
10359781
10359855
10359907
10359941
10359960
10359963
10359958
10359933
10359924
10359885
10359816
691.33127
681.9837
681.03475
681.11695
681.16359
681.17192
681.1735
681.17566
681.17914
681.18382
681.18966
681.19667
681.20493
681.2146
681.2259
681.23924
681.25519
681.27515
681.30014
681.34171
681.36184
681.74894
681.11259
11803.392
6803085.5
6435454.9
6426975.5
6421750.4
6421294.7
6422745.8
6424112.1
6425204.4
6426167.9
6427007.9
6429690.8
6432419.9
6433242.7
6433507
6433702.9
6433915.7
6434142.7
6434380.5
6434634.1
6434910.1
6435213.8
6435549.6
6435922
6436335.8
6436796.8
6437315.7
6437887.9
6438512.8
6439201.7
6439970.4
6440836.3
6441818.9
6442942.1
6444805.1
6448112.3
6452544.7
6458508.2
6466627
6477661.7
6492187.6
6508928.6
6523432
6530864.9
6532667.3
6533053.8
6533296
6533542.6
6533821.7
6534146.7
6534530.7
6534990.2
6535547.4
6536233.4
6537497.6
6540092.6
6544374
6551872.1
6565915
6591674.1
6620274.4
6627668.8
6628490.9
6628760.3
6629000.7
6629479.3
6630409.6
6632030.2
6635151.4
6642071.4
6660441.2
6702478.9
6718445.8
6719871.2
6720256.7
6720655
6721279.9
6722413.7
6724781.5
6730759
6750020.9
6794913.7
6805546.9
6806611
6806904.7
6807122
6807344.2
6807583.2
6807838.9
6808108.5
6808381
6808641.9
6808883.9
6809105.4
6809305.6
6809484.6
6809642.7
6809780.5
6809898.6
6809998.3
6810080.8
6810147.5
6810200
6810239.5
6810267.8
6810286.2
6810296.4
6810298.7
6810296.7
6810284.2
6810280.2
6810259.7
6810224.6
690.15609
680.53242
679.55364
679.63782
679.68558
679.69398
679.69547
679.69755
679.70099
679.70566
679.71151
679.71855
679.72688
679.73665
679.7481
679.76165
679.77788
679.79828
679.82386
679.86667
679.88707
680.28595
679.62903
11464.771
4677539.3
4464898.7
4450912.8
4440655.6
4439734.5
4442571.1
4445234.6
4447352.7
4449212.1
4450826.4
4456215.4
4461882
4463420.2
4463722.3
4463844.6
4463967.1
4464097.5
4464234
4464379.6
4464538
4464712.2
4464904.8
4465118.4
4465355.6
4465619.7
4465917
4466244.5
4466602
4466995.9
4467435.1
4467929.4
4468489.9
4469130.2
4470126.8
4471940.6
4474411
4477737.8
4482262.5
4488413.7
4496548.3
4506071.8
4514680
4519581.6
4521083.7
4521452.1
4521626.7
4521777.5
4521939.6
4522125.2
4522343.3
4522603.4
4522918.2
4523305
4523977.2
4525379.9
4527715.5
4531785.6
4539362.5
4553317.9
4569891.2
4575664.1
4576585.6
4576828.3
4576984.9
4577244.5
4577750.4
4578631
4580310.6
4583990.2
4593628.7
4616248.1
4627627.1
4629208.2
4629556.9
4629803.5
4630150.9
4630764.7
4632027.7
4635165.3
4645098.3
4669313.7
4677830.5
4679060.1
4679345.8
4679495.6
4679627.7
4679763.7
4679907.3
4680058.1
4680210.4
4680356.1
4680491.2
4680614.9
4680726.8
4680826.8
4680915.2
4680992.2
4681058.4
4681114.3
4681160.6
4681198.2
4681227.8
4681250.3
4681266.4
4681277.1
4681283.2
4681284.8
4681284.1
4681277.5
4681275.6
4681264.5
4681245.4
688.72824
678.76689
677.75162
677.83822
677.88734
677.89583
677.8972
677.89919
677.90258
677.90723
677.9131
677.92019
677.9286
677.93849
677.95011
677.96391
677.9805
678.00142
678.02772
678.07203
678.09273
678.50595
677.82266
11118.743
3318892.9
3190259.2
3181744.8
3175486.3
3174901.4
3176601.2
3178198.4
3179466.7
3180579.1
3181547.2
3185020.7
3188413.4
3189326.6
3189504.9
3189577.9
3189651.2
3189729.2
3189810.8
3189897.9
3189992.6
3190096.7
3190211.8
3190339.4
3190481.1
3190638.8
3190816.1
3191011.4
3191224.4
3191458.9
3191720.2
3192014.1
3192347.1
3192727.1
3193284.9
3194310.7
3195737.3
3197663.8
3200282.5
3203843.4
3208573.6
3214198.5
3219497.9
3222824.6
3224062.9
3224419.9
3224565.7
3224668.7
3224769.5
3224881.1
3225010.6
3225164.2
3225349.5
3225576.7
3225949.8
3226732.6
3228052.8
3230343.8
3234581.2
3242410.5
3252310.5
3256710.8
3257661.8
3257907.4
3258026.8
3258178.5
3258464.8
3258961.8
3259899.8
3261927.7
3267161.9
3279722.7
3287729
3289321.9
3289675.2
3289852.1
3290058.7
3290405.7
3291105.5
3292812.3
3298110.5
3311559.3
3318019.1
3319303.5
3319607.7
3319731.3
3319819.2
3319902.2
3319987.3
3320075.7
3320164.6
3320249.5
3320328.3
3320400.4
3320465.6
3320523.9
3320575.5
3320620.5
3320659.1
3320691.8
3320719
3320741.1
3320758.6
3320771.9
3320781.5
3320788
3320791.8
3320793
3320792.8
3320789.3
3320788.3
3320782.1
3320771.3
687.01883
676.65
675.59072
675.68021
675.73097
675.73957
675.74079
675.74267
675.74599
675.75063
675.75651
675.76366
675.77216
675.7822
675.79403
675.80813
675.82514
675.84669
675.87385
675.91996
675.94098
676.37143
675.65444
10763.5
2409267
2328822.5
2323463.2
2319521.6
2319137.4
2320186.3
2321172.8
2321954.7
2322639.9
2323240.8
2325551.6
2327644
2328202.1
2328310.5
2328355.3
2328400.5
2328448.5
2328498.9
2328552.5
2328610.8
2328674.9
2328745.8
2328824.3
2328911.5
2329008.4
2329117.4
2329237.4
2329368.1
2329511.9
2329672
2329852
2330055.7
2330287.9
2330611.8
2331204.8
2332048.8
2333194.3
2334751.5
2336869.5
2339694.9
2343104.9
2346445.1
2348734.3
2349735.7
2350073.1
2350205.7
2350284.3
2350351.8
2350422.2
2350502
2350595.7
2350708.2
2350845.7
2351060
2351507
2352271.9
2353595.6
2356027.7
2360530.5
2366554.4
2369827.1
2370736.6
2370989.5
2371093.3
2371190.4
2371358.4
2371647.2
2372185.6
2373332.9
2376247.7
2383373.3
2388914.5
2390394.7
2390757.1
2390902.7
2391035.3
2391239.3
2391638.5
2392591.9
2395488.8
2403100.2
2407804.7
2409033.3
2409354.1
2409469.7
2409536.1
2409590.8
2409643.9
2409697.8
2409751.5
2409802.7
2409850.1
2409893.5
2409932.7
2409967.7
2409998.8
2410025.9
2410049.2
2410068.9
2410085.3
2410098.7
2410109.4
2410117.5
2410123.5
2410127.5
2410130
2410130.9
2410130.9
2410129
2410128.5
2410124.9
2410118.7
684.99576
674.14022
673.02835
673.12128
673.17399
673.18271
673.18376
673.18551
673.18876
673.19337
673.19927
673.20648
673.21509
673.2253
673.23739
673.25184
673.26935
673.29164
673.31981
673.36804
673.38941
673.84032
673.08042
10397.432
1778805.9
1727205.5
1723740.4
1721198.1
1720939.1
1721600.4
1722222.9
1722715.5
1723146.6
1723530.8
1725101.8
1726421
1726769.4
1726836.7
1726864.8
1726893.2
1726923.5
1726955.2
1726988.9
1727025.6
1727066
1727110.6
1727160
1727214.8
1727275.8
1727344.2
1727419.6
1727501.6
1727591.7
1727692
1727804.6
1727931.9
1728076.9
1728270.7
1728619.3
1729127.1
1729821.1
1730765.6
1732050.5
1733771.2
1735876.7
1738014.2
1739597.7
1740390.7
1740698
1740822
1740887.6
1740936.5
1740983.3
1741034.3
1741093.1
1741163
1741248.1
1741374.7
1741634.4
1742085.5
1742865.1
1744288
1746924.7
1750631.3
1753011.4
1753828.2
1754081.3
1754178.5
1754247.5
1754350.2
1754522.2
1754837.8
1755499.9
1757154.1
1761256.6
1765029.6
1766318.9
1766678.8
1766810
1766902.9
1767027.8
1767261.2
1767804.8
1769418.9
1773780.6
1777100.4
1778195.1
1778518.6
1778632.5
1778688.4
1778727.9
1778762.9
1778797.1
1778830.6
1778862.2
1778891.5
1778918.2
1778942.4
1778964
1778983.1
1778999.8
1779014.2
1779026.4
1779036.5
1779044.9
1779051.5
1779056.6
1779060.4
1779062.9
1779064.6
1779065.2
1779065.4
1779064.2
1779064.1
1779061.9
1779058.3
682.6239
671.1916
670.01741
670.11439
670.1694
670.17827
670.17911
670.1807
670.18385
670.18843
670.19435
670.20163
670.21038
670.2208
670.23317
670.24804
670.26614
670.2893
670.31864
670.36937
670.39107
670.86608
670.05168
10019.181
1330196.3
1296428.8
1294135.3
1292464.8
1292286.7
1292710.1
1293109.2
1293424.4
1293700
1293952.5
1295036.4
1295881.8
1296102.8
1296145.2
1296163.1
1296181.3
1296200.6
1296220.9
1296242.5
1296266
1296291.8
1296320.3
1296351.9
1296386.9
1296425.9
1296469.6
1296517.7
1296570
1296627.4
1296691.2
1296762.8
1296843.8
1296935.8
1297054.5
1297262.4
1297571.4
1297997.6
1298578.6
1299369.7
1300432.6
1301749.6
1303130.7
1304226.5
1304841.7
1305111.6
1305226.7
1305284.6
1305322.8
1305355.7
1305389.5
1305427.3
1305471.7
1305525.3
1305601.9
1305754.9
1306024.3
1306490
1307334.6
1308899.2
1311195.2
1312892.2
1313589
1313831.6
1313925
1313979.3
1314045.2
1314150
1314338.3
1314726.4
1315679
1318065.8
1320596.6
1321663
1322004.5
1322127.3
1322198.5
1322278.6
1322418.3
1322733.5
1323646.2
1326166.7
1328451.2
1329372.6
1329682.1
1329794.5
1329845.3
1329876.3
1329901
1329923.6
1329945.1
1329965.2
1329983.7
1330000.5
1330015.6
1330029.2
1330041.2
1330051.6
1330060.7
1330068.4
1330074.8
1330080
1330084.2
1330087.5
1330089.9
1330091.6
1330092.7
1330093.2
1330093.3
1330092.7
1330092.6
1330091.4
1330089.2
679.86523
667.75387
666.50631
666.608
666.66571
666.67474
666.67534
666.67674
666.67979
666.68433
666.69027
666.69764
666.70654
666.71719
666.7299
666.74525
666.76402
666.78819
666.8189
666.87252
666.89453
667.39775
666.51429
9627.6796
1004477.4
982014.12
980461.12
979346.97
979222.33
979496.44
979755.31
979959.31
980137.44
980307.89
981062.85
981611.36
981753.15
981780.14
981791.66
981803.43
981815.97
981829.09
981843.06
981858.26
981874.98
981893.45
981913.89
981936.56
981961.75
981990.04
982021.09
982054.84
982091.88
982133.03
982179.14
982231.2
982290.37
982364.47
982489.91
982679.58
982943.73
983305
983797.28
984460.8
985292.16
986189.77
986946.33
987414.72
987643.79
987748.49
987800.61
987832.25
987856.8
987880.1
987905.14
987933.9
987968.24
988015.49
988106.69
988269.07
988550.12
989057.01
989994.74
991422.41
992611.55
993181.61
993404.12
993493.07
993539.09
993584.01
993649.6
993763.68
993994.13
994549.03
995948.31
997623.17
998468.94
998778.42
998893.57
998952.18
999006.54
999092.23
999277.72
999800.04
1001265.1
1002805
1003545.7
1003827.4
1003935.6
1003983.2
1004009.6
1004028.2
1004043.9
1004058.2
1004071.3
1004083.2
1004093.9
1004103.6
1004112.2
1004119.8
1004126.5
1004132.3
1004137.2
1004141.3
1004144.6
1004147.4
1004149.5
1004151
1004152.2
1004152.9
1004153.2
1004153.4
1004153
1004153
1004152.3
1004150.9
676.67911
663.77254
662.43903
662.5462
662.60705
662.61627
662.61658
662.61775
662.62068
662.62517
662.63114
662.6386
662.64767
662.65859
662.67169
662.6876
662.70715
662.73248
662.76475
662.82172
662.84396
663.37999
662.40932
9222.1942
764259.64
749103.67
748025.49
747272.83
747184.14
747362.87
747532.1
747665.18
747781.27
747899.32
748428.19
748787.37
748879.15
748896.46
748903.92
748911.59
748919.77
748928.32
748937.44
748947.36
748958.27
748970.33
748983.68
748998.49
749014.93
749033.39
749053.64
749075.63
749099.74
749126.51
749156.48
749190.28
749228.67
749275.66
749352.2
749469.32
749634.13
749860.44
750169.26
750586.66
751114.92
751700.28
752220.6
752571.15
752759.83
752852.44
752899.4
752926.61
752945.89
752962.7
752979.77
752998.78
753021.1
753050.77
753105.74
753204.3
753375.25
753682.02
754248.3
755137.83
755958.57
756408.89
756604.82
756687.66
756728.34
756761
756803.34
756873.57
757011.91
757338.25
758163.24
759258.55
759906.4
760175.37
760281.42
760331.92
760371.06
760425.19
760535.92
760837.9
761693.14
762713.4
763286.6
763531.8
763632.68
763677.46
763700.83
763715.78
763727.34
763737.25
763746
763753.8
763760.8
763767.07
763772.65
763777.57
763781.87
763785.58
763788.75
763791.4
763793.59
763795.35
763796.73
763797.77
763798.51
763799.01
763799.27
763799.39
763799.2
763799.22
763798.76
763797.94
673.02262
659.18905
657.75531
657.8688
657.93329
657.94273
657.9427
657.94361
657.94638
657.95082
657.9568
657.96437
657.97365
657.98487
657.99842
658.01497
658.03541
658.06207
658.09611
658.15692
658.17927
658.75329
657.67282
8802.3716
584926.03
574568.11
573796.75
573282.13
573217.86
573334.78
573445.93
573533.15
573609.21
573692.93
574064.53
574301.37
574361.14
574372.28
574377.12
574382.12
574387.46
574393.06
574399.04
574405.54
574412.71
574420.63
574429.4
574439.13
574449.93
574462.05
574475.35
574489.78
574505.58
574523.12
574542.74
574564.84
574589.92
574620.08
574667.27
574739.94
574843.23
574985.76
575180.62
575444.7
575781.88
576164.26
576520.47
576778.78
576930.14
577009.8
577051.57
577075.36
577091.15
577103.82
577115.85
577128.69
577143.42
577162.36
577195.86
577256.01
577360.61
577547.47
577891.43
578446.12
579005.12
579350.54
579516.88
579591.85
579628.33
579653.56
579681.92
579725.93
579809.85
580003.32
580491.86
581200.7
581682.69
581907.89
582003.06
582047.47
582077.29
582112.69
582179.82
582356.02
582856.88
583523.1
583952.84
584158.11
584248.94
584290.45
584311.63
584324.26
584333.23
584340.4
584346.45
584351.71
584356.35
584360.48
584364.13
584367.35
584370.15
584372.58
584374.64
584376.37
584377.81
584378.96
584379.87
584380.57
584381.07
584381.41
584381.6
584381.7
584381.59
584381.62
584381.34
584380.84
668.85105
653.94108
652.39089
652.51162
652.58032
652.59
652.58958
652.59017
652.59276
652.59713
652.60314
652.61083
652.62033
652.6319
652.64596
652.66323
652.68468
652.71285
652.74889
652.81408
652.83637
653.45415
652.23598
8368.2885
449758.95
442592.08
442018.94
441662.5
441614.89
441691.26
441764.34
441821.6
441871.55
441932.17
442193.51
442350.47
442389.53
442396.69
442399.8
442403.05
442406.54
442410.2
442414.11
442418.38
442423.09
442428.31
442434.09
442440.51
442447.64
442455.63
442464.4
442473.91
442484.32
442495.87
442508.77
442523.3
442539.77
442559.31
442588.68
442633.95
442698.89
442788.98
442912.46
443080.22
443296.12
443546.03
443788.68
443976.39
444095.02
444161.73
444198.19
444219.02
444232.31
444242.24
444251.02
444259.92
444269.8
444282.07
444302.72
444339.61
444403.89
444518.28
444728.15
445074.09
445450.41
445708.78
445845.52
445911.39
445943.98
445964.4
445984.22
446012.38
446063.83
446179.37
446469.71
446924.24
447274.07
447456.52
447539.53
447578.65
447602.43
447626.55
447667.98
447771.72
448065.83
448495.52
448809.16
448975.25
449054.34
449091.98
449111.19
449122.2
449129.5
449134.93
449139.27
449142.92
449146.07
449148.84
449151.27
449153.4
449155.25
449156.84
449158.2
449159.35
449160.3
449161.06
449161.67
449162.14
449162.48
449162.71
449162.85
449162.93
449162.87
449162.9
449162.73
449162.43
664.11848
647.96292
646.27787
646.40687
646.48041
646.49036
646.48947
646.4897
646.49208
646.49636
646.50239
646.51021
646.51996
646.53193
646.54656
646.56464
646.58724
646.61711
646.6554
646.72554
646.74749
647.41554
646.02541
7920.5006
347110.26
342089.07
341642.6
341391.81
341355.51
341404.99
341452.87
341490.34
341523.11
341567.74
341751.42
341855.78
341881.34
341885.9
341887.86
341889.94
341892.19
341894.56
341897.11
341899.9
341902.99
341906.42
341910.23
341914.47
341919.17
341924.46
341930.25
341936.54
341943.42
341951.04
341959.56
341969.14
341980
341992.74
342011.19
342039.48
342080.39
342137.47
342215.96
342322.83
342461.36
342624.65
342789.11
342923.8
343014.89
343069.41
343100.56
343118.66
343129.98
343138
343144.63
343150.97
343157.73
343165.81
343178.68
343201.42
343241.06
343311.37
343439.86
343655.55
343906.29
344095.41
344204.68
344260.93
344289.63
344306.65
344321.12
344339.6
344371.53
344441
344614.08
344903.2
345151.77
345295.39
345365.79
345399.92
345419.48
345436.62
345462.75
345524.41
345697.56
345971.78
346195.5
346325.93
346392.69
346425.97
346443.25
346452.97
346459.11
346463.4
346466.64
346469.25
346471.46
346473.35
346474.99
346476.42
346477.66
346478.73
346479.63
346480.39
346481.03
346481.54
346481.95
346482.27
346482.5
346482.66
346482.76
346482.82
346482.8
346482.82
346482.72
346482.53
658.77867
641.18608
639.34531
639.48371
639.56277
639.57303
639.57159
639.57139
639.57353
639.5777
639.58375
639.59171
639.60174
639.61415
639.62942
639.64842
639.6723
639.70408
639.74486
639.82059
639.84184
640.56738
638.96359
7460.0867
268690.28
265126.41
264758.63
264578.42
264549.66
264581.08
264612.09
264636.38
264657.75
264690.97
264819.82
264889.32
264906.01
264908.84
264910.03
264911.31
264912.72
264914.22
264915.85
264917.66
264919.66
264921.9
264924.4
264927.18
264930.28
264933.77
264937.6
264941.75
264946.3
264951.34
264956.97
264963.3
264970.47
264978.82
264990.49
265008.24
265034.04
265070.26
265120.23
265188.45
265277.45
265384.05
265494.96
265590.52
265659.19
265702.76
265728.81
265744.32
265753.99
265760.61
265765.77
265770.41
265775.13
265780.54
265788.67
265802.76
265827.28
265870.62
265949.51
266083.91
266249.46
266385.32
266470.46
266517.24
266542.06
266556.43
266567.42
266579.9
266599.99
266642.08
266745.56
266928.17
267101.58
267211.79
267269.92
267299.24
267315.59
267328.28
267345.2
267382.24
267484.46
267657.88
267814.33
267914.13
267968.91
267997.59
268012.87
268021.46
268026.74
268030.25
268032.76
268034.7
268036.28
268037.61
268038.75
268039.73
268040.57
268041.29
268041.9
268042.41
268042.84
268043.19
268043.46
268043.68
268043.84
268043.96
268044.03
268044.07
268044.06
268044.09
268044.02
268043.91
652.78613
633.54017
631.52003
631.66904
631.75439
631.76498
631.76291
631.76221
631.76405
631.76809
631.77416
631.78227
631.79261
631.8055
631.82149
631.84152
631.86682
631.90073
631.94426
632.02625
632.04627
632.83742
630.96959
6988.6841
208495.5
205931.48
205609.62
205476.23
205452.3
205471.41
205491.01
205506.42
205520.15
205544.98
205635.09
205681.36
205692.17
205693.84
205694.48
205695.21
205696.04
205696.94
205697.95
205699.07
205700.35
205701.78
205703.4
205705.21
205707.23
205709.52
205712.04
205714.77
205717.77
205721.09
205724.81
205728.99
205733.72
205739.21
205746.64
205757.8
205774.09
205797.08
205828.93
205872.52
205929.72
205999.23
206073.67
206140.77
206191.71
206225.82
206247.16
206260.24
206268.45
206273.97
206278.08
206281.57
206284.94
206288.62
206293.83
206302.62
206317.82
206344.61
206393.15
206476.83
206585.26
206681.26
206746.14
206784.1
206805.13
206817.29
206825.89
206834.6
206847.46
206873.15
206935.21
207049.86
207168.91
207251.59
207298.44
207323.16
207336.88
207346.61
207357.9
207380.45
207440.99
207549.83
207657.38
207731.98
207775.8
207799.92
207813.18
207820.72
207825.29
207828.23
207830.24
207831.73
207832.91
207833.87
207834.67
207835.35
207835.93
207836.43
207836.85
207837.2
207837.49
207837.73
207837.92
207838.07
207838.18
207838.26
207838.31
207838.35
207838.34
207838.36
207838.32
207838.25
646.09755
624.95394
622.72768
622.88857
622.98106
622.992
622.98919
622.98792
622.98941
622.99329
622.99936
623.00764
623.01831
623.03175
623.04853
623.06969
623.09656
623.13283
623.17937
623.26833
623.28644
624.15223
621.96017
6508.5079
162115.25
160245.13
159946.37
159843.47
159822.36
159832.9
159844.64
159853.97
159862.5
159881.03
159943.74
159974.44
159981.32
159982.2
159982.43
159982.76
159983.17
159983.66
159984.22
159984.88
159985.64
159986.53
159987.54
159988.68
159989.98
159991.46
159993.09
159994.87
159996.83
159999.01
160001.45
160004.2
160007.32
160010.92
160015.67
160022.69
160032.98
160047.57
160067.87
160095.74
160132.51
160177.76
160227.48
160274.14
160311.39
160337.61
160354.74
160365.58
160372.49
160377.09
160380.42
160383.1
160385.56
160388.13
160391.52
160397.03
160406.49
160423.07
160452.99
160505.05
160575.56
160642.41
160690.89
160721.01
160738.46
160748.68
160755.56
160761.83
160770.23
160786.06
160823.4
160895.01
160975.61
161036.4
161073.32
161093.76
161105.24
161112.89
161120.67
161134.62
161170.63
161238.51
161311.33
161365.98
161400.23
161420.05
161431.33
161437.86
161441.82
161444.32
161445.97
161447.15
161448.05
161448.76
161449.35
161449.84
161450.25
161450.59
161450.88
161451.13
161451.33
161451.49
161451.62
161451.73
161451.81
161451.86
161451.9
161451.93
161451.93
161451.94
161451.92
161451.87
638.67354
615.35679
612.89415
613.06825
613.16879
613.18011
613.17644
613.17449
613.17557
613.17926
613.18532
613.19377
613.2048
613.21883
613.23648
613.25888
613.28749
613.32635
613.37614
613.47283
613.48815
614.43867
611.85121
6022.3493
126270.7
124889.23
124597.33
124513.49
124493.66
124498.01
124504.21
124509.29
124514.22
124527.87
124571.21
124591.42
124595.64
124595.93
124595.86
124595.87
124595.98
124596.15
124596.39
124596.71
124597.12
124597.61
124598.2
124598.89
124599.69
124600.61
124601.64
124602.77
124604.03
124605.43
124607.02
124608.81
124610.85
124613.2
124616.23
124620.66
124627.14
124636.38
124649.32
124667.12
124690.74
124720.14
124753.2
124785.37
124812.24
124832.07
124845.57
124854.39
124860.13
124863.95
124866.66
124868.76
124870.6
124872.41
124874.65
124878.14
124884.04
124894.33
124912.79
124945.15
124990.7
125036.66
125072.24
125095.66
125109.85
125118.34
125123.91
125128.55
125134.17
125144.04
125166.59
125211.13
125265.02
125308.94
125337.44
125354.02
125363.53
125369.64
125375.19
125383.98
125405.52
125447.64
125496.32
125535.64
125561.85
125577.79
125587.2
125592.77
125596.18
125598.31
125599.7
125600.65
125601.36
125601.91
125602.34
125602.7
125603
125603.24
125603.45
125603.62
125603.76
125603.88
125603.97
125604.04
125604.1
125604.14
125604.17
125604.19
125604.19
125604.2
125604.18
125604.15
630.48077
604.68058
601.94736
602.136
602.24557
602.25729
602.25263
602.24988
602.25048
602.25393
602.25996
602.26858
602.28001
602.29468
602.31328
602.33704
602.36753
602.40921
602.4625
602.5677
602.57908
603.62556
600.55972
5533.5473
98500.808
97470.463
97173.643
97100.624
97080.82
97080.497
97082.635
97084.64
97086.973
97096.789