/*--------------------------------*- C++ -*----------------------------------*\
| =========                 |                                                 |
| \\      /  F ield         | OpenFOAM: The Open Source CFD Toolbox           |
|  \\    /   O peration     | Version:  2206                                  |
|   \\  /    A nd           | Website:  www.openfoam.com                      |
|    \\/     M anipulation  |                                                 |
\*---------------------------------------------------------------------------*/
FoamFile
{
    version     2.0;
    format      ascii;
    arch        "LSB;label=32;scalar=64";
    class       volScalarField;
    location    "200";
    object      p;
}
// * * * * * * * * * * * * * * * * * * * * * * * * * * * * * * * * * * * * * //

dimensions      [0 2 -2 0 0 0 0];

internalField   nonuniform List<scalar> 
13056
(
0.011796176
0.011897708
0.012113461
0.012389464
0.012723788
0.013116642
0.013566281
0.014071964
0.014635006
0.015258597
0.015947701
0.016709381
0.01755341
0.018493563
0.019548692
0.020747496
0.022127275
0.023760826
0.025715641
0.028261129
0.031379721
0.03667882
0.04197037
0.081626441
0.051446163
0.0017745639
0.00055592264
0.0015247041
0.0021100224
0.0025901354
0.0028788629
0.0030842484
0.0032442083
0.0033604178
0.0034447866
0.003508111
0.0035562359
0.0035929456
0.0036207656
0.0036416619
0.0036571401
0.0036682177
0.003675661
0.0036801287
0.0036820974
0.0036818925
0.0036798139
0.0036760943
0.0036709418
0.0036645114
0.0036568877
0.0036481706
0.003638447
0.0036277734
0.0036162163
0.0036038109
0.0035905604
0.0035764904
0.0035616145
0.0035459392
0.0035294661
0.0035122035
0.0034941336
0.0034752141
0.0034554119
0.0034346883
0.0034130102
0.0033903418
0.0033666407
0.0033418737
0.0033159991
0.0032889503
0.0032606707
0.0032311068
0.003200201
0.0031679079
0.0031341842
0.0030990632
0.003062608
0.0030247832
0.0029855906
0.0029450519
0.0029032699
0.0028604447
0.0028169094
0.0027734161
0.002730964
0.0026904303
0.0026528457
0.0026196342
0.0025923509
0.002572893
0.0025631651
0.0025679123
0.0025909978
0.0026334395
0.0026981199
0.0027870417
0.0029003203
0.003036337
0.0031924534
0.0033671302
0.00353889
0.0036726282
0.003752347
0.0037794665
0.003752978
0.0036806365
0.0035808674
0.0034653599
0.003338591
0.0032009005
0.0030555129
0.0029050698
0.0027546597
0.0026076078
0.0024627132
0.0023194374
0.0021794973
0.00204117
0.0019032054
0.0017676932
0.0016355752
0.001505192
0.0013761504
0.0012504856
0.0011299237
0.0010135821
0.00090052078
0.0007920017
0.00069291832
0.00060055715
0.00054034565
0.00045549027
0.00062249728
-0.00047921188
0.011796176
0.011897708
0.012113461
0.012389464
0.012723788
0.013116642
0.013566282
0.014071964
0.014635006
0.015258598
0.015947702
0.016709382
0.017553412
0.018493565
0.019548694
0.020747499
0.02212728
0.023760833
0.025715651
0.028261145
0.031379744
0.036678869
0.041970429
0.081621573
0.051457718
0.0017819553
0.00055775475
0.001525525
0.0021105172
0.0025904812
0.0028791226
0.0030844539
0.0032443759
0.0033605576
0.0034449055
0.0035082136
0.0035563255
0.0035930246
0.0036208358
0.0036417247
0.0036571967
0.003668269
0.0036757077
0.0036801714
0.0036821366
0.0036819286
0.0036798472
0.0036761252
0.0036709705
0.0036645381
0.0036569126
0.0036481939
0.0036384688
0.0036277938
0.0036162356
0.003603829
0.0035905775
0.0035765065
0.0035616297
0.0035459535
0.0035294797
0.0035122163
0.0034941458
0.0034752257
0.0034554229
0.0034346988
0.0034130201
0.0033903513
0.0033666497
0.0033418823
0.0033160073
0.003288958
0.0032606781
0.0032311138
0.0032002077
0.0031679142
0.0031341903
0.003099069
0.0030626135
0.0030247885
0.0029855956
0.0029450567
0.0029032744
0.002860449
0.0028169135
0.00277342
0.0027309677
0.0026904338
0.002652849
0.0026196373
0.0025923539
0.0025728958
0.0025631677
0.0025679147
0.002591
0.0026334415
0.0026981217
0.0027870433
0.0029003217
0.0030363382
0.0031924545
0.003367131
0.0035388906
0.0036726286
0.0037523473
0.0037794666
0.003752978
0.0036806364
0.0035808673
0.0034653597
0.0033385908
0.0032009004
0.0030555127
0.0029050697
0.0027546596
0.0026076077
0.0024627132
0.0023194374
0.0021794973
0.00204117
0.0019032054
0.0017676933
0.0016355753
0.0015051921
0.0013761505
0.0012504857
0.0011299238
0.0010135822
0.00090052092
0.00079200185
0.00069291847
0.00060055732
0.00054034586
0.0004554905
0.00062249751
-0.00047921173
0.011796176
0.011897708
0.012113462
0.012389464
0.012723788
0.013116642
0.013566282
0.014071965
0.014635007
0.015258599
0.015947703
0.016709383
0.017553413
0.018493567
0.019548697
0.020747503
0.022127285
0.023760841
0.025715662
0.028261165
0.031379769
0.036678925
0.041970481
0.081616644
0.05147359
0.0017891645
0.00055992213
0.0015265034
0.0021111065
0.0025908929
0.0028794318
0.0030846985
0.0032445753
0.0033607239
0.0034450469
0.0035083356
0.003556432
0.0035931185
0.0036209193
0.0036417995
0.003657264
0.00366833
0.0036757632
0.0036802221
0.0036821832
0.0036819715
0.0036798868
0.0036761619
0.0036710046
0.0036645698
0.0036569422
0.0036482216
0.0036384947
0.0036278181
0.0036162584
0.0036038505
0.0035905977
0.0035765255
0.0035616477
0.0035459705
0.0035294958
0.0035122316
0.0034941602
0.0034752394
0.0034554359
0.0034347111
0.0034130319
0.0033903624
0.0033666603
0.0033418924
0.0033160169
0.0032889672
0.0032606868
0.0032311221
0.0032002156
0.0031679218
0.0031341975
0.0030990759
0.00306262
0.0030247947
0.0029856015
0.0029450623
0.0029032798
0.0028604541
0.0028169183
0.0027734246
0.0027309721
0.0026904379
0.0026528529
0.002619641
0.0025923573
0.002572899
0.0025631708
0.0025679176
0.0025910026
0.002633444
0.0026981239
0.0027870453
0.0029003234
0.0030363397
0.0031924558
0.0033671321
0.0035388915
0.0036726293
0.0037523477
0.0037794668
0.0037529781
0.0036806364
0.0035808673
0.0034653596
0.0033385907
0.0032009002
0.0030555126
0.0029050696
0.0027546596
0.0026076077
0.0024627132
0.0023194374
0.0021794973
0.00204117
0.0019032055
0.0017676934
0.0016355754
0.0015051922
0.0013761506
0.0012504859
0.001129924
0.0010135824
0.00090052108
0.00079200202
0.00069291866
0.00060055751
0.00054034609
0.00045549076
0.00062249777
-0.00047921156
0.011796176
0.011897708
0.012113462
0.012389465
0.012723788
0.013116643
0.013566282
0.014071965
0.014635007
0.015258599
0.015947704
0.016709384
0.017553415
0.018493569
0.0195487
0.020747507
0.022127291
0.023760849
0.025715673
0.028261184
0.031379795
0.036678979
0.041970537
0.081611816
0.051491311
0.0017943303
0.00056196631
0.0015274646
0.002111686
0.0025912979
0.002879736
0.0030849391
0.0032447716
0.0033608876
0.0034451861
0.0035084557
0.0035565369
0.0035932109
0.0036210015
0.0036418731
0.0036573304
0.0036683901
0.0036758179
0.0036802721
0.0036822291
0.0036820137
0.0036799259
0.003676198
0.0036710382
0.0036646011
0.0036569713
0.0036482489
0.0036385203
0.0036278421
0.0036162809
0.0036038716
0.0035906176
0.0035765443
0.0035616654
0.0035459873
0.0035295117
0.0035122466
0.0034941745
0.0034752529
0.0034554488
0.0034347233
0.0034130435
0.0033903734
0.0033666708
0.0033419023
0.0033160264
0.0032889763
0.0032606954
0.0032311303
0.0032002235
0.0031679292
0.0031342046
0.0030990826
0.0030626265
0.0030248009
0.0029856073
0.0029450679
0.0029032851
0.0028604592
0.0028169231
0.0027734292
0.0027309764
0.002690442
0.0026528568
0.0026196447
0.0025923607
0.0025729022
0.0025631738
0.0025679204
0.0025910052
0.0026334463
0.002698126
0.0027870472
0.0029003251
0.0030363412
0.003192457
0.0033671331
0.0035388922
0.0036726298
0.003752348
0.003779467
0.0037529781
0.0036806363
0.0035808671
0.0034653594
0.0033385905
0.0032009
0.0030555124
0.0029050694
0.0027546594
0.0026076076
0.0024627131
0.0023194374
0.0021794973
0.0020411701
0.0019032056
0.0017676935
0.0016355755
0.0015051923
0.0013761507
0.001250486
0.0011299241
0.0010135825
0.00090052125
0.00079200219
0.00069291884
0.0006005577
0.00054034633
0.00045549102
0.00062249805
-0.00047921139
0.011796176
0.011897708
0.012113462
0.012389465
0.012723788
0.013116643
0.013566283
0.014071966
0.014635008
0.0152586
0.015947705
0.016709385
0.017553417
0.018493571
0.019548703
0.020747512
0.022127296
0.023760857
0.025715684
0.028261203
0.031379821
0.036679034
0.041970605
0.08160664
0.05151017
0.0017998686
0.0005640349
0.0015284494
0.00211228
0.002591713
0.0028800477
0.0030851858
0.0032449728
0.0033610554
0.0034453287
0.0035085788
0.0035566444
0.0035933057
0.0036210857
0.0036419486
0.0036573984
0.0036684517
0.003675874
0.0036803234
0.0036822761
0.0036820571
0.0036799659
0.0036762351
0.0036710726
0.0036646332
0.0036570013
0.0036482768
0.0036385465
0.0036278667
0.003616304
0.0036038933
0.0035906381
0.0035765636
0.0035616836
0.0035460045
0.003529528
0.0035122621
0.0034941891
0.0034752668
0.0034554619
0.0034347358
0.0034130553
0.0033903847
0.0033666815
0.0033419126
0.0033160361
0.0032889855
0.0032607043
0.0032311387
0.0032002315
0.0031679369
0.0031342118
0.0030990896
0.0030626331
0.0030248072
0.0029856133
0.0029450736
0.0029032905
0.0028604643
0.002816928
0.0027734338
0.0027309808
0.0026904462
0.0026528607
0.0026196484
0.0025923642
0.0025729055
0.0025631769
0.0025679232
0.0025910078
0.0026334487
0.0026981282
0.0027870491
0.0029003268
0.0030363426
0.0031924582
0.003367134
0.0035388929
0.0036726303
0.0037523483
0.0037794671
0.0037529781
0.0036806362
0.0035808669
0.0034653592
0.0033385903
0.0032008998
0.0030555123
0.0029050693
0.0027546593
0.0026076075
0.002462713
0.0023194373
0.0021794973
0.0020411701
0.0019032056
0.0017676935
0.0016355756
0.0015051924
0.0013761509
0.0012504861
0.0011299243
0.0010135827
0.00090052141
0.00079200237
0.00069291904
0.0006005579
0.00054034658
0.00045549128
0.00062249832
-0.00047921122
0.011796176
0.011897708
0.012113462
0.012389465
0.012723789
0.013116643
0.013566283
0.014071966
0.014635008
0.015258601
0.015947706
0.016709387
0.017553419
0.018493574
0.019548707
0.020747516
0.022127303
0.023760866
0.025715697
0.028261225
0.031379851
0.036679093
0.041970683
0.08160089
0.051529821
0.0018069434
0.00056623428
0.001529495
0.0021129108
0.0025921539
0.0028803789
0.0030854478
0.0032451865
0.0033612337
0.0034454803
0.0035087096
0.0035567586
0.0035934064
0.0036211753
0.0036420287
0.0036574706
0.0036685171
0.0036759336
0.0036803779
0.0036823261
0.0036821031
0.0036800085
0.0036762745
0.0036711092
0.0036646673
0.003657033
0.0036483065
0.0036385743
0.0036278928
0.0036163285
0.0036039164
0.0035906598
0.0035765841
0.003561703
0.0035460228
0.0035295453
0.0035122785
0.0034942047
0.0034752815
0.0034554759
0.0034347491
0.003413068
0.0033903967
0.0033666929
0.0033419234
0.0033160464
0.0032889954
0.0032607136
0.0032311477
0.00320024
0.003167945
0.0031342196
0.0030990969
0.0030626401
0.0030248139
0.0029856197
0.0029450797
0.0029032963
0.0028604698
0.0028169333
0.0027734388
0.0027309855
0.0026904506
0.0026528649
0.0026196523
0.0025923679
0.002572909
0.0025631801
0.0025679262
0.0025910105
0.0026334512
0.0026981305
0.0027870512
0.0029003286
0.0030363441
0.0031924595
0.0033671351
0.0035388937
0.0036726308
0.0037523486
0.0037794672
0.0037529781
0.0036806361
0.0035808667
0.003465359
0.0033385901
0.0032008996
0.0030555121
0.0029050691
0.0027546592
0.0026076074
0.002462713
0.0023194373
0.0021794974
0.0020411701
0.0019032057
0.0017676936
0.0016355757
0.0015051925
0.001376151
0.0012504863
0.0011299244
0.0010135829
0.0009005216
0.00079200256
0.00069291924
0.00060055811
0.00054034685
0.00045549156
0.00062249862
-0.00047921104
0.011796176
0.011897708
0.012113462
0.012389465
0.012723789
0.013116644
0.013566283
0.014071967
0.014635009
0.015258602
0.015947707
0.016709388
0.017553421
0.018493577
0.01954871
0.020747521
0.02212731
0.023760876
0.025715711
0.02826125
0.031379883
0.03667916
0.041970761
0.081594451
0.051550496
0.0018149238
0.00056860461
0.0015306207
0.0021135901
0.0025926287
0.0028807355
0.0030857299
0.0032454166
0.0033614256
0.0034456435
0.0035088504
0.0035568816
0.0035935148
0.0036212717
0.0036421151
0.0036575484
0.0036685876
0.0036759977
0.0036804366
0.0036823799
0.0036821527
0.0036800543
0.0036763169
0.0036711486
0.0036647039
0.0036570673
0.0036483385
0.0036386042
0.0036279209
0.0036163549
0.0036039412
0.0035906832
0.0035766062
0.0035617238
0.0035460425
0.0035295639
0.0035122961
0.0034942214
0.0034752974
0.003455491
0.0034347634
0.0034130816
0.0033904097
0.0033667052
0.0033419351
0.0033160576
0.003289006
0.0032607237
0.0032311573
0.0032002492
0.0031679537
0.0031342279
0.0030991049
0.0030626477
0.0030248211
0.0029856266
0.0029450862
0.0029033025
0.0028604757
0.0028169389
0.0027734441
0.0027309905
0.0026904554
0.0026528694
0.0026196566
0.0025923719
0.0025729127
0.0025631836
0.0025679294
0.0025910135
0.0026334539
0.0026981329
0.0027870533
0.0029003305
0.0030363458
0.0031924608
0.0033671361
0.0035388945
0.0036726313
0.0037523489
0.0037794673
0.003752978
0.0036806359
0.0035808665
0.0034653588
0.0033385898
0.0032008994
0.0030555119
0.0029050689
0.002754659
0.0026076073
0.0024627129
0.0023194373
0.0021794974
0.0020411702
0.0019032058
0.0017676937
0.0016355758
0.0015051927
0.0013761511
0.0012504865
0.0011299246
0.0010135831
0.00090052179
0.00079200276
0.00069291946
0.00060055834
0.00054034713
0.00045549186
0.00062249894
-0.00047921085
0.011796176
0.011897708
0.012113462
0.012389465
0.012723789
0.013116644
0.013566284
0.014071967
0.01463501
0.015258603
0.015947708
0.01670939
0.017553423
0.01849358
0.019548715
0.020747527
0.022127318
0.023760888
0.025715727
0.028261277
0.03137992
0.036679236
0.041970826
0.081587181
0.051572479
0.0018234936
0.00057117568
0.0015318419
0.0021143274
0.002593144
0.0028811225
0.0030860361
0.0032456663
0.003361634
0.0034458206
0.0035090033
0.0035570151
0.0035936325
0.0036213763
0.0036422088
0.0036576328
0.0036686641
0.0036760674
0.0036805002
0.0036824384
0.0036822065
0.003680104
0.003676363
0.0036711914
0.0036647438
0.0036571044
0.0036483733
0.0036386368
0.0036279514
0.0036163836
0.0036039682
0.0035907086
0.0035766302
0.0035617465
0.0035460639
0.0035295842
0.0035123153
0.0034942396
0.0034753146
0.0034555073
0.0034347789
0.0034130963
0.0033904237
0.0033667186
0.0033419478
0.0033160697
0.0032890175
0.0032607347
0.0032311677
0.0032002591
0.0031679632
0.003134237
0.0030991135
0.0030626559
0.0030248289
0.002985634
0.0029450933
0.0029033093
0.0028604821
0.002816945
0.0027734499
0.002730996
0.0026904606
0.0026528743
0.0026196611
0.0025923762
0.0025729167
0.0025631873
0.0025679329
0.0025910167
0.0026334568
0.0026981356
0.0027870557
0.0029003325
0.0030363475
0.0031924623
0.0033671373
0.0035388953
0.0036726319
0.0037523492
0.0037794674
0.0037529779
0.0036806357
0.0035808663
0.0034653585
0.0033385895
0.0032008991
0.0030555116
0.0029050687
0.0027546589
0.0026076072
0.0024627128
0.0023194373
0.0021794974
0.0020411702
0.0019032058
0.0017676938
0.0016355759
0.0015051928
0.0013761513
0.0012504866
0.0011299248
0.0010135833
0.000900522
0.00079200299
0.0006929197
0.00060055859
0.00054034744
0.00045549219
0.0006224993
-0.00047921063
0.011796176
0.011897709
0.012113462
0.012389466
0.012723789
0.013116644
0.013566284
0.014071968
0.014635011
0.015258604
0.01594771
0.016709392
0.017553426
0.018493584
0.019548719
0.020747534
0.022127327
0.023760901
0.025715746
0.028261309
0.031379963
0.036679324
0.041970882
0.081578899
0.051596004
0.0018327703
0.00057398398
0.0015331764
0.0021151334
0.0025937073
0.0028815457
0.003086371
0.0032459394
0.0033618618
0.0034460143
0.0035091705
0.003557161
0.0035937612
0.0036214908
0.0036423113
0.0036577252
0.0036687478
0.0036761436
0.0036805699
0.0036825023
0.0036822654
0.0036801584
0.0036764134
0.0036712382
0.0036647873
0.0036571451
0.0036484113
0.0036386724
0.0036279848
0.0036164149
0.0036039977
0.0035907364
0.0035766564
0.0035617712
0.0035460873
0.0035296063
0.0035123362
0.0034942594
0.0034753335
0.0034555252
0.0034347959
0.0034131125
0.0033904391
0.0033667332
0.0033419617
0.0033160829
0.0032890301
0.0032607467
0.0032311792
0.00320027
0.0031679736
0.0031342468
0.0030991229
0.0030626649
0.0030248374
0.0029856422
0.0029451011
0.0029033166
0.0028604892
0.0028169516
0.0027734562
0.002731002
0.0026904662
0.0026528796
0.0026196662
0.0025923809
0.0025729211
0.0025631914
0.0025679367
0.0025910202
0.00263346
0.0026981384
0.0027870582
0.0029003347
0.0030363494
0.0031924638
0.0033671384
0.0035388962
0.0036726324
0.0037523494
0.0037794674
0.0037529778
0.0036806355
0.0035808659
0.0034653581
0.0033385892
0.0032008988
0.0030555113
0.0029050685
0.0027546587
0.002607607
0.0024627127
0.0023194372
0.0021794974
0.0020411703
0.0019032059
0.0017676939
0.0016355761
0.001505193
0.0013761515
0.0012504868
0.001129925
0.0010135835
0.00090052224
0.00079200323
0.00069291997
0.00060055887
0.00054034779
0.00045549255
0.00062249968
-0.0004792104
0.011796176
0.011897709
0.012113463
0.012389466
0.01272379
0.013116645
0.013566285
0.014071969
0.014635012
0.015258606
0.015947712
0.016709395
0.017553429
0.018493588
0.019548725
0.020747542
0.022127337
0.023760917
0.025715767
0.028261346
0.031380012
0.036679425
0.041970941
0.081569386
0.051621282
0.0018429352
0.00057707178
0.0015346443
0.0021160205
0.0025943274
0.0028820116
0.0030867396
0.0032462401
0.0033621126
0.0034462275
0.0035093545
0.0035573218
0.003593903
0.0036216168
0.0036424241
0.0036578269
0.00366884
0.0036762275
0.0036806466
0.0036825727
0.0036823302
0.0036802183
0.0036764689
0.0036712898
0.0036648354
0.0036571899
0.0036484532
0.0036387116
0.0036280216
0.0036164495
0.0036040303
0.0035907671
0.0035766853
0.0035617985
0.0035461131
0.0035296307
0.0035123594
0.0034942813
0.0034753542
0.0034555449
0.0034348147
0.0034131303
0.003390456
0.0033667493
0.0033419771
0.0033160975
0.003289044
0.00326076
0.0032311918
0.003200282
0.0031679851
0.0031342578
0.0030991333
0.0030626748
0.0030248469
0.0029856511
0.0029451096
0.0029033248
0.0028604969
0.0028169589
0.0027734632
0.0027310086
0.0026904724
0.0026528855
0.0026196717
0.0025923861
0.0025729259
0.0025631959
0.0025679408
0.002591024
0.0026334635
0.0026981415
0.0027870609
0.0029003371
0.0030363514
0.0031924654
0.0033671397
0.003538897
0.0036726329
0.0037523496
0.0037794673
0.0037529776
0.0036806351
0.0035808655
0.0034653577
0.0033385888
0.0032008984
0.003055511
0.0029050682
0.0027546585
0.0026076069
0.0024627126
0.0023194372
0.0021794974
0.0020411703
0.001903206
0.0017676941
0.0016355762
0.0015051932
0.0013761517
0.0012504871
0.0011299252
0.0010135837
0.0009005225
0.00079200351
0.00069292027
0.00060055918
0.00054034817
0.00045549295
0.00062250011
-0.00047921013
0.011796176
0.011897709
0.012113463
0.012389466
0.01272379
0.013116645
0.013566286
0.01407197
0.014635013
0.015258607
0.015947714
0.016709398
0.017553433
0.018493593
0.019548732
0.020747551
0.02212735
0.023760935
0.025715792
0.028261388
0.03138007
0.036679543
0.041971008
0.081558381
0.051648515
0.0018541472
0.00058048573
0.0015362681
0.0021170024
0.0025950139
0.0028825274
0.0030871476
0.003246573
0.0033623903
0.0034464637
0.0035095583
0.0035574998
0.0035940599
0.0036217563
0.0036425491
0.0036579396
0.003668942
0.0036763204
0.0036807316
0.0036826507
0.0036824021
0.0036802847
0.0036765304
0.0036713469
0.0036648885
0.0036572395
0.0036484995
0.003638755
0.0036280623
0.0036164878
0.0036040663
0.003590801
0.0035767173
0.0035618288
0.0035461417
0.0035296578
0.003512385
0.0034943056
0.0034753773
0.0034555668
0.0034348354
0.00341315
0.0033904747
0.0033667671
0.003341994
0.0033161137
0.0032890594
0.0032607746
0.0032312058
0.0032002953
0.0031679977
0.0031342698
0.0030991448
0.0030626858
0.0030248573
0.0029856611
0.002945119
0.0029033337
0.0028605054
0.002816967
0.0027734708
0.0027310158
0.0026904793
0.002652892
0.0026196778
0.0025923918
0.0025729313
0.0025632009
0.0025679454
0.0025910282
0.0026334673
0.0026981449
0.0027870639
0.0029003396
0.0030363535
0.0031924671
0.003367141
0.0035388979
0.0036726334
0.0037523497
0.0037794672
0.0037529772
0.0036806346
0.003580865
0.0034653572
0.0033385883
0.003200898
0.0030555106
0.0029050679
0.0027546582
0.0026076067
0.0024627125
0.0023194371
0.0021794974
0.0020411704
0.0019032061
0.0017676942
0.0016355764
0.0015051934
0.0013761519
0.0012504873
0.0011299255
0.001013584
0.0009005228
0.00079200382
0.0006929206
0.00060055952
0.0005403486
0.0004554934
0.0006225006
-0.00047920984
0.011796176
0.011897709
0.012113463
0.012389467
0.012723791
0.013116646
0.013566287
0.014071971
0.014635015
0.015258609
0.015947717
0.016709401
0.017553437
0.018493599
0.01954874
0.020747561
0.022127364
0.023760956
0.02571582
0.028261437
0.031380136
0.03667968
0.041971089
0.081545573
0.051677888
0.0018665669
0.00058427724
0.0015380724
0.0021180942
0.0025957772
0.002883101
0.0030876015
0.0032469432
0.0033626992
0.0034467263
0.003509785
0.0035576978
0.0035942345
0.0036219116
0.0036426882
0.0036580649
0.0036690556
0.0036764238
0.0036808262
0.0036827375
0.003682482
0.0036803585
0.0036765989
0.0036714105
0.0036649477
0.0036572947
0.0036485512
0.0036388034
0.0036281077
0.0036165304
0.0036041064
0.0035908388
0.003576753
0.0035618624
0.0035461735
0.0035296879
0.0035124135
0.0034943326
0.0034754029
0.0034555911
0.0034348585
0.003413172
0.0033904956
0.003366787
0.003342013
0.0033161317
0.0032890765
0.003260791
0.0032312213
0.0032003102
0.0031680119
0.0031342833
0.0030991576
0.003062698
0.0030248689
0.0029856721
0.0029451296
0.0029033437
0.0028605149
0.0028169761
0.0027734794
0.0027310239
0.0026904869
0.0026528991
0.0026196845
0.0025923981
0.0025729371
0.0025632063
0.0025679504
0.0025910327
0.0026334714
0.0026981486
0.0027870671
0.0029003424
0.0030363557
0.0031924689
0.0033671423
0.0035388987
0.0036726338
0.0037523497
0.0037794669
0.0037529767
0.003680634
0.0035808643
0.0034653565
0.0033385877
0.0032008974
0.0030555102
0.0029050675
0.0027546579
0.0026076064
0.0024627124
0.002319437
0.0021794974
0.0020411704
0.0019032062
0.0017676944
0.0016355766
0.0015051936
0.0013761522
0.0012504876
0.0011299258
0.0010135843
0.00090052313
0.00079200417
0.00069292098
0.00060055991
0.00054034908
0.00045549391
0.00062250115
-0.0004792095
0.011796176
0.011897709
0.012113464
0.012389467
0.012723791
0.013116647
0.013566288
0.014071972
0.014635017
0.015258611
0.01594772
0.016709405
0.017553442
0.018493605
0.019548749
0.020747574
0.022127381
0.02376098
0.025715854
0.028261494
0.031380212
0.036679838
0.041971185
0.081530587
0.051709563
0.0018803757
0.00058850328
0.0015400847
0.0021193128
0.0025966292
0.0028837413
0.0030881082
0.0032473566
0.0033630441
0.0034470196
0.0035100382
0.0035579189
0.0035944296
0.003622085
0.0036428435
0.0036582049
0.0036691825
0.0036765394
0.0036809318
0.0036828345
0.0036825714
0.0036804411
0.0036766753
0.0036714815
0.0036650139
0.0036573565
0.0036486089
0.0036388575
0.0036281584
0.0036165781
0.0036041512
0.0035908811
0.0035767928
0.0035619001
0.0035462091
0.0035297216
0.0035124454
0.0034943629
0.0034754316
0.0034556183
0.0034348844
0.0034131965
0.003390519
0.0033668092
0.0033420341
0.0033161518
0.0032890957
0.0032608092
0.0032312387
0.0032003267
0.0031680276
0.0031342983
0.003099172
0.0030627116
0.0030248819
0.0029856845
0.0029451413
0.0029033549
0.0028605255
0.0028169861
0.0027734889
0.0027310329
0.0026904954
0.0026529071
0.002619692
0.0025924051
0.0025729437
0.0025632123
0.0025679559
0.0025910378
0.0026334759
0.0026981526
0.0027870706
0.0029003453
0.0030363581
0.0031924707
0.0033671435
0.0035388995
0.003672634
0.0037523496
0.0037794664
0.003752976
0.0036806332
0.0035808634
0.0034653557
0.0033385869
0.0032008968
0.0030555096
0.0029050671
0.0027546576
0.0026076062
0.0024627122
0.0023194369
0.0021794974
0.0020411705
0.0019032063
0.0017676945
0.0016355768
0.0015051938
0.0013761525
0.0012504879
0.0011299261
0.0010135847
0.00090052351
0.00079200457
0.00069292141
0.00060056036
0.00054034963
0.00045549449
0.00062250177
-0.00047920912
0.011796176
0.01189771
0.012113464
0.012389468
0.012723792
0.013116648
0.013566289
0.014071974
0.014635019
0.015258614
0.015947723
0.016709409
0.017553448
0.018493613
0.019548759
0.020747588
0.0221274
0.023761008
0.025715892
0.028261559
0.0313803
0.036680021
0.041971301
0.081512972
0.051743663
0.0018957798
0.00059322734
0.0015423355
0.002120677
0.0025975831
0.0028844584
0.0030886756
0.0032478195
0.0033634304
0.0034473481
0.0035103218
0.0035581666
0.003594648
0.0036222793
0.0036430176
0.0036583618
0.0036693246
0.0036766688
0.0036810502
0.0036829432
0.0036826715
0.0036805336
0.0036767611
0.0036715612
0.003665088
0.0036574257
0.0036486736
0.0036389181
0.0036282153
0.0036166315
0.0036042015
0.0035909284
0.0035768375
0.0035619423
0.003546249
0.0035297593
0.0035124811
0.0034943968
0.0034754637
0.0034556489
0.0034349133
0.0034132241
0.0033905452
0.0033668341
0.0033420578
0.0033161744
0.0032891172
0.0032608297
0.0032312582
0.0032003453
0.0031680453
0.0031343152
0.003099188
0.0030627269
0.0030248965
0.0029856983
0.0029451545
0.0029033674
0.0028605374
0.0028169974
0.0027734996
0.002731043
0.0026905049
0.0026529161
0.0026197004
0.0025924129
0.0025729509
0.0025632191
0.0025679621
0.0025910434
0.0026334809
0.002698157
0.0027870744
0.0029003485
0.0030363607
0.0031924726
0.0033671448
0.0035389001
0.0036726341
0.0037523492
0.0037794656
0.003752975
0.0036806321
0.0035808624
0.0034653546
0.003338586
0.003200896
0.0030555089
0.0029050665
0.0027546571
0.0026076059
0.002462712
0.0023194368
0.0021794973
0.0020411706
0.0019032065
0.0017676947
0.001635577
0.0015051941
0.0013761528
0.0012504882
0.0011299265
0.0010135851
0.00090052394
0.00079200502
0.0006929219
0.00060056087
0.00054035026
0.00045549514
0.00062250247
-0.00047920869
0.011796176
0.01189771
0.012113465
0.012389468
0.012723793
0.013116649
0.01356629
0.014071976
0.014635021
0.015258617
0.015947727
0.016709415
0.017553455
0.018493622
0.019548771
0.020747604
0.022127422
0.02376104
0.025715936
0.028261634
0.0313804
0.036680231
0.041971441
0.081492187
0.051780257
0.001913014
0.00059852038
0.001544859
0.0021222078
0.0025986537
0.0028852632
0.0030893125
0.0032483391
0.003363864
0.0034477169
0.0035106401
0.0035584447
0.0035948933
0.0036224975
0.003643213
0.0036585379
0.0036694843
0.0036768142
0.0036811832
0.0036830653
0.0036827839
0.0036806375
0.0036768574
0.0036716506
0.0036651714
0.0036575034
0.0036487463
0.0036389862
0.0036282792
0.0036166916
0.003604258
0.0035909817
0.0035768877
0.0035619897
0.0035462938
0.0035298017
0.0035125213
0.0034944348
0.0034754998
0.0034556831
0.0034349459
0.003413255
0.0033905746
0.0033668621
0.0033420845
0.0033161997
0.0032891413
0.0032608527
0.0032312801
0.0032003662
0.0031680652
0.0031343341
0.003099206
0.0030627441
0.0030249128
0.0029857139
0.0029451693
0.0029033815
0.0028605507
0.00281701
0.0027735115
0.0027310543
0.0026905156
0.002652926
0.0026197097
0.0025924216
0.002572959
0.0025632265
0.0025679689
0.0025910496
0.0026334864
0.0026981618
0.0027870785
0.0029003518
0.0030363633
0.0031924745
0.003367146
0.0035389006
0.003672634
0.0037523485
0.0037794646
0.0037529737
0.0036806307
0.003580861
0.0034653534
0.0033385849
0.003200895
0.0030555081
0.0029050659
0.0027546566
0.0026076055
0.0024627117
0.0023194367
0.0021794973
0.0020411706
0.0019032066
0.001767695
0.0016355773
0.0015051945
0.0013761532
0.0012504887
0.001129927
0.0010135856
0.00090052444
0.00079200554
0.00069292246
0.00060056145
0.00054035097
0.00045549589
0.00062250328
-0.00047920819
0.011796176
0.01189771
0.012113465
0.012389469
0.012723794
0.01311665
0.013566292
0.014071978
0.014635024
0.015258621
0.015947732
0.016709421
0.017553463
0.018493633
0.019548785
0.020747623
0.022127448
0.023761076
0.025715986
0.028261719
0.031380515
0.03668047
0.041971608
0.08146758
0.051819343
0.0019323476
0.00060446186
0.0015476935
0.0021239289
0.0025998574
0.0028861683
0.0030900288
0.0032489235
0.0033643517
0.0034481317
0.0035109983
0.0035587575
0.0035951693
0.0036227429
0.0036434329
0.0036587362
0.003669664
0.0036769779
0.0036813328
0.0036832027
0.0036829105
0.0036807545
0.0036769658
0.0036717514
0.0036652652
0.0036575909
0.0036488282
0.0036390628
0.0036283511
0.0036167592
0.0036043216
0.0035910416
0.0035769443
0.0035620431
0.0035463443
0.0035298495
0.0035125666
0.0034944777
0.0034755405
0.0034557218
0.0034349826
0.0034132899
0.0033906078
0.0033668937
0.0033421145
0.0033162283
0.0032891685
0.0032608786
0.0032313048
0.0032003897
0.0031680876
0.0031343554
0.0030992264
0.0030627634
0.0030249312
0.0029857314
0.0029451859
0.0029033972
0.0028605657
0.0028170242
0.0027735249
0.002731067
0.0026905275
0.0026529372
0.0026197202
0.0025924313
0.002572968
0.0025632348
0.0025679765
0.0025910564
0.0026334925
0.002698167
0.0027870829
0.0029003554
0.003036366
0.0031924765
0.0033671471
0.0035389009
0.0036726336
0.0037523475
0.0037794631
0.003752972
0.0036806289
0.0035808593
0.0034653518
0.0033385835
0.0032008938
0.0030555072
0.0029050651
0.002754656
0.0026076051
0.0024627115
0.0023194366
0.0021794973
0.0020411707
0.0019032068
0.0017676952
0.0016355776
0.0015051948
0.0013761536
0.0012504891
0.0011299275
0.0010135861
0.00090052501
0.00079200614
0.00069292311
0.00060056212
0.00054035179
0.00045549675
0.00062250421
-0.00047920762
0.011796176
0.011897711
0.012113466
0.01238947
0.012723795
0.013116652
0.013566294
0.01407198
0.014635027
0.015258625
0.015947737
0.016709427
0.017553472
0.018493645
0.019548801
0.020747644
0.022127477
0.023761118
0.025716043
0.028261816
0.031380646
0.036680741
0.04197181
0.081438368
0.051860817
0.0019540928
0.000611141
0.0015508822
0.0021258669
0.002601213
0.0028871878
0.0030908357
0.0032495818
0.0033649012
0.003448599
0.0035114018
0.00355911
0.0035954802
0.0036230195
0.0036436807
0.0036589596
0.0036698665
0.0036771623
0.0036815016
0.0036833576
0.0036830532
0.0036808864
0.003677088
0.0036718649
0.0036653709
0.0036576896
0.0036489205
0.0036391493
0.0036284323
0.0036168354
0.0036043934
0.0035911092
0.0035770081
0.0035621033
0.0035464013
0.0035299034
0.0035126176
0.0034945261
0.0034755864
0.0034557654
0.003435024
0.0034133292
0.0033906452
0.0033669293
0.0033421483
0.0033162605
0.0032891992
0.0032609078
0.0032313326
0.0032004162
0.0031681128
0.0031343795
0.0030992492
0.0030627852
0.0030249519
0.0029857511
0.0029452046
0.002903415
0.0028605825
0.0028170402
0.00277354
0.0027310812
0.0026905409
0.0026529498
0.0026197319
0.0025924422
0.0025729781
0.002563244
0.0025679849
0.0025910639
0.0026334991
0.0026981727
0.0027870876
0.0029003592
0.0030363689
0.0031924783
0.003367148