/*--------------------------------*- C++ -*----------------------------------*\
| =========                 |                                                 |
| \\      /  F ield         | OpenFOAM: The Open Source CFD Toolbox           |
|  \\    /   O peration     | Version:  2206                                  |
|   \\  /    A nd           | Website:  www.openfoam.com                      |
|    \\/     M anipulation  |                                                 |
\*---------------------------------------------------------------------------*/
FoamFile
{
    version     2.0;
    format      ascii;
    arch        "LSB;label=32;scalar=64";
    class       surfaceScalarField;
    location    "200";
    object      phi;
}
// * * * * * * * * * * * * * * * * * * * * * * * * * * * * * * * * * * * * * //

dimensions      [0 3 -1 0 0 0 0];

oriented        oriented;

internalField   nonuniform List<scalar> 
25880
(
2.0046466e-06
7.5059663e-12
2.0046297e-06
1.6955038e-11
2.0046092e-06
2.0535146e-11
2.004586e-06
2.3149252e-11
2.0045593e-06
2.6681745e-11
2.0045284e-06
3.0890286e-11
2.0044926e-06
3.5786593e-11
2.0044511e-06
4.1569158e-11
2.0044026e-06
4.8486592e-11
2.0043458e-06
5.6835505e-11
2.0042787e-06
6.7003284e-11
2.0041992e-06
7.9554072e-11
2.0041039e-06
9.5261579e-11
2.0039885e-06
1.1547498e-10
2.0038467e-06
1.4173866e-10
2.0036682e-06
1.7848835e-10
2.003441e-06
2.2723253e-10
2.0031301e-06
3.1091266e-10
2.0027213e-06
4.0882139e-10
2.002036e-06
6.8528863e-10
2.0011614e-06
8.74547e-10
1.9989647e-06
2.1967387e-09
1.9984896e-06
4.7505531e-10
1.0032606e-06
9.9522906e-07
4.4460099e-09
9.9881456e-07
2.1591982e-09
2.2868118e-09
1.653863e-09
5.053352e-10
1.412192e-09
2.4167098e-10
1.2652501e-09
1.4694187e-10
1.1616295e-09
1.0362059e-10
1.0830746e-09
7.855492e-11
1.0203206e-09
6.2753973e-11
9.686337e-10
5.1686893e-11
9.250816e-10
4.3552097e-11
8.8766931e-10
3.7412285e-11
8.5503719e-10
3.2632123e-11
8.2623058e-10
2.8806608e-11
8.0054642e-10
2.5684154e-11
7.774485e-10
2.3097915e-11
7.565204e-10
2.0928102e-11
7.3743476e-10
1.9085639e-11
7.1992935e-10
1.7505406e-11
7.0379093e-10
1.6138412e-11
6.8884498e-10
1.4945954e-11
6.7494618e-10
1.3898798e-11
6.619725e-10
1.2973678e-11
6.4982106e-10
1.215144e-11
6.3840393e-10
1.141713e-11
6.2764593e-10
1.0757999e-11
6.1748209e-10
1.0163834e-11
6.0785574e-10
9.6263508e-12
5.9871735e-10
9.138389e-12
5.9002352e-10
8.6938241e-12
5.8173601e-10
8.2875094e-12
5.7382103e-10
7.9149787e-12
5.6624852e-10
7.5725162e-12
5.5899146e-10
7.2570561e-12
5.5202564e-10
6.9658127e-12
5.4532936e-10
6.6962864e-12
5.3888297e-10
6.4463829e-12
5.3266875e-10
6.2142219e-12
5.2667075e-10
5.9979985e-12
5.2087451e-10
5.796238e-12
5.1526665e-10
5.6078614e-12
5.0983484e-10
5.4318073e-12
5.0456787e-10
5.2669705e-12
4.9945551e-10
5.1123618e-12
4.9448837e-10
4.9671387e-12
4.896578e-10
4.8305681e-12
4.8495595e-10
4.701854e-12
4.8037565e-10
4.5802966e-12
4.7591023e-10
4.4654179e-12
4.7155351e-10
4.3567195e-12
4.6729983e-10
4.253676e-12
4.6314399e-10
4.1558446e-12
4.5908116e-10
4.0628242e-12
4.5510686e-10
3.9742997e-12
4.5121696e-10
3.8898976e-12
4.4740801e-10
3.8089491e-12
4.4367718e-10
3.7308305e-12
4.4002189e-10
3.6552964e-12
4.3643969e-10
3.5821925e-12
4.3292853e-10
3.5111586e-12
4.2948687e-10
3.441669e-12
4.2611361e-10
3.3732543e-12
4.2280827e-10
3.305341e-12
4.1957159e-10
3.2366829e-12
4.1640559e-10
3.1659962e-12
4.1331272e-10
3.0928678e-12
4.1029566e-10
3.0170593e-12
4.0735766e-10
2.9380013e-12
4.0450229e-10
2.8553703e-12
4.0173496e-10
2.7673357e-12
3.9906293e-10
2.6720226e-12
3.9649712e-10
2.5658198e-12
3.9405289e-10
2.444224e-12
3.9174696e-10
2.3059387e-12
3.8959702e-10
2.1499382e-12
3.8762172e-10
1.9752981e-12
3.8584108e-10
1.7806451e-12
3.842776e-10
1.5634818e-12
3.8295704e-10
1.3205655e-12
3.8190406e-10
1.0529893e-12
3.8113228e-10
7.7177575e-13
3.8063946e-10
4.9283444e-13
3.8040382e-10
2.356378e-13
3.8038901e-10
1.482191e-14
3.805524e-10
-1.6338471e-13
3.8084692e-10
-2.9452275e-13
3.8122631e-10
-3.7937863e-13
3.8164963e-10
-4.2331607e-13
3.8208441e-10
-4.3477713e-13
3.8250634e-10
-4.2193663e-13
3.8287946e-10
-3.7311737e-13
3.8318241e-10
-3.029448e-13
3.8340728e-10
-2.2486832e-13
3.835491e-10
-1.4182207e-13
3.8360703e-10
-5.7925901e-14
3.8358432e-10
2.2711137e-14
3.8348812e-10
9.6200856e-14
3.8332769e-10
1.6042685e-13
3.8311257e-10
2.1512266e-13
3.8285153e-10
2.6103496e-13
3.8255208e-10
2.9944963e-13
3.8221999e-10
3.3208845e-13
3.8185917e-10
3.6082163e-13
3.8147278e-10
3.8639555e-13
3.8106374e-10
4.0903746e-13
3.8063223e-10
4.3150985e-13
3.8017935e-10
4.5287932e-13
3.796905e-10
4.8885339e-13
3.7918437e-10
5.0612112e-13
3.7855186e-10
6.3250933e-13
3.7788608e-10
6.6578396e-13
3.7717901e-10
7.0707161e-13
4.3898906e-13
2.0345203e-06
1.528891e-11
2.0345027e-06
3.4548091e-11
2.0344814e-06
4.185349e-11
2.0344573e-06
4.7182454e-11
2.0344296e-06
5.4381436e-11
2.0343976e-06
6.2954562e-11
2.0343604e-06
7.292468e-11
2.0343173e-06
8.4696389e-11
2.034267e-06
9.877579e-11
2.0342081e-06
1.157659e-10
2.0341386e-06
1.3645405e-10
2.0340562e-06
1.6198692e-10
2.0339575e-06
1.9393688e-10
2.033838e-06
2.3504627e-10
2.0336912e-06
2.8845212e-10
2.0335066e-06
3.6317085e-10
2.0332715e-06
4.62256e-10
2.0329501e-06
6.3233943e-10
2.0325277e-06
8.3127165e-10
2.03182e-06
1.3929861e-09
2.030917e-06
1.7775425e-09
2.0286498e-06
4.4638934e-09
2.0281562e-06
9.6869399e-10
1.0246346e-06
1.9987506e-06
1.356478e-08
2.0098844e-06
6.6061648e-09
9.2454276e-09
5.0600834e-09
2.0514165e-09
4.3205249e-09
9.8122949e-10
3.8708181e-09
5.9664862e-10
3.5536836e-09
4.2075513e-10
3.3132644e-09
3.1897413e-10
3.1212058e-09
2.5481255e-10
2.9630171e-09
2.0987557e-10
2.8297248e-09
1.7684441e-10
2.7152235e-09
1.5191358e-10
2.6153518e-09
1.3250376e-10
2.527188e-09
1.1697039e-10
2.4485804e-09
1.0429182e-10
2.3778877e-09
9.3790532e-11
2.3138357e-09
8.4980123e-11
2.2554224e-09
7.7498907e-11
2.2018454e-09
7.1082462e-11
2.1524519e-09
6.5531852e-11
2.1067079e-09
6.0689947e-11
2.0641688e-09
5.6437992e-11
2.0244609e-09
5.2681571e-11
1.9872694e-09
4.9342924e-11
1.9523252e-09
4.6361263e-11
1.9193984e-09
4.3684871e-11
1.8882899e-09
4.127227e-11
1.8588265e-09
3.9089817e-11
1.8308564e-09
3.7108442e-11
1.8042469e-09
3.5303276e-11
1.778881e-09
3.3653422e-11
1.7546553e-09
3.2140745e-11
1.7314776e-09
3.0750159e-11
1.7092655e-09
2.9469212e-11
1.6879447e-09
2.8286594e-11
1.6674488e-09
2.7192157e-11
1.6477178e-09
2.6177397e-11
1.6286973e-09
2.5234678e-11
1.6103387e-09
2.4356673e-11
1.5925975e-09
2.3537392e-11
1.5754329e-09
2.2772455e-11
1.5588072e-09
2.2057552e-11
1.5426859e-09
2.1388193e-11
1.5270379e-09
2.0760364e-11
1.5118344e-09
2.0170643e-11
1.4970489e-09
1.9616052e-11
1.4826574e-09
1.9093359e-11
1.468638e-09
1.8599723e-11
1.4549702e-09
1.81332e-11
1.4416352e-09
1.7691767e-11
1.4286156e-09
1.7273289e-11
1.4158954e-09
1.6875968e-11
1.4034601e-09
1.6498172e-11
1.3912958e-09
1.6138623e-11
1.3793899e-09
1.5795799e-11
1.3677318e-09
1.5466987e-11
1.356313e-09
1.5149646e-11
1.3451255e-09
1.4842777e-11
1.334162e-09
1.4545754e-11
1.323416e-09
1.4257109e-11
1.312883e-09
1.3974703e-11
1.3025596e-09
1.3696617e-11
1.2924444e-09
1.3420517e-11
1.2825398e-09
1.314134e-11
1.2728519e-09
1.2853852e-11
1.2633884e-09
1.2556364e-11
1.2541576e-09
1.2247904e-11
1.2451695e-09
1.1926141e-11
1.2364351e-09
1.1589732e-11
1.2279711e-09
1.1231367e-11
1.2198e-09
1.0843069e-11
1.2119555e-09
1.0410341e-11
1.2044846e-09
9.9150757e-12
1.1974389e-09
9.3516705e-12
1.1908728e-09
8.7160887e-12
1.1848435e-09
8.0046016e-12
1.1794125e-09
7.2116283e-12
1.174649e-09
6.3269929e-12
1.1706317e-09
5.3378016e-12
1.1674359e-09
4.2488369e-12
1.1651031e-09
3.1046135e-12
1.1636261e-09
1.9698273e-12
1.1629372e-09
9.2448718e-13
1.1629239e-09
2.8209147e-14
1.1634546e-09
-6.9417147e-13
1.1643845e-09
-1.2243602e-12
1.1655709e-09
-1.5657679e-12
1.1668883e-09
-1.7407122e-12
1.1682374e-09
-1.7838628e-12
1.169544e-09
-1.7285699e-12
1.1706979e-09
-1.5269776e-12
1.171634e-09
-1.2390799e-12
1.1723289e-09
-9.1975785e-13
1.1727679e-09
-5.808055e-13
1.1729488e-09
-2.3884371e-13
1.1728819e-09
8.9624345e-14
1.1725892e-09
3.8889391e-13
1.1720992e-09
6.5038695e-13
1.1714413e-09
8.7307523e-13
1.1706423e-09
1.0600366e-12
1.1697253e-09
1.2164774e-12
1.168708e-09
1.3493668e-12
1.1676025e-09
1.4663297e-12
1.1664184e-09
1.5704387e-12
1.1651649e-09
1.662617e-12
1.1638423e-09
1.7540496e-12
1.1624543e-09
1.8409389e-12
1.1609559e-09
1.9871619e-12
1.1594048e-09
2.0572564e-12
1.1574664e-09
2.5709419e-12
1.1554275e-09
2.7046809e-12
1.1532533e-09
2.8812339e-12
1.7731904e-12
2.0947129e-06
2.3490969e-11
2.0946943e-06
5.3103287e-11
2.0946718e-06
6.4350242e-11
2.0946465e-06
7.2545366e-11
2.0946172e-06
8.3612598e-11
2.0945834e-06
9.6786452e-11
2.0945442e-06
1.1210032e-10
2.0944987e-06
1.3017633e-10
2.0944457e-06
1.5179159e-10
2.0943836e-06
1.7787075e-10
2.0943105e-06
2.0962065e-10
2.0942236e-06
2.4879914e-10
2.0941198e-06
2.978162e-10
2.0939939e-06
3.6087581e-10
2.0938396e-06
4.4278353e-10
2.0936454e-06
5.5736206e-10
2.0933984e-06
7.0927104e-10
2.0930607e-06
9.6999982e-10
2.0926172e-06
1.2748295e-09
2.0918746e-06
2.1355532e-09
2.0909273e-06
2.7248215e-09
2.0885501e-06
6.8411639e-09
2.0880297e-06
1.4890926e-09
1.0616658e-06
3.0251145e-06
2.3453603e-08
3.0480966e-06
1.1447296e-08
2.1251735e-08
8.7679772e-09
4.7307352e-09
7.486137e-09
2.2630696e-09
6.7065879e-09
1.3761977e-09
6.1568367e-09
9.7050641e-10
5.7400665e-09
7.3574427e-10
5.4071306e-09
5.8774842e-10
5.1329068e-09
4.8409938e-10
4.9018401e-09
4.0791115e-10
4.7033473e-09
3.5040636e-10
4.5302148e-09
3.056363e-10
4.3773775e-09
2.6980764e-10
4.2411055e-09
2.4056384e-10
4.118554e-09
2.1634204e-10
4.0075138e-09
1.9602034e-10
3.9062482e-09
1.7876449e-10
3.8133661e-09
1.6396457e-10
3.7277362e-09
1.5116172e-10
3.6484326e-09
1.3999357e-10
3.5746845e-09
1.3018605e-10
3.5058446e-09
1.2152156e-10
3.4413667e-09
1.1382075e-10
3.3807848e-09
1.0694324e-10
3.3236997e-09
1.0076988e-10
3.2697671e-09
9.5204961e-11
3.218686e-09
9.0170888e-11
3.1701938e-09
8.5600608e-11
3.1240603e-09
8.1436764e-11
3.0800826e-09
7.7631154e-11
3.0380814e-09
7.4141951e-11
2.9978972e-09
7.0934355e-11
2.9593868e-09
6.7979645e-11
2.9224216e-09
6.5251737e-11
2.8868866e-09
6.2727221e-11
2.8526775e-09
6.0386483e-11
2.8197002e-09
5.8211912e-11
2.7878703e-09
5.6186606e-11
2.7571109e-09
5.4296751e-11
2.7273512e-09
5.2532238e-11
2.6985256e-09
5.0883126e-11
2.6705747e-09
4.9339066e-11
2.6434443e-09
4.789079e-11
2.6170845e-09
4.6530406e-11
2.5914495e-09
4.5251044e-11
2.5664976e-09
4.4045253e-11
2.5421909e-09
4.2906473e-11
2.5184939e-09
4.183022e-11
2.4953738e-09
4.0811821e-11
2.4728008e-09
3.9846355e-11
2.4507471e-09
3.8929667e-11
2.4291872e-09
3.8057993e-11
2.4080975e-09
3.7228377e-11
2.387456e-09
3.6437312e-11
2.3672444e-09
3.5678523e-11
2.3474479e-09
3.4946135e-11
2.3280529e-09
3.4237845e-11
2.3090464e-09
3.3552204e-11
2.2904177e-09
3.2885817e-11
2.2721587e-09
3.2233729e-11
2.2542638e-09
3.1591486e-11
2.2367306e-09
3.0953691e-11
2.2195634e-09
3.030863e-11
2.202773e-09
2.9644192e-11
2.1863729e-09
2.8956454e-11
2.1703777e-09
2.8243158e-11
2.1548049e-09
2.7498886e-11
2.1396742e-09
2.6720455e-11
2.1250145e-09
2.5891105e-11
2.1108655e-09
2.4992052e-11
2.0972859e-09
2.3989886e-11
2.0843581e-09
2.2842961e-11
2.0721717e-09
2.1538011e-11
2.0608219e-09
2.0065867e-11
2.0504086e-09
1.8417944e-11
2.0410389e-09
1.6581365e-11
2.0328331e-09
1.4532793e-11
2.0259277e-09
1.2243132e-11
2.0204531e-09
9.7235061e-12
2.016481e-09
7.0766532e-12
2.0139978e-09
4.4530156e-12
2.0128835e-09
2.0388206e-12
2.0129394e-09
-2.7709036e-14
2.013935e-09
-1.6897564e-12
2.0156163e-09
-2.9056129e-12
2.0177344e-09
-3.6839101e-12
2.0200712e-09
-4.0774871e-12
2.0224546e-09
-4.1672783e-12
2.0247567e-09
-4.0306855e-12
2.0267859e-09
-3.5561267e-12
2.0284303e-09
-2.8835657e-12
2.029651e-09
-2.1404595e-12
2.0304239e-09
-1.3536988e-12
2.0307463e-09
-5.6117762e-13
2.0306364e-09
1.9944901e-13
2.0301332e-09
8.9215964e-13
2.0292862e-09
1.497317e-12
2.0281466e-09
2.012713e-12
2.0267612e-09
2.4454852e-12
2.02517e-09
2.8075977e-12
2.0234042e-09
3.1151538e-12
2.0214848e-09
3.3858247e-12
2.0194284e-09
3.6267497e-12
2.017251e-09
3.8400207e-12
2.0149537e-09
4.0514261e-12
2.0125424e-09
4.2522284e-12
2.0099396e-09
4.589959e-12
2.007245e-09
4.7518374e-12
2.0038783e-09
5.9376379e-12
2.0003382e-09
6.2447651e-12
1.9965564e-09
6.6630812e-12
4.0827433e-12
2.1861214e-06
3.2271075e-11
2.1861016e-06
7.2983855e-11
2.1860774e-06
8.8469025e-11
2.1860503e-06
9.9738473e-11
2.1860189e-06
1.1495174e-10
2.1859826e-06
1.3305209e-10
2.1859407e-06
1.5408283e-10
2.1858919e-06
1.7889926e-10
2.1858352e-06
2.0856825e-10
2.1857687e-06
2.4435726e-10
2.1856904e-06
2.8791997e-10
2.1855975e-06
3.4166529e-10
2.1854864e-06
4.0889518e-10
2.1853519e-06
4.9537074e-10
2.185187e-06
6.0767223e-10
2.1849797e-06
7.6474315e-10
2.184716e-06
9.7293687e-10
2.1843558e-06
1.3302268e-09
2.1838828e-06
1.7477656e-09
2.1830917e-06
2.9267277e-09
2.1820826e-06
3.7338703e-09
2.1795516e-06
9.3721648e-09
2.1789942e-06
2.0465206e-09
1.1152132e-06
4.0888955e-06
3.4697395e-08
4.1286124e-06
1.6971498e-08
3.8977631e-08
1.2998457e-08
8.703777e-09
1.1097373e-08
4.1641529e-09
9.9410456e-09
2.5325254e-09
9.1255667e-09
1.7859853e-09
8.5073326e-09
1.3539783e-09
8.0134557e-09
1.0816253e-09
7.6066684e-09
8.9088668e-10
7.2638974e-09
7.5068216e-10
6.9694448e-09
6.4485894e-10
6.7126104e-09
5.6247073e-10
6.485881e-09
4.9653707e-10
6.2837235e-09
4.4272129e-10
6.1019184e-09
3.9814719e-10
5.9371886e-09
3.6075015e-10
5.7869581e-09
3.28995e-10
5.6491633e-09
3.0175932e-10
5.5221263e-09
2.7819869e-10
5.4044735e-09
2.5764634e-10
5.2950619e-09
2.3959768e-10
5.1929309e-09
2.2365256e-10
5.0972707e-09
2.0948096e-10
5.0073897e-09
1.9682422e-10
4.9226962e-09
1.8546337e-10
4.842679e-09
1.7522219e-10
4.766892e-09
1.6595789e-10
4.6949455e-09
1.5754707e-10
4.6264981e-09
1.498842e-10
4.5612487e-09
1.4288057e-10
4.4989314e-09
1.3645921e-10
4.4393097e-09
1.3055607e-10
4.3821711e-09
1.251183e-10
4.3273249e-09
1.200979e-10
4.2746003e-09
1.154518e-10
4.2238429e-09
1.1114389e-10
4.1749131e-09
1.0714178e-10
4.1276853e-09
1.0341434e-10
4.0820459e-09
9.9936166e-11
4.0378895e-09
9.6688643e-11
3.9951191e-09
9.3653485e-11
3.9536466e-09
9.0811638e-11
3.9133913e-09
8.8146051e-11
3.8742795e-09
8.5642195e-11
3.8362431e-09
8.3287426e-11
3.7992204e-09
8.1068029e-11
3.7631549e-09
7.8971927e-11
3.7279943e-09
7.6990859e-11
3.6936899e-09
7.5116224e-11
3.6601973e-09
7.3338957e-11
3.6274755e-09
7.1651406e-11
3.5954869e-09
7.0046636e-11
3.5641961e-09
6.8519202e-11
3.5335707e-09
6.706264e-11
3.5035839e-09
6.5665365e-11
3.4742135e-09
6.4316534e-11
3.4454394e-09
6.3011912e-11
3.4172428e-09
6.1748817e-11
3.3896076e-09
6.0520985e-11
3.3625221e-09
5.9319254e-11
3.3359782e-09
5.8135365e-11
3.3099726e-09
5.6959333e-11
3.2845117e-09
5.5769509e-11
3.2596124e-09
5.4543505e-11
3.2352948e-09
5.3274059e-11
3.211581e-09
5.1956954e-11
3.1884978e-09
5.058213e-11
3.1660747e-09
4.9143557e-11
3.1443552e-09
4.7610514e-11
3.1233997e-09
4.5947647e-11
3.1032961e-09
4.4093423e-11
3.0841677e-09
4.1971402e-11
3.0661492e-09
3.9556465e-11
3.0493831e-09
3.6832003e-11
3.0340188e-09
3.3782266e-11
3.0202165e-09
3.0383596e-11
3.008156e-09
2.6593375e-11
2.9980399e-09
2.2359175e-11
2.9900614e-09
1.7701985e-11
2.9843263e-09
1.2811828e-11
2.9808108e-09
7.9684629e-12
2.9793312e-09
3.5184792e-12
2.9795854e-09
-2.8198477e-13
2.9812253e-09
-3.3296664e-12
2.9838689e-09
-5.5491768e-12
2.9871434e-09
-6.9584401e-12
2.9907239e-09
-7.6579675e-12
2.9943556e-09
-7.7989771e-12
2.9978501e-09
-7.5251542e-12
3.0009221e-09
-6.6281437e-12
3.0034079e-09
-5.3694062e-12
3.0052532e-09
-3.9856746e-12
3.0064251e-09
-2.5256152e-12
3.0069218e-09
-1.0578537e-12
3.0067719e-09
3.4927158e-13
3.0060341e-09
1.6300175e-12
3.0047827e-09
2.7486476e-12
3.003094e-09
3.7014487e-12
3.0010379e-09
4.5016315e-12
2.9986743e-09
5.1711502e-12
2.9960497e-09
5.7397256e-12
2.9931955e-09
6.2400499e-12
2.9901369e-09
6.6853583e-12
2.9868975e-09
7.0794401e-12
2.9834791e-09
7.4697634e-12
2.9798911e-09
7.8403053e-12
2.9760181e-09
8.4629707e-12
2.9720083e-09
8.7615796e-12
2.9670002e-09
1.0945799e-11
2.9617348e-09
1.1510153e-11
2.9561045e-09
1.2293308e-11
7.5142682e-12
2.3101081e-06
4.1810166e-11
2.3100865e-06
9.460441e-11
2.3100603e-06
1.1471716e-10
2.3100307e-06
1.2933423e-10
2.3099966e-06
1.4905819e-10
2.3099571e-06
1.7251296e-10
2.3099114e-06
1.99751e-10
2.3098585e-06
2.3188133e-10
2.3097967e-06
2.7028514e-10
2.3097245e-06
3.1660066e-10
2.3096395e-06
3.7296439e-10
2.3095386e-06
4.4248892e-10
2.3094181e-06
5.2943983e-10
2.3092722e-06
6.4126113e-10
2.3090934e-06
7.8644787e-10
2.3088687e-06
9.8947866e-10
2.3085831e-06
1.2585171e-09
2.3081932e-06
1.7201632e-09
2.3076815e-06
2.2593934e-09
2.3068263e-06
3.7819441e-09
2.3057359e-06
4.8243218e-09
2.3030023e-06
1.2105782e-08
2.3023961e-06
2.6527175e-09
1.1864196e-06
5.204872e-06
4.7956865e-08
5.2670751e-06
2.3508314e-08
6.3426182e-08
1.800344e-08
1.4208652e-08
1.5368931e-08
6.7986621e-09
1.3766184e-08
4.1352724e-09
1.2635848e-08
2.9163212e-09
1.1778885e-08
2.2109411e-09
1.1094293e-08
1.7662176e-09
1.0530413e-08
1.4547661e-09
1.0055265e-08
1.2258304e-09
9.6470899e-09
1.0530339e-09
9.2910572e-09
9.1850344e-10
8.9767529e-09
8.108414e-10
8.6965076e-09
7.2296656e-10
8.4444726e-09
6.5018217e-10
8.2161059e-09
5.891169e-10
8.0078368e-09
5.3726409e-10
7.8168052e-09
4.927909e-10
7.6406853e-09
4.5431855e-10
7.4775733e-09
4.2075839e-10
7.3258848e-09
3.9128615e-10
7.1842885e-09
3.6524887e-10
7.0516618e-09
3.4210765e-10
6.9270463e-09
3.2143976e-10
6.8096216e-09
3.0288801e-10
6.6986793e-09
2.8616451e-10
6.5936011e-09
2.7103613e-10
6.4938467e-09
2.5730141e-10
6.3989429e-09
2.4478799e-10
6.3084725e-09
2.3335104e-10
6.2220668e-09
2.2286487e-10
6.1393979e-09
2.132249e-10
6.0601714e-09
2.0434483e-10
5.984123e-09
1.9614628e-10
5.9110159e-09
1.8855891e-10
5.840636e-09
1.8152378e-10
5.7727898e-09
1.7498797e-10
5.7073035e-09
1.6890069e-10
5.6440193e-09
1.632204e-10
5.5827912e-09
1.5791673e-10
5.5234848e-09
1.5295982e-10
5.4659779e-09
1.4831856e-10
5.4101589e-09
1.4396509e-10
5.3559254e-09
1.3987569e-10
5.3031831e-09
1.360297e-10
5.2518464e-09
1.3240472e-10
5.2018373e-09
1.2898102e-10
5.1530831e-09
1.257451e-10
5.1055164e-09
1.2268289e-10
5.0590758e-09
1.197796e-10
5.0137045e-09
1.170227e-10
4.9693503e-09
1.1440085e-10
4.9259643e-09
1.1190516e-10
4.8835019e-09
1.0952505e-10
4.8419257e-09
1.0724151e-10
4.8012055e-09
1.0503678e-10
4.7613135e-09
1.0290394e-10
4.7222237e-09
1.008386e-10
4.6839142e-09
9.8830488e-11
4.6463689e-09
9.6864549e-11
4.6095771e-09
9.4927181e-11
4.5735344e-09
9.3001956e-11
4.5382506e-09
9.1053308e-11
4.5037497e-09
8.9044476e-11
4.4700602e-09
8.6963521e-11
4.4372137e-09
8.4803418e-11
4.4052483e-09
8.2547541e-11
4.3742061e-09
8.0185762e-11
4.3441487e-09
7.7667977e-11
4.3151613e-09
7.4934981e-11
4.2873686e-09
7.1886152e-11
4.2609431e-09
6.8396855e-11
4.2360748e-09
6.4424795e-11
4.2129635e-09
5.9943315e-11
4.1918189e-09
5.4926826e-11
4.1728657e-09
4.9336831e-11
4.1563547e-09
4.3104379e-11
4.1425682e-09
3.6145725e-11
4.1317734e-09
2.8496704e-11
4.1241148e-09
2.0470482e-11
4.1195534e-09
1.2529826e-11
4.1178231e-09
5.2487805e-12
4.1184919e-09
-9.5077988e-13
4.1210656e-09
-5.9033468e-12
4.1250052e-09
-9.4887334e-12
4.1297875e-09
-1.1740744e-11
4.1349598e-09
-1.2830341e-11
4.14017e-09
-1.3009146e-11
4.1451593e-09
-1.2514457e-11
4.1495308e-09
-1.0999632e-11
4.1530612e-09
-8.8997931e-12
4.1556816e-09
-6.606092e-12
4.1573522e-09
-4.1962134e-12
4.1580742e-09
-1.7798514e-12
4.1578901e-09
5.333587e-13
4.1568829e-09
2.6372724e-12
4.1551571e-09
4.474413e-12
4.1528192e-09
6.0393936e-12
4.1499669e-09
7.3539321e-12
4.1466842e-09
8.4537999e-12
4.1430362e-09
9.3877203e-12
4.1390669e-09
1.0209398e-11
4.1348116e-09
1.0940623e-11
4.1303035e-09
1.1587496e-11
4.1255457e-09
1.2227584e-11
4.1205512e-09
1.2834833e-11
4.1151601e-09
1.3854065e-11
4.1095784e-09
1.4343307e-11
4.10261e-09
1.7914142e-11
4.0952844e-09
1.8835805e-11
4.0874459e-09
2.0131785e-11
1.2286738e-11
2.4685207e-06
5.231761e-11
2.4684968e-06
1.1844604e-10
2.4684679e-06
1.4368449e-10
2.4684352e-06
1.6199831e-10
2.4683975e-06
1.8669852e-10
2.468354e-06
2.1605403e-10
2.4683036e-06
2.5012543e-10
2.4682452e-06
2.903016e-10
2.4681772e-06
3.3830948e-10
2.4680976e-06
3.9619368e-10
2.4680039e-06
4.6661942e-10
2.467893e-06
5.5347006e-10
2.4677603e-06
6.6206613e-10
2.4675999e-06
8.01695e-10
2.4674034e-06
9.8294505e-10
2.4671565e-06
1.2363583e-09
2.466843e-06
1.5720568e-09
2.4664151e-06
2.1479995e-09
2.4658542e-06
2.8203737e-09
2.4649173e-06
4.7188303e-09
2.463723e-06
6.0185834e-09
2.4607311e-06
1.5097708e-08
2.4600625e-06
3.3213055e-09
1.2767474e-06
6.3881871e-06
6.4007103e-08
6.4798154e-06
3.1447524e-08
9.5985762e-08
2.4080776e-08
2.1575399e-08
2.0554548e-08
1.0324891e-08
1.8408812e-08
6.2810083e-09
1.6895488e-08
4.4296445e-09
1.5748115e-08
3.3583142e-09
1.4831512e-08
2.6828205e-09
1.407652e-08
2.2097584e-09
1.344032e-08
1.8620301e-09
1.2893785e-08
1.5995697e-09
1.2417058e-08
1.3952302e-09
1.1996198e-08
1.2317012e-09
1.1620937e-08
1.0982274e-09
1.1283445e-08
9.8767417e-10
1.0977641e-08
8.9492093e-10
1.0698745e-08
8.1616034e-10
1.0442927e-08
7.4860851e-10
1.0207075e-08
6.9017121e-10
9.9886379e-09
6.391951e-10
9.7854964e-09
5.9442772e-10
9.5958673e-09
5.5487789e-10
9.418248e-09
5.1972698e-10
9.2513552e-09
4.8833255e-10
9.0940907e-09
4.6015247e-10
8.945506e-09
4.3474931e-10
8.8047731e-09
4.1176896e-10
8.6711691e-09
3.9090546e-10
8.54406e-09
3.7189703e-10
8.4228874e-09
3.5452368e-10
8.3071577e-09
3.3859451e-10
8.196432e-09
3.2395062e-10
8.0903159e-09
3.1046095e-10
7.9884557e-09
2.9800647e-10
7.8905343e-09
2.8648033e-10
7.7962651e-09
2.75793e-10
7.705389e-09
2.658641e-10
7.6176732e-09
2.5661647e-10
7.5329066e-09
2.47987e-10
7.4508937e-09
2.3992957e-10
7.3714547e-09
2.3239883e-10
7.2944258e-09
2.2534751e-10
7.2196576e-09
2.1873329e-10
7.1470132e-09
2.1252011e-10
7.0763662e-09
2.066766e-10
7.0076022e-09
2.0116874e-10
6.9406167e-09
1.9596651e-10
6.8753125e-09
1.9104937e-10
6.8115994e-09
1.8639597e-10
6.7493952e-09
1.8198377e-10
6.6886242e-09
1.7779375e-10
6.6292164e-09
1.7380864e-10
6.5711066e-09
1.7001492e-10
6.5142352e-09
1.6639647e-10
6.4585525e-09
1.6292425e-10
6.4040181e-09
1.5957116e-10
6.3505953e-09
1.5632672e-10
6.2982497e-09
1.5318421e-10
6.2469523e-09
1.5012795e-10
6.1966819e-09
1.4713492e-10
6.1474248e-09
1.4418423e-10
6.0991761e-09
1.4125069e-10
6.0519496e-09
1.3827984e-10
6.0057786e-09
1.3521546e-10
5.9607028e-09
1.3203928e-10
5.9167659e-09
1.2874035e-10
5.8740204e-09
1.2529303e-10
5.8325246e-09
1.2168152e-10
5.7923631e-09
1.178295e-10
5.7536535e-09
1.1364456e-10
5.7165661e-09
1.0897357e-10
5.6813358e-09
1.0362715e-10
5.6482216e-09
9.753899e-11
5.6174956e-09
9.0669342e-11
5.5894428e-09
8.2979624e-11
5.5643679e-09
7.4411693e-11
5.5426104e-09
6.4861954e-11
5.5245498e-09
5.4206255e-11
5.510544e-09
4.2502519e-11
5.5007816e-09
3.0232879e-11
5.4952001e-09
1.8111392e-11
5.4934235e-09
7.0253706e-12
5.4948505e-09
-2.3778224e-12
5.4988005e-09
-9.8532781e-12
5.5045357e-09
-1.5223961e-11
5.5113452e-09
-1.8550218e-11
5.5186195e-09
-2.0104639e-11
5.5258885e-09
-2.0278174e-11
5.5328104e-09
-1.9436344e-11
5.5388512e-09
-1.7040421e-11
5.5437181e-09
-1.3766743e-11
5.5473301e-09
-1.0218078e-11
5.5496429e-09
-6.5089642e-12
5.5506645e-09
-2.8015366e-12
5.5504566e-09
7.413492e-13
5.549133e-09
3.9607976e-12
5.5468362e-09
6.7711991e-12
5.54371e-09
9.1655914e-12
5.5398868e-09
1.1177219e-11
5.5354802e-09
1.2860323e-11
5.5305787e-09
1.4289292e-11
5.5252418e-09
1.5546261e-11
5.5195178e-09
1.666463e-11
5.5134517e-09
1.7653545e-11
5.5070484e-09
1.8630974e-11
5.5003257e-09
1.9557535e-11
5.4930693e-09
2.1110441e-11
5.4855558e-09
2.1856768e-11
5.4761813e-09
2.7288699e-11
5.4663267e-09
2.8690411e-11
5.4557761e-09
3.0682306e-11
1.8706566e-11
2.6637197e-06
6.4039126e-11
2.663693e-06
1.4507501e-10
2.6636606e-06
1.7606667e-10
2.6636241e-06
1.98516e-10
2.6635821e-06
2.2877691e-10
2.6635334e-06
2.6471867e-10
2.6634771e-06
3.0640854e-10
2.6634119e-06
3.555481e-10
2.6633359e-06
4.1424935e-10
2.6632471e-06
4.8500782e-10
2.6631426e-06
5.7107486e-10
2.6630189e-06
6.7718842e-10
2.6628712e-06
8.0983817e-10
2.6626925e-06
9.803553e-10
2.6624738e-06
1.2016445e-09
2.6621992e-06
1.5109716e-09
2.6618506e-06
1.9206007e-09
2.6613754e-06
2.6232645e-09
2.6607527e-06
3.4430887e-09
2.6597137e-06
5.7578113e-09
2.6583897e-06
7.3426023e-09
2.6550751e-06
1.8412306e-08
2.654328e-06
4.0683321e-09
1.3880232e-06
7.6544919e-06
8.3781694e-08
7.7840569e-06
4.1262325e-08
1.3850513e-07
3.15919e-08
3.1245824e-08
2.6961996e-08
1.4954795e-08
2.4143913e-08
9.0990904e-09
2.2156334e-08
6.4172237e-09
2.0649311e-08
4.8653375e-09
1.944537e-08
3.8867617e-09
1.8453681e-08
3.2014469e-09
1.7618009e-08
2.6977024e-09
1.6900097e-08
2.3174813e-09
1.6273872e-08
2.0214561e-09
1.5721021e-08
1.7845523e-09
1.5228059e-08
1.5911891e-09
1.4784702e-08
1.4310305e-09
1.4382965e-08
1.296658e-09
1.4016569e-08
1.1825562e-09
1.3680486e-08
1.084692e-09
1.3370625e-08
1.0000317e-09
1.308364e-08
9.2618021e-10
1.2816745e-08
8.6132304e-10
1.2567598e-08
8.0402449e-10
1.2334227e-08
7.5309857e-10
1.2114945e-08
7.0761441e-10
1.190831e-08
6.6678702e-10
1.1713077e-08
6.2998247e-10
1.1528158e-08
5.9668784e-10
1.1352604e-08
5.664599e-10
1.1185582e-08
5.3891942e-10
1.1026357e-08
5.1374772e-10
1.0874284e-08
4.9066823e-10
1.0728784e-08
4.6945071e-10
1.0589339e-08
4.4990533e-10
1.0455486e-08
4.3185965e-10
1.0326808e-08
4.1515888e-10
1.0202927e-08
3.9967331e-10
1.0083505e-08
3.8528648e-10
9.9682347e-09
3.7188661e-10
9.8568395e-09
3.5938224e-10
9.7490625e-09
3.4770654e-10
9.6446675e-09
3.3679384e-10
9.5434394e-09
3.2657565e-10
9.445182e-09
3.1699062e-10
9.3497156e-09
3.0798651e-10
9.2568744e-09
2.9951786e-10
9.1665078e-09
2.9153533e-10
9.0784789e-09
2.8399542e-10
8.9926599e-09
2.7686832e-10
8.9089328e-09
2.7012305e-10
8.8271897e-09
2.6372694e-10
8.7473311e-09
2.5765235e-10
8.6692655e-09
2.5187423e-10
8.5929074e-09
2.4637298e-10
8.5181787e-09
2.4112514e-10
8.4450146e-09
2.3608833e-10
8.3733627e-09
2.312231e-10
8.3031751e-09
2.2651429e-10
8.2344072e-09
2.219521e-10
8.1670215e-09
2.1751368e-10
8.100991e-09
2.131654e-10
8.0362986e-09
2.0887663e-10
7.9729389e-09
2.0461039e-10
7.9109318e-09
2.0028701e-10
7.8503228e-09
1.9582441e-10
7.7911663e-09
1.9119583e-10
7.7335217e-09
1.8638493e-10
7.6774608e-09
1.8135389e-10
7.6230631e-09
1.7607921e-10
7.5704431e-09
1.704495e-10
7.5197607e-09
1.6432696e-10
7.4712451e-09
1.5748923e-10
7.425211e-09
1.4966123e-10
7.3820063e-09
1.4074371e-10
7.3419953e-09
1.306803e-10
7.3055593e-09
1.1941562e-10
7.2731049e-09
1.0686617e-10
7.245083e-09
9.2883768e-11
7.2219959e-09
7.7293451e-11
7.2043125e-09
6.0185893e-11
7.1922732e-09
4.2272164e-11
7.1857782e-09
2.4606364e-11
7.1843024e-09
8.5012438e-12
7.187019e-09
-5.0944613e-12
7.193004e-09
-1.5838302e-11
7.2012636e-09
-2.3483482e-11
7.2108473e-09
-2.8133992e-11
7.2209501e-09
-3.0207415e-11
7.2309573e-09
-3.0285334e-11
7.2404271e-09
-2.8906164e-11
7.2486546e-09
-2.5267982e-11
7.2552654e-09
-2.0377516e-11
7.2601704e-09
-1.5123026e-11
7.2633257e-09
-9.6642508e-12
7.2647523e-09
-4.2281569e-12
7.2645379e-09
9.5573137e-13
7.2628373e-09
5.6613614e-12
7.2598408e-09
9.7677293e-12
7.2557396e-09
1.3266825e-11
7.2507096e-09
1.6207229e-11
7.2449025e-09
1.8667419e-11
7.2384359e-09
2.0755849e-11
7.2313897e-09
2.259245e-11
7.2238283e-09
2.4226093e-11
7.2158119e-09
2.5669858e-11
7.207348e-09
2.7094963e-11
7.1984608e-09
2.844467e-11
7.1888684e-09
3.0702837e-11
7.1789355e-09
3.1789725e-11
7.1665507e-09
3.967347e-11
7.1535326e-09
4.1708529e-11
7.1395875e-09
4.4627397e-11
2.7188806e-11
2.898614e-06
7.7266628e-11
2.898584e-06
1.7516602e-10
2.8985473e-06
2.1269438e-10
2.898506e-06
2.398252e-10
2.8984584e-06
2.7637309e-10
2.8984034e-06
3.1975229e-10
2.8983398e-06
3.7003466e-10
2.898266e-06
4.292752e-10
2.8981803e-06
5.0001969e-10
2.89808e-06
5.8526965e-10
2.8979621e-06
6.8893338e-10
2.8978226e-06
8.1670695e-10
2.8976561e-06
9.7638999e-10
2.8974548e-06
1.1816051e-09
2.8972086e-06
1.4478479e-09
2.8968997e-06
1.8199233e-09
2.8965078e-06
2.3124611e-09
2.8959739e-06
3.1571833e-09
2.8952749e-06
4.1421006e-09
2.8941098e-06
6.9228519e-09
2.8926256e-06
8.8268029e-09
2.888913e-06
2.2124894e-08
2.8880684e-06
4.9129949e-09
1.5224904e-06
9.02007e-06
1.0842531e-07
9.1981219e-06
5.3537476e-08
1.9339297e-07
4.0983251e-08
4.3800049e-08
3.497126e-08
2.0966786e-08
3.1310835e-08
1.2759515e-08
2.872905e-08
8.9990086e-09
2.6771368e-08
6.8230197e-09
2.5207362e-08
5.4507676e-09
2.3919057e-08
4.4897517e-09
2.2833405e-08
3.783355e-09
2.1900714e-08
3.2501718e-09
2.1087119e-08
2.8350513e-09
2.0368835e-08
2.5028364e-09
1.9728345e-08
2.2316794e-09
1.915229e-08
2.0070847e-09
1.8630299e-08
1.8186492e-09
1.8154217e-08
1.6586389e-09
1.771751e-08
1.5213984e-09
1.7314869e-08
1.4026734e-09
1.6941943e-08
1.2991054e-09
1.6595116e-08
1.2081501e-09
1.6271347e-08
1.1277943e-09
1.596807e-08
1.0563746e-09
1.5683099e-08
9.9258595e-10
1.5414558e-08
9.3532776e-10
1.516083e-08
8.8371074e-10
1.4920502e-08
8.3701575e-10
1.4692341e-08
7.9462129e-10
1.4475264e-08
7.5599557e-10
1.4268321e-08
7.2069172e-10
1.4070667e-08
6.8832186e-10
1.3881554e-08
6.5856309e-10
1.3700311e-08
6.3114922e-10
1.3526332e-08
6.0583848e-10
1.3359077e-08
5.8241375e-10
1.3198057e-08
5.6069317e-10
1.304283e-08
5.4051341e-10
1.2892999e-08
5.2171767e-10
1.2748204e-08
5.0417765e-10
1.2608111e-08
4.8779964e-10
1.2472413e-08
4.724916e-10
1.2340831e-08
4.5815742e-10
1.2213111e-08
4.4471105e-10
1.2089018e-08
4.3207919e-10
1.1968338e-08
4.2019805e-10
1.1850875e-08
4.0899844e-10
1.1736451e-08
3.9841926e-10
1.16249e-08
3.8841863e-10
1.151607e-08
3.7895304e-10
1.1409821e-08
3.6997661e-10
1.1306023e-08
3.6145051e-10
1.1204557e-08
3.533395e-10
1.1105314e-08
3.4561607e-10
1.1008192e-08
3.3824718e-10
1.0913108e-08
3.3117283e-10
1.0819993e-08
3.2433741e-10
1.0728788e-08
3.1771968e-10
1.0639434e-08
3.1130582e-10
1.0551884e-08
3.0506356e-10
1.0466105e-08
2.9894524e-10
1.0382074e-08
2.9290732e-10
1.0299787e-08
2.8689712e-10
1.0219273e-08
2.8080156e-10
1.0140593e-08
2.7450449e-10
1.006382e-08
2.6796795e-10
9.9890372e-09
2.6116816e-10
9.9163401e-09
2.5405093e-10
9.8458368e-09
2.465825e-10
9.7776817e-09
2.3860465e-10
9.7120904e-09
2.2991822e-10