/*--------------------------------*- C++ -*----------------------------------*\
| =========                 |                                                 |
| \\      /  F ield         | OpenFOAM: The Open Source CFD Toolbox           |
|  \\    /   O peration     | Version:  2206                                  |
|   \\  /    A nd           | Website:  www.openfoam.com                      |
|    \\/     M anipulation  |                                                 |
\*---------------------------------------------------------------------------*/
FoamFile
{
    version     2.0;
    format      ascii;
    arch        "LSB;label=32;scalar=64";
    class       volVectorField;
    location    "200";
    object      U;
}
// * * * * * * * * * * * * * * * * * * * * * * * * * * * * * * * * * * * * * //

dimensions      [0 1 -1 0 0 0 0];

internalField   nonuniform List<vector> 
13056
(
(1 9.2965976e-11 4.9459056e-25)
(0.99999296 2.3806361e-10 0)
(0.99998325 3.271484e-10 0)
(0.99997253 4.1840042e-10 0)
(0.99996025 5.4693817e-10 0)
(0.99994603 7.178586e-10 0)
(0.99992957 9.4231451e-10 0)
(0.99991048 1.2393444e-09 0)
(0.99988828 1.6352357e-09 0)
(0.99986233 2.1656756e-09 0)
(0.99983183 2.8801597e-09 0)
(0.99979578 3.8501608e-09 0)
(0.99975282 5.1778763e-09 0)
(0.99970116 7.0271519e-09 0)
(0.99963813 9.6190879e-09 0)
(0.99956036 1.3442904e-08 0)
(0.99946088 1.8879345e-08 0)
(0.99933451 2.8289465e-08 0)
(0.99915242 4.0382583e-08 0)
(0.99892725 7.2737362e-08 0)
(0.99847418 9.8552042e-08 0)
(0.99805104 2.5931654e-07 0)
(0.99630041 5.902334e-08 -5.3167528e-21)
(0.99754053 0.00012433965 8.9580132e-18)
(0.0031756862 0.00012468045 0)
(0.0012511187 7.3592842e-08 -1.2634779e-20)
(0.00090161662 4.7613981e-08 4.0494634e-18)
(0.00074777187 6.0894983e-09 0)
(0.00066075573 3.7011749e-09 0)
(0.00060128837 2.5903014e-09 0)
(0.00055743893 1.9511696e-09 0)
(0.00052295566 1.5468368e-09 0)
(0.00049485788 1.2630084e-09 0)
(0.00047140842 1.0548696e-09 0)
(0.00045142173 8.9810664e-10 0)
(0.00043409449 7.7607345e-10 0)
(0.00041887451 6.7848198e-10 0)
(0.00040536222 5.9892881e-10 0)
(0.00039325617 5.3310789e-10 0)
(0.00038232312 4.779336e-10 0)
(0.00037238106 4.3112127e-10 0)
(0.00036328557 3.910003e-10 0)
(0.00035491957 3.5631699e-10 0)
(0.00034718748 3.2605931e-10 0)
(0.00034001083 2.9955708e-10 -5.2180145e-25)
(0.00033332315 2.7612941e-10 0)
(0.00032706923 2.5526955e-10 0)
(0.00032120168 2.366926e-10 0)
(0.00031568017 2.2001049e-10 0)
(0.00031047007 2.0497202e-10 0)
(0.00030554121 1.9136727e-10 0)
(0.00030086722 1.7901423e-10 0)
(0.00029642508 1.6775688e-10 0)
(0.00029219452 1.57465e-10 0)
(0.00028815767 1.4802459e-10 0)
(0.0002842987 1.393404e-10 0)
(0.00028060344 1.3133455e-10 0)
(0.00027705914 1.2393622e-10 0)
(0.00027365439 1.1708216e-10 0)
(0.00027037894 1.1071909e-10 0)
(0.00026722346 1.047994e-10 0)
(0.00026417959 9.9278117e-11 0)
(0.00026123979 9.4117664e-11 0)
(0.00025839717 8.9289573e-11 0)
(0.00025564528 8.4766672e-11 0)
(0.00025297827 8.0521529e-11 0)
(0.0002503908 7.652952e-11 0)
(0.00024787801 7.2769467e-11 0)
(0.00024543539 6.9222891e-11 0)
(0.00024305883 6.5870985e-11 0)
(0.00024074461 6.2696804e-11 0)
(0.0002384893 5.9687501e-11 0)
(0.00023628967 5.68307e-11 0)
(0.00023414278 5.4114039e-11 0)
(0.00023204593 5.1526796e-11 0)
(0.00022999663 4.9059374e-11 0)
(0.00022799257 4.6704526e-11 0)
(0.00022603157 4.4452752e-11 0)
(0.00022411169 4.2288779e-11 0)
(0.00022223144 4.0201763e-11 0)
(0.0002203895 3.8188491e-11 0)
(0.00021858459 3.6245694e-11 0)
(0.00021681557 3.4367243e-11 0)
(0.00021508152 3.2544774e-11 0)
(0.00021338183 3.0770521e-11 0)
(0.00021171604 2.9034153e-11 0)
(0.0002100841 2.7316804e-11 0)
(0.00020848683 2.5605286e-11 0)
(0.00020692544 2.389954e-11 0)
(0.00020540116 2.2198385e-11 0)
(0.00020391544 2.0496461e-11 0)
(0.00020247007 1.8806417e-11 0)
(0.00020106682 7.2265821e-11 -2.9048624e-21)
(0.00019970941 1.0863614e-11 2.5195658e-25)
(0.00019840133 1.3254482e-11 0)
(0.00019715001 1.1521468e-11 0)
(0.00019596347 9.56277e-12 0)
(0.00019485034 7.5052993e-12 0)
(0.0001938197 5.3894346e-12 0)
(0.00019288108 3.2442931e-12 0)
(0.00019204496 1.1039996e-12 0)
(0.00019132343 -9.24359e-13 0)
(0.00019073011 -2.8652452e-12 0)
(0.00019027591 -4.5918339e-12 0)
(0.00018996342 -5.9774438e-12 0)
(0.00018978762 -6.8471558e-12 0)
(0.00018973146 -7.1954457e-12 0)
(0.00018977563 -7.0559886e-12 0)
(0.00018989678 -6.7172683e-12 0)
(0.00019007122 -5.8650149e-12 0)
(0.00019027644 -5.1687989e-12 0)
(0.00019049419 -4.4002774e-12 0)
(0.00019071043 -3.6101975e-12 0)
(0.00019091043 -2.8738574e-12 0)
(0.00019108012 -2.2227836e-12 0)
(0.00019121267 -1.6555315e-12 0)
(0.00019130446 -1.1665147e-12 0)
(0.00019135416 -7.2965341e-13 0)
(0.00019136226 -3.2231861e-13 0)
(0.0001913315 -3.3063356e-14 0)
(0.00019126628 2.1752365e-13 0)
(0.00019117145 4.4494659e-13 0)
(0.00019105166 6.4448061e-13 0)
(0.00019091102 8.1210957e-13 0)
(0.0001907529 9.5432682e-13 0)
(0.0001905797 1.0778139e-12 0)
(0.00019039292 1.1855355e-12 0)
(0.00019019421 1.2784902e-12 0)
(0.00018998483 1.3655036e-12 0)
(0.00018976369 1.4445056e-12 0)
(0.00018953301 1.5642909e-12 0)
(0.00018927595 1.6261971e-12 0)
(0.00018902814 1.9953559e-12 0)
(0.00018864467 6.4979816e-12 0)
(0.00018836471 2.2105259e-12 4.5364892e-24)
(0.00018793448 4.3193491e-12 0)
(1 2.834679e-10 0)
(0.9999928 7.2709071e-10 0)
(0.99998288 9.9944025e-10 0)
(0.99997191 1.2782448e-09 0)
(0.99995935 1.6709083e-09 0)
(0.9999448 2.1928988e-09 0)
(0.99992797 2.8781827e-09 0)
(0.99990846 3.7848338e-09 0)
(0.99988576 4.9930127e-09 0)
(0.99985924 6.6114968e-09 0)
(0.99982809 8.7911167e-09 0)
(0.99979127 1.174965e-08 0)
(0.99974742 1.579843e-08 0)
(0.9996947 2.1436569e-08 0)
(0.9996304 2.9337306e-08 0)
(0.9995511 4.0990678e-08 0)
(0.9994497 5.7554467e-08 0)
(0.99932094 8.621938e-08 0)
(0.99913548 1.2304341e-07 0)
(0.99890627 2.2154972e-07 0)
(0.99844534 3.0014685e-07 0)
(0.99801487 7.8963208e-07 0)
(0.99623473 1.7628766e-07 1.9740698e-20)
(0.99749348 0.00037369478 -7.8816721e-21)
(0.0095379644 0.00037520965 0)
(0.0037716416 1.2253122e-06 0)
(0.0027180383 2.6657218e-07 2.553814e-22)
(0.0022542218 1.2456922e-07 0)
(0.0019918205 7.5054212e-08 0)
(0.0018124948 5.2446883e-08 0)
(0.0016802616 3.9387192e-08 0)
(0.0015762748 3.1162666e-08 0)
(0.0014915441 2.5414663e-08 0)
(0.0014208302 2.1198559e-08 0)
(0.0013605586 1.8021293e-08 0)
(0.0013083067 1.5551654e-08 0)
(0.0012624094 1.3578935e-08 0)
(0.0012216616 1.1971855e-08 0)
(0.0011851544 1.0643162e-08 0)
(0.0011521844 9.5303178e-09 0)
(0.0011222027 8.5869789e-09 0)
(0.0010947739 7.779239e-09 0)
(0.0010695448 7.0815829e-09 0)
(0.0010462273 6.4739712e-09 0)
(0.0010245846 5.9411308e-09 1.3671542e-24)
(0.0010044167 5.4710338e-09 0)
(0.00098555659 5.0538e-09 0)
(0.00096786166 4.681584e-09 0)
(0.00095121023 4.3478688e-09 0)
(0.00093549785 4.0473666e-09 0)
(0.00092063358 3.775769e-09 0)
(0.00090653788 3.5293818e-09 0)
(0.00089314134 3.3050605e-09 0)
(0.00088038286 3.10016e-09 0)
(0.00086820851 2.9123994e-09 0)
(0.00085657059 2.7398686e-09 0)
(0.00084542636 2.5809693e-09 0)
(0.00083473735 2.4342702e-09 0)
(0.00082446919 2.2985008e-09 0)
(0.00081459094 2.1725837e-09 0)
(0.00080507451 2.0555595e-09 0)
(0.00079589462 1.9465367e-09 0)
(0.00078702861 1.8447703e-09 0)
(0.00077845565 1.7496721e-09 0)
(0.00077015631 1.6606834e-09 0)
(0.00076211295 1.5772577e-09 0)
(0.00075430947 1.4989084e-09 0)
(0.00074673121 1.425214e-09 0)
(0.0007393646 1.3558032e-09 0)
(0.00073219719 1.290305e-09 0)
(0.0007252178 1.2283934e-09 0)
(0.00071841608 1.1698169e-09 0)
(0.0007117823 1.1143299e-09 0)
(0.0007053076 1.0616919e-09 0)
(0.00069898384 1.0116952e-09 0)
(0.00069280349 9.6415249e-10 0)
(0.00068675962 9.1890509e-10 0)
(0.00068084564 8.7579014e-10 0)
(0.00067505575 8.3459146e-10 0)
(0.00066938539 7.951158e-10 0)
(0.00066383064 7.5726084e-10 0)
(0.00065838766 7.209494e-10 0)
(0.00065305299 6.8606803e-10 0)
(0.0006478239 6.5248118e-10 0)
(0.00064269852 6.2007598e-10 0)
(0.00063767555 5.8873311e-10 0)
(0.00063275484 5.5823258e-10 0)
(0.00062793887 5.2837194e-10 0)
(0.00062323136 4.991131e-10 0)
(0.00061863603 4.7045521e-10 0)
(0.00061415734 4.4235241e-10 0)
(0.00060980072 4.147915e-10 0)
(0.0006055717 3.8941769e-10 -1.3590162e-24)
(0.00060148096 3.6373154e-10 -6.2308072e-25)
(0.00059754021 3.3347723e-10 0)
(0.0005937711 3.056396e-10 0)
(0.00059019825 2.7732663e-10 0)
(0.00058684772 2.4860811e-10 0)
(0.00058374708 2.1958813e-10 0)
(0.00058092514 1.9033978e-10 0)
(0.00057841367 1.6082613e-10 0)
(0.00057624914 1.3090406e-10 0)
(0.00057447255 1.0102907e-10 0)
(0.0005731167 7.2361901e-11 0)
(0.00057218935 4.6260135e-11 0)
(0.00057167482 2.4041619e-11 8.1069255e-25)
(0.00057152174 6.4707912e-12 1.0680512e-24)
(0.00057167036 -6.5312919e-12 0)
(0.00057205037 -1.4997892e-11 0)
(0.00057258963 -1.9663069e-11 0)
(0.00057322007 -2.1460363e-11 0)
(0.00057388655 -2.1157981e-11 0)
(0.00057454686 -1.9502753e-11 0)
(0.00057515658 -1.6993202e-11 0)
(0.00057567333 -1.3887329e-11 0)
(0.00057607683 -1.0314306e-11 0)
(0.00057635643 -6.4278506e-12 0)
(0.00057650837 -2.4584849e-12 0)
(0.00057653428 1.3585587e-12 0)
(0.00057644259 4.9097285e-12 0)
(0.00057624655 8.0145034e-12 0)
(0.00057596095 1.0645734e-11 0)
(0.00057559977 1.2847655e-11 0)
(0.0005751755 1.4689914e-11 0)
(0.0005746983 1.6255296e-11 0)
(0.00057417549 1.7634468e-11 0)
(0.00057361156 1.8863614e-11 0)
(0.00057301154 1.9953842e-11 0)
(0.00057237925 2.1039743e-11 0)
(0.00057171144 2.2074967e-11 0)
(0.00057101476 2.3826762e-11 0)
(0.00057023851 2.4664396e-11 0)
(0.00056949007 3.0856213e-11 0)
(0.0005683326 3.2925177e-11 0)
(0.00056748706 3.4519081e-11 -7.1970496e-24)
(0.00056618778 2.1642557e-11 1.0958309e-24)
(1 4.8265864e-10 0)
(0.99999264 1.2382012e-09 0)
(0.99998246 1.7024568e-09 0)
(0.99997122 2.1774271e-09 0)
(0.99995834 2.8462595e-09 0)
(0.99994344 3.7351469e-09 0)
(0.99992618 4.9017807e-09 0)
(0.9999062 6.4449397e-09 0)
(0.99988295 8.5009348e-09 0)
(0.9998558 1.1254663e-08 0)
(0.99982392 1.4962448e-08 0)
(0.99978625 1.999434e-08 0)
(0.9997414 2.6879267e-08 0)
(0.99968751 3.6465125e-08 0)
(0.9996218 4.9895177e-08 0)
(0.99954079 6.9700343e-08 0)
(0.99943725 9.7844217e-08 0)
(0.99930583 1.4653995e-07 0)
(0.99911665 2.0907455e-07 0)
(0.99888296 3.7633317e-07 0)
(0.9984133 5.0979195e-07 0)
(0.99797471 1.3409238e-06 0)
(0.99616192 3.0056722e-07 -1.0458703e-20)
(0.99744117 0.00062683283 6.8401082e-55)
(0.016004485 0.00063056417 -6.8413147e-55)
(0.0063478392 3.4359051e-06 0)
(0.0045744638 7.621078e-07 -1.3746707e-22)
(0.0037937336 3.6200399e-07 0)
(0.0033519397 2.1820122e-07 0)
(0.0030500172 1.5248921e-07 0)
(0.0028273752 1.1453117e-07 0)
(0.0026522929 9.0621922e-08 0)
(0.0025096314 7.391027e-08 0)
(0.0023905693 6.1652348e-08 0)
(0.0022890885 5.2414838e-08 0)
(0.0022011104 4.5234301e-08 0)
(0.0021238312 3.9498358e-08 0)
(0.0020552221 3.482547e-08 0)
(0.0019937526 3.0961939e-08 0)
(0.0019382386 2.7725941e-08 0)
(0.0018877559 2.498275e-08 0)
(0.0018415713 2.2633787e-08 0)
(0.0017990904 2.0604884e-08 0)
(0.001759828 1.8837732e-08 0)
(0.0017233855 1.72881e-08 1.4519652e-24)
(0.001689426 1.5920841e-08 4.4060408e-25)
(0.0016576684 1.4707187e-08 0)
(0.0016278727 1.3624537e-08 0)
(0.0015998339 1.2653816e-08 0)
(0.0015733762 1.1779666e-08 0)
(0.0015483464 1.0989567e-08 0)
(0.0015246108 1.0272778e-08 0)
(0.0015020523 9.6201582e-09 0)
(0.0014805682 9.0240161e-09 0)
(0.0014600676 8.4777184e-09 0)
(0.0014404702 7.975709e-09 0)
(0.0014217041 7.5133432e-09 0)
(0.0014037045 7.0864597e-09 0)
(0.0013864135 6.6913638e-09 0)
(0.001369779 6.3249223e-09 0)
(0.0013537538 5.9843457e-09 0)
(0.0013382952 5.6670399e-09 0)
(0.0013233652 5.3708374e-09 0)
(0.0013089286 5.0940286e-09 0)
(0.0012949528 4.8349907e-09 0)
(0.001281408 4.5921335e-09 0)
(0.0012682672 4.3640406e-09 0)
(0.0012555056 4.1494859e-09 0)
(0.0012431004 3.9473896e-09 0)
(0.0012310307 3.756672e-09 0)
(0.0012192776 3.5763832e-09 0)
(0.0012078237 3.4057906e-09 0)
(0.0011966527 3.2441794e-09 0)
(0.0011857496 3.0908496e-09 0)
(0.0011751007 2.9451958e-09 0)
(0.0011646933 2.8066722e-09 0)
(0.0011545159 2.6748189e-09 0)
(0.0011445573 2.549159e-09 0)
(0.0011348077 2.4290531e-09 0)
(0.0011252596 2.3139352e-09 0)
(0.0011159063 2.2035124e-09 0)
(0.0011067414 2.0975614e-09 0)
(0.001097759 1.9957508e-09 0)
(0.0010889547 1.897682e-09 0)
(0.0010803254 1.80302e-09 0)
(0.0010718687 1.7114077e-09 0)
(0.0010635847 1.6221868e-09 0)
(0.0010554776 1.5347595e-09 0)
(0.0010475536 1.4490188e-09 0)
(0.0010398192 1.36496e-09 0)
(0.0010322819 1.2824416e-09 0)
(0.0010249511 1.2014571e-09 0)
(0.0010178362 1.1210225e-09 0)
(0.0010109554 1.0406371e-09 0)
(0.0010043286 9.614329e-10 0)
(0.00099799248 8.7930756e-10 0)
(0.00099198886 7.9549699e-10 0)
(0.00098636192 7.1033286e-10 0)
(0.00098115833 6.2420314e-10 0)
(0.00097642693 5.3737521e-10 0)
(0.00097222146 4.498332e-10 0)
(0.00096860345 3.615024e-10 0)
(0.00096564187 2.7353805e-10 0)
(0.00096339195 1.8945364e-10 0)
(0.00096186646 1.1335819e-10 0)
(0.00096103818 4.9404004e-11 -8.5919556e-25)
(0.00096081858 -3.0588824e-13 -8.4889087e-25)
(0.00096110604 -3.6060935e-11 0)
(0.00096178069 -5.8722693e-11 0)
(0.00096271997 -7.0431452e-11 0)
(0.00096380874 -7.3121622e-11 0)
(0.00096495414 -6.9977749e-11 0)
(0.00096608529 -6.3271422e-11 0)
(0.0009671274 -5.442082e-11 0)
(0.00096800933 -4.4133309e-11 0)
(0.00096869753 -3.2761164e-11 0)
(0.00096917482 -2.0717918e-11 0)
(0.00096943547 -8.5811731e-12 0)
(0.00096948259 3.0716501e-12 0)
(0.00096933061 1.3671108e-11 0)
(0.00096900207 2.2931816e-11 0)
(0.00096852198 3.0821187e-11 0)
(0.00096791397 3.7447119e-11 0)
(0.00096719918 4.2991416e-11 0)
(0.0009663948 4.7700764e-11 0)
(0.00096551324 5.1845283e-11 0)
(0.0009645621 5.5534027e-11 0)
(0.00096354991 5.8799474e-11 0)
(0.00096248316 6.2036977e-11 0)
(0.00096135641 6.511244e-11 0)
(0.00096018092 7.028525e-11 0)
(0.00095887127 7.2764852e-11 0)
(0.00095760831 9.0926838e-11 0)
(0.00095565641 9.5505577e-11 0)
(0.00095422967 1.0196765e-10 0)
(0.00095203756 6.2525817e-11 0)
(1 6.9438487e-10 1.0640422e-24)
(0.99999245 1.7820508e-09 0)
(0.99998199 2.4509558e-09 0)
(0.99997045 3.1348336e-09 0)
(0.99995722 4.0976662e-09 0)
(0.9999419 5.3769238e-09 0)
(0.99992419 7.0553985e-09 0)
(0.99990366 9.275069e-09 0)
(0.99987981 1.2231805e-08 0)
(0.99985195 1.6191174e-08 0)
(0.99981925 2.152124e-08 0)
(0.99978064 2.8753312e-08 0)
(0.99973467 3.8646656e-08 0)
(0.99967946 5.2418334e-08 0)
(0.99961218 7.1708669e-08 0)
(0.99952926 1.0014993e-07 0)
(0.99942333 1.4055545e-07 0)
(0.99928895 2.1045199e-07 0)
(0.9990956 3.0017764e-07 0)
(0.99885691 5.4012512e-07 0)
(0.99837753 7.3158759e-07 0)
(0.9979299 1.9238465e-06 0)
(0.99608077 4.3273989e-07 0)
(0.9973827 0.00088747182 -3.5685205e-55)
(0.022668373 0.00089463962 3.5692037e-55)
(0.0090178616 7.0746724e-06 0)
(0.0064982046 1.5712862e-06 0)
(0.0053888422 7.4570214e-07 0)
(0.004760917 4.4951324e-07 0)
(0.0043317919 3.1414451e-07 0)
(0.0040153355 2.359474e-07 0)
(0.0037664789 1.8669066e-07 0)
(0.0035637026 1.522633e-07 0)
(0.0033944684 1.2701088e-07 0)
(0.0032502226 1.0798062e-07 0)
(0.0031251686 9.3187991e-08 0)
(0.0030153213 8.1371427e-08 0)
(0.002917797 7.1744879e-08 0)
(0.0028304204 6.3785678e-08 0)
(0.0027515084 5.7119245e-08 0)
(0.0026797477 5.1468036e-08 0)
(0.002614096 4.6628969e-08 0)
(0.0025537086 4.2449242e-08 0)
(0.0024978957 3.8808763e-08 0)
(0.002446091 3.5616337e-08 0)
(0.0023978156 3.2799643e-08 0)
(0.0023526698 3.029942e-08 0)
(0.0023103126 2.8069027e-08 0)
(0.0022704528 2.606923e-08 0)
(0.0022328403 2.4268377e-08 0)
(0.0021972575 2.2640672e-08 0)
(0.0021635142 2.1163995e-08 0)
(0.0021314442 1.9819508e-08 0)
(0.0021009013 1.8591371e-08 0)
(0.0020717564 1.7465918e-08 0)
(0.0020438954 1.6431702e-08 0)
(0.0020172161 1.5479155e-08 0)
(0.0019916263 1.4599704e-08 0)
(0.0019670439 1.3785739e-08 0)
(0.0019433947 1.3030805e-08 0)
(0.0019206115 1.2329154e-08 0)
(0.001898634 1.1675444e-08 0)
(0.0018774078 1.1065208e-08 0)
(0.001856883 1.0494925e-08 0)
(0.0018370133 9.9612522e-09 0)
(0.0018177563 9.4609127e-09 0)
(0.0017990736 8.9909891e-09 0)
(0.0017809301 8.5489552e-09 0)
(0.0017632933 8.1325864e-09 0)
(0.0017461335 7.7396588e-09 0)
(0.0017294238 7.3682153e-09 0)
(0.0017131396 7.0167462e-09 0)
(0.0016972576 6.6837787e-09 0)
(0.0016817566 6.3678707e-09 0)
(0.0016666171 6.0677749e-09 0)
(0.0016518212 5.7823667e-09 0)
(0.0016373522 5.5106982e-09 0)
(0.0016231946 5.2517872e-09 0)
(0.0016093343 5.0043158e-09 0)
(0.0015957607 4.7671167e-09 0)
(0.0015824644 4.5395867e-09 0)
(0.0015694362 4.3212657e-09 0)
(0.0015566681 4.1114707e-09 0)
(0.0015441536 3.9093791e-09 0)
(0.0015318883 3.7142987e-09 0)
(0.0015198692 3.5254942e-09 0)
(0.0015080964 3.3416085e-09 0)
(0.0014965759 3.1614081e-09 0)
(0.001485317 2.9846718e-09 0)
(0.0014743289 2.8113904e-09 0)
(0.0014636227 2.6412717e-09 0)
(0.0014532117 2.4742936e-09 0)
(0.0014431099 2.308192e-09 0)
(0.0014333432 2.1448842e-09 7.1895265e-25)
(0.0014239408 1.9793601e-09 0)
(0.001414955 1.8099369e-09 0)
(0.0014064461 1.6370478e-09 0)
(0.0013984775 1.4613723e-09 0)
(0.0013911162 1.2837013e-09 0)
(0.0013844321 1.1045859e-09 0)
(0.0013785023 9.2400523e-10 0)
(0.0013734146 7.418081e-10 0)
(0.001369267 5.6039668e-10 0)
(0.0013661379 3.8700839e-10 0)
(0.0013640445 2.3016111e-10 0)
(0.0013629463 9.8463235e-11 -9.355597e-25)
(0.0013627137 -3.7511657e-12 0)
(0.0013631994 -7.7123163e-11 0)
(0.0013642304 -1.2341784e-10 0)
(0.0013656301 -1.4655331e-10 0)
(0.001367234 -1.5199981e-10 0)
(0.0013689099 -1.4537445e-10 0)
(0.0013705576 -1.3132123e-10 0)
(0.0013720707 -1.1285329e-10 0)
(0.0013733486 -9.1477102e-11 0)
(0.0013743449 -6.7910221e-11 0)
(0.0013750367 -4.2994874e-11 0)
(0.0013754171 -1.7917808e-11 0)
(0.0013754911 6.141495e-12 0)
(0.00137528 2.8040666e-11 0)
(0.0013748161 4.717036e-11 0)
(0.0013741352 6.3464468e-11 0)
(0.0013732711 7.7148041e-11 0)
(0.0013722541 8.8597487e-11 0)
(0.0013711088 9.8321475e-11 0)
(0.001369853 1.0687878e-10 0)
(0.0013684976 1.1449538e-10 0)
(0.0013670548 1.2123692e-10 0)
(0.001365534 1.2791721e-10 0)
(0.0013639275 1.3426089e-10 0)
(0.0013622514 1.4492599e-10 0)
(0.0013603842 1.5003884e-10 0)
(0.0013585832 1.874692e-10 0)
(0.001355802 1.9704867e-10 0)
(0.0013537676 2.1045504e-10 0)
(0.0013506424 1.2873246e-10 0)
(1 9.2273252e-10 0)
(0.99999223 2.3692021e-09 0)
(0.99998147 3.2595873e-09 0)
(0.99996958 4.169217e-09 0)
(0.99995595 5.4496257e-09 0)
(0.99994018 7.1503144e-09 0)
(0.99992194 9.3810111e-09 0)
(0.99990082 1.2330206e-08 0)
(0.99987627 1.6257858e-08 0)
(0.99984762 2.1516255e-08 0)
(0.999814 2.8593533e-08 0)
(0.99977432 3.819422e-08 0)
(0.9997271 5.1324908e-08 0)
(0.99967042 6.9598998e-08 0)
(0.99960136 9.5189964e-08 0)
(0.9995163 1.3291208e-07 0)
(0.99940769 1.8648734e-07 0)
(0.99926998 2.7914453e-07 0)
(0.99907196 3.9803759e-07 0)
(0.99882768 7.1593091e-07 0)
(0.99833743 9.6959264e-07 0)
(0.99787965 2.5490262e-06 0)
(0.9959899 5.7541956e-07 0)
(0.99731707 0.0011592994 0)
(0.029623827 0.0011711963 0)
(0.011821228 1.2313592e-05 0)
(0.0085175459 2.7265596e-06 0)
(0.0070628795 1.2934568e-06 0)
(0.0062392462 7.7978409e-07 0)
(0.0056763727 5.449636e-07 0)
(0.0052612626 4.0931587e-07 0)
(0.0049348232 3.2386665e-07 0)
(0.0046688273 2.641443e-07 0)
(0.0044468276 2.2033801e-07 0)
(0.0042576048 1.8732528e-07 0)
(0.0040935558 1.6166373e-07 0)
(0.0039494535 1.4116495e-07 0)
(0.0038215153 1.2446532e-07 0)
(0.0037068878 1.106581e-07 0)
(0.0036033633 9.9093467e-08 0)
(0.0035092194 8.928998e-08 0)
(0.0034230888 8.0895334e-08 0)
(0.0033438634 7.3644461e-08 0)
(0.0032706388 6.7329054e-08 0)
(0.0032026718 6.1790842e-08 0)
(0.0031393344 5.6904456e-08 0)
(0.0030801025 5.2567097e-08 0)
(0.0030245286 4.8697768e-08 0)
(0.0029722306 4.5228485e-08 0)
(0.0029228808 4.2104316e-08 0)
(0.0028761936 3.9280514e-08 0)
(0.0028319194 3.6718706e-08 0)
(0.0027898404 3.4386217e-08 0)
(0.0027497648 3.2255566e-08 0)
(0.0027115232 3.0303048e-08 0)
(0.0026749659 2.8508805e-08 0)
(0.0026399588 2.6856238e-08 0)
(0.0026063811 2.5330476e-08 0)
(0.002574125 2.3918317e-08 0)
(0.0025430932 2.2608563e-08 0)
(0.0025131977 2.1391245e-08 0)
(0.0024843591 2.0257094e-08 0)
(0.0024565063 1.9198362e-08 0)
(0.0024295739 1.8208939e-08 0)
(0.0024035008 1.7283026e-08 0)
(0.0023782318 1.6414939e-08 0)
(0.0023537163 1.5599618e-08 0)
(0.0023299083 1.4832679e-08 0)
(0.0023067652 1.4110263e-08 0)
(0.002284248 1.3428511e-08 0)
(0.0022623216 1.2784029e-08 0)
(0.0022409535 1.2174196e-08 0)
(0.0022201133 1.1596457e-08 0)
(0.0021997732 1.1048309e-08 0)
(0.0021799076 1.0527589e-08 0)
(0.0021604931 1.0032344e-08 0)
(0.0021415079 9.5609304e-09 0)
(0.0021229315 9.1116438e-09 0)
(0.0021047458 8.6821931e-09 0)
(0.0020869365 8.2705508e-09 0)
(0.0020694917 7.8756721e-09 0)
(0.0020523994 7.4967588e-09 0)
(0.002035649 7.1326254e-09 0)
(0.0020192322 6.7818414e-09 0)
(0.0020031434 6.4432015e-09 0)
(0.0019873788 6.1154265e-09 0)
(0.0019719387 5.7961564e-09 0)
(0.0019568314 5.4832448e-09 0)
(0.0019420692 5.1763092e-09 0)
(0.0019276648 4.8753327e-09 0)
(0.0019136328 4.5798061e-09 0)
(0.0018999915 4.2896814e-09 0)
(0.0018867594 4.0022941e-09 8.7531789e-25)
(0.0018739714 3.717696e-09 8.0252382e-25)
(0.0018616667 3.4294538e-09 0)
(0.0018499146 3.1348258e-09 0)
(0.0018387956 2.8341178e-09 0)
(0.0018283939 2.5285297e-09 0)
(0.0018187985 2.2194544e-09 0)
(0.0018101023 1.9078621e-09 0)
(0.0018024072 1.5937459e-09 0)
(0.0017958293 1.2769051e-09 0)
(0.0017904973 9.6154573e-10 0)
(0.0017865136 6.6027448e-10 0)
(0.0017838991 3.88002e-10 0)
(0.0017825971 1.5981505e-10 0)
(0.0017824312 -1.6765427e-11 0)
(0.0017832029 -1.4298626e-10 0)
(0.0017846808 -2.2200867e-10 0)
(0.0017866294 -2.6083167e-10 0)
(0.0017888311 -2.6897671e-10 0)
(0.0017911125 -2.5632391e-10 0)
(0.0017933429 -2.3097322e-10 0)
(0.001795383 -1.9815206e-10 0)
(0.0017971014 -1.6045378e-10 0)
(0.0017984395 -1.1909892e-10 0)
(0.00179937 -7.5524988e-11 0)
(0.0017998858 -3.1757912e-11 0)
(0.0017999951 1.0184575e-11 0)
(0.0017997264 4.834765e-11 0)
(0.001799123 8.1677317e-11 0)
(0.0017982323 1.1006789e-10 0)
(0.0017970989 1.3391219e-10 0)
(0.0017957629 1.5386255e-10 0)
(0.001794257 1.7080415e-10 0)
(0.0017926046 1.8571131e-10 0)
(0.0017908205 1.9897881e-10 0)
(0.0017889206 2.107187e-10 0)
(0.0017869176 2.2234289e-10 0)
(0.0017848015 2.3337552e-10 0)
(0.0017825936 2.519083e-10 0)
(0.0017801341 2.6079823e-10 0)
(0.0017777613 3.2578377e-10 0)
(0.0017741007 3.4254931e-10 0)
(0.0017714207 3.6598997e-10 -9.2714019e-24)
(0.0017673047 2.2353277e-10 1.4116875e-24)
(1 1.1725418e-09 0)
(0.99999199 3.0122145e-09 0)
(0.99998088 4.1458071e-09 0)
(0.9999686 5.3029257e-09 0)
(0.99995452 6.9313284e-09 0)
(0.99993824 9.0935292e-09 0)
(0.9999194 1.1928564e-08 0)
(0.9998976 1.5675708e-08 0)
(0.99987228 2.0664854e-08 0)
(0.99984273 2.7342834e-08 0)
(0.99980807 3.6328599e-08 0)
(0.99976718 4.8515358e-08 0)
(0.99971855 6.5178964e-08 0)
(0.9996602 8.836425e-08 0)
(0.99958915 1.2082447e-07 0)
(0.99950168 1.6866005e-07 0)
(0.99939005 2.3657788e-07 0)
(0.9992486 3.5401031e-07 0)
(0.99904532 5.0462393e-07 0)
(0.99879474 9.0725347e-07 0)
(0.99829227 1.2285361e-06 0)
(0.9978231 3.2287968e-06 0)
(0.99588776 7.318766e-07 0)
(0.99724311 0.0014460531 0)
(0.036967226 0.0014642538 0)
(0.014799408 1.9312621e-05 0)
(0.010662158 4.2935411e-06 0)
(0.0088403101 2.0369807e-06 0)
(0.0078084043 1.2281964e-06 0)
(0.0071031936 8.583583e-07 0)
(0.0065830795 6.4471666e-07 0)
(0.0061740596 5.1012782e-07 0)
(0.0058407689 4.1606173e-07 0)
(0.0055626001 3.4706438e-07 0)
(0.0053254966 2.9506715e-07 0)
(0.0051199335 2.5464829e-07 0)
(0.0049393617 2.2236114e-07 0)
(0.0047790419 1.9605793e-07 0)
(0.0046353993 1.743104e-07 0)
(0.0045056679 1.5609506e-07 0)
(0.0043876895 1.406536e-07 0)
(0.0042797514 1.2743112e-07 0)
(0.0041804653 1.1601013e-07 0)
(0.0040886978 1.0606257e-07 -8.8112396e-35)
(0.004003518 9.7339079e-08 2.061607e-24)
(0.0039241391 8.9642284e-08 0)
(0.0038499042 8.2810271e-08 0)
(0.0037802529 7.671538e-08 0)
(0.0037147065 7.1250619e-08 0)
(0.0036528543 6.6329432e-08 0)
(0.0035943385 6.1881348e-08 0)
(0.0035388464 5.7845928e-08 0)
(0.003486105 5.4171709e-08 0)
(0.0034358741 5.0815406e-08 0)
(0.0033879413 4.7739681e-08 0)
(0.0033421194 4.4913256e-08 0)
(0.00329824 4.2309986e-08 0)
(0.003256152 3.9906451e-08 0)
(0.00321572 3.7681855e-08 0)
(0.0031768225 3.5618561e-08 0)
(0.0031393491 3.3700868e-08 0)
(0.0031032001 3.1914173e-08 0)
(0.0030682867 3.0246273e-08 0)
(0.0030345267 2.8687544e-08 0)
(0.0030018439 2.7228853e-08 0)
(0.0029701688 2.5861248e-08 0)
(0.0029394383 2.4576756e-08 0)
(0.0029095945 2.3368471e-08 0)
(0.0028805843 2.2230316e-08 0)
(0.0028523586 2.1156212e-08 0)
(0.0028248736 2.014081e-08 0)
(0.0027980886 1.9179981e-08 0)
(0.0027719655 1.8269698e-08 0)
(0.0027464694 1.7406021e-08 0)
(0.0027215686 1.6585538e-08 0)
(0.0026972334 1.5805174e-08 0)
(0.0026734368 1.506234e-08 0)
(0.0026501531 1.4354348e-08 0)
(0.0026273597 1.3677579e-08 0)
(0.0026050389 1.3028834e-08 0)
(0.0025831757 1.2406472e-08 0)
(0.0025617554 1.1809236e-08 0)
(0.0025407648 1.1235257e-08 0)
(0.0025201936 1.0682275e-08 0)
(0.0025000352 1.0148382e-08 0)
(0.002480285 9.6315547e-09 0)
(0.0024609436 9.1280579e-09 0)
(0.0024420218 8.6344996e-09 0)
(0.0024235359 8.1502796e-09 0)
(0.0024055019 7.6753692e-09 0)
(0.0023879392 7.2089601e-09 0)
(0.002370871 6.7509668e-09 0)
(0.0023543215 6.2978162e-09 0)
(0.0023383352 5.8475447e-09 0)
(0.0023229633 5.3920925e-09 0)
(0.0023082936 4.9265415e-09 0)
(0.0022944287 4.4511622e-09 0)
(0.0022814763 3.9679681e-09 0)
(0.0022695495 3.4791978e-09 0)
(0.0022587665 2.9864231e-09 0)
(0.0022492565 2.4897026e-09 0)
(0.0022411661 1.9888412e-09 0)
(0.0022346569 1.4905748e-09 0)
(0.0022298566 1.0149211e-09 0)
(0.0022267885 5.8563942e-10 0)
(0.0022253758 2.268165e-10 0)
(0.0022253871 -4.9688742e-11 0)
(0.0022265655 -2.4614445e-10 0)
(0.0022286139 -3.6777332e-10 0)
(0.0022312315 -4.2592237e-10 0)
(0.0022341429 -4.3586643e-10 0)
(0.0022371308 -4.1336612e-10 0)
(0.0022400329 -3.7125247e-10 0)
(0.002242675 -3.1776929e-10 0)
(0.0022448933 -2.5697112e-10 0)
(0.0022466182 -1.9073943e-10 0)
(0.0022478197 -1.2128137e-10 0)
(0.002248492 -5.1715281e-11 0)
(0.0022486475 1.4841681e-11 0)
(0.0022483235 7.5356515e-11 0)
(0.0022475752 1.2819251e-10 0)
(0.0022464627 1.7320369e-10 0)
(0.0022450424 2.1101431e-10 0)
(0.002243365 2.4265008e-10 0)
(0.0022414722 2.6951122e-10 0)
(0.0022393938 2.9314237e-10 0)
(0.0022371483 3.1417079e-10 0)
(0.0022347562 3.3277057e-10 0)
(0.0022322336 3.511677e-10 0)
(0.0022295682 3.6861609e-10 0)
(0.0022267869 3.9788712e-10 0)
(0.002223689 4.1194351e-10 0)
(0.0022206997 5.1443698e-10 0)
(0.0022160932 5.4089124e-10 0)
(0.0022127174 5.7825026e-10 0)
(0.0022075341 3.5273643e-10 -8.0569127e-25)
(1 1.4494781e-09 0)
(0.99999172 3.7258734e-09 0)
(0.99998021 5.1302064e-09 0)
(0.99996748 6.5623276e-09 0)
(0.99995291 8.5772096e-09 0)
(0.99993603 1.1251624e-08 0)
(0.99991653 1.4756907e-08 0)
(0.99989396 1.9388517e-08 0)
(0.99986775 2.5553665e-08 0)
(0.99983719 3.3803596e-08 0)
(0.99980136 4.490165e-08 0)
(0.9997591 5.9949216e-08 0)
(0.99970888 8.0519093e-08 0)
(0.99964864 1.0913182e-07 0)
(0.99957533 1.4917923e-07 0)
(0.99948513 2.0817928e-07 0)
(0.99937009 2.9191968e-07 0)
(0.9992244 4.3666894e-07 0)
(0.9990152 6.2222304e-07 0)
(0.99875752 1.1181494e-06 0)
(0.99824127 1.5138912e-06 0)
(0.99775926 3.977393e-06 0)
(0.9957726 9.0545464e-07 0)
(0.99715954 0.0017515733 0)
(0.044798185 0.001777986 0)
(0.017996431 2.851976e-05 0)
(0.012963531 6.3668544e-06 0)
(0.010747087 3.021072e-06 0)
(0.0094911589 1.8218417e-06 0)
(0.0086328451 1.2732697e-06 0)
(0.0079997658 9.5638479e-07 0)
(0.0075018991 7.5674005e-07 0)
(0.0070962039 6.1720609e-07 0)
(0.006757598 5.1485831e-07 0)
(0.0064689729 4.3772733e-07 0)
(0.0062187363 3.7777081e-07 0)
(0.0059989178 3.2987656e-07 0)
(0.0058037487 2.9085872e-07 0)
(0.0056288782 2.5859856e-07 0)
(0.0054709398 2.3157785e-07 0)
(0.0053273069 2.0867178e-07 0)
(0.0051958947 1.8905722e-07 0)
(0.0050750137 1.721149e-07 0)
(0.0049632844 1.5735822e-07 9.5047132e-35)
(0.0048595738 1.4441721e-07 2.4267316e-24)
(0.0047629243 1.329992e-07 0)
(0.0046725363 1.22864e-07 0)
(0.004587728 1.1382218e-07 0)
(0.0045079164 1.0571512e-07 0)
(0.0044326017 9.8414381e-08 0)
(0.0043613485 9.1815437e-08 0)
(0.0042937763 8.5828644e-08 0)
(0.0042295526 8.0377659e-08 0)
(0.0041683851 7.5398281e-08 0)
(0.0041100154 7.083512e-08 0)
(0.0040542154 6.6641773e-08 0)
(0.0040007804 6.2779462e-08 0)
(0.0039495262 5.9213449e-08 0)
(0.0039002884 5.5912882e-08 0)
(0.0038529187 5.2851602e-08 0)
(0.0038072828 5.0006315e-08 0)
(0.0037632597 4.735536e-08 0)
(0.0037207408 4.488063e-08 0)
(0.0036796265 4.256785e-08 0)
(0.0036398237 4.0403476e-08 0)
(0.0036012482 3.8374226e-08 0)
(0.0035638228 3.646827e-08 0)
(0.0035274773 3.4675365e-08 0)
(0.003492147 3.2986493e-08 0)
(0.0034577722 3.1392638e-08 0)
(0.0034242996 2.9885859e-08 0)
(0.0033916797 2.8460028e-08 0)
(0.0033598661 2.7109172e-08 0)
(0.0033288164 2.5827442e-08 0)
(0.0032984921 2.4609776e-08 0)
(0.0032688572 2.3451608e-08 0)
(0.0032398788 2.23491e-08 0)
(0.0032115257 2.129826e-08 0)
(0.0031837705 2.0293699e-08 0)
(0.003156592 1.933066e-08 0)
(0.003129972 1.8406719e-08 0)
(0.0031038928 1.7520011e-08 0)
(0.0030783386 1.666776e-08 0)
(0.0030532971 1.5846602e-08 0)
(0.0030287604 1.5053691e-08 0)
(0.0030047236 1.4286008e-08 0)
(0.0029811876 1.3537976e-08 0)
(0.0029581666 1.2804544e-08 0)
(0.0029356809 1.2084826e-08 0)
(0.0029137509 1.1378776e-08 0)
(0.002892401 1.0685181e-08 0)
(0.0028716608 1.0003908e-08 0)
(0.0028515606 9.3300016e-09 0)
(0.0028321562 8.6590042e-09 0)
(0.0028135123 7.9809929e-09 0)
(0.0027957376 7.2875215e-09 0)
(0.0027789601 6.5790761e-09 0)
(0.0027633132 5.8588061e-09 0)
(0.0027489376 5.1301176e-09 0)
(0.0027359793 4.3954243e-09 0)
(0.0027245982 3.6549334e-09 0)
(0.0027149741 2.9085656e-09 0)
(0.0027073047 2.166537e-09 0)
(0.0027017442 1.4588856e-09 0)
(0.0026983162 8.2134976e-10 0)
(0.0026969186 2.9024625e-10 0)
(0.0026972546 -1.1680995e-10 0)
(0.002698999 -4.0379022e-10 0)
(0.0027017802 -5.7890475e-10 0)
(0.0027052233 -6.5955968e-10 0)
(0.0027089897 -6.6896271e-10 0)
(0.0027128149 -6.3083251e-10 0)
(0.0027165034 -5.643319e-10 0)
(0.0027198437 -4.8170387e-10 0)
(0.002722638 -3.8890535e-10 0)
(0.0027248072 -2.8865167e-10 0)