/*--------------------------------*- C++ -*----------------------------------*\
| =========                 |                                                 |
| \\      /  F ield         | OpenFOAM: The Open Source CFD Toolbox           |
|  \\    /   O peration     | Version:  2206                                  |
|   \\  /    A nd           | Website:  www.openfoam.com                      |
|    \\/     M anipulation  |                                                 |
\*---------------------------------------------------------------------------*/
FoamFile
{
    version     2.0;
    format      ascii;
    arch        "LSB;label=32;scalar=64";
    class       volScalarField;
    location    "1600";
    object      epsilon;
}
// * * * * * * * * * * * * * * * * * * * * * * * * * * * * * * * * * * * * * //

dimensions      [0 2 -3 0 0 0 0];

internalField   nonuniform List<scalar> 
13056
(
0.0075590124
0.0074200255
0.0073407985
0.0072991559
0.0072733725
0.0072552601
0.0072417251
0.0072312898
0.0072230888
0.0072165618
0.0072113296
0.0072071316
0.0072037905
0.0072011925
0.0071992824
0.0071980599
0.0071976257
0.0071981409
0.0072002747
0.0072043737
0.0072145862
0.007236657
0.0072463692
0.0091012612
0.029846273
0.0017685187
0.0049697168
0.00035409097
0.0018415592
0.00017333086
0.0010441687
0.00010775795
0.00069341273
0.00052156448
0.00050059213
0.00041556455
0.00037859671
0.00033166433
0.00029930002
0.00026902715
0.00024419184
0.00022239361
0.00020354531
0.00018699865
0.00017241427
0.00015947437
0.00014793382
0.00013759018
0.00012827762
0.00011985885
0.00011221887
0.00010526086
9.8903034e-05
9.3075637e-05
8.7719166e-05
8.2782518e-05
7.822129e-05
7.3996896e-05
7.0075773e-05
6.6428503e-05
6.3029195e-05
5.9855118e-05
5.68862e-05
5.4104481e-05
5.1493965e-05
4.9040412e-05
4.673106e-05
4.4554442e-05
4.2500224e-05
4.0559167e-05
3.8722917e-05
3.6983804e-05
3.533488e-05
3.3769857e-05
3.2282982e-05
3.0869015e-05
2.9523139e-05
2.8240959e-05
2.7018519e-05
2.5852096e-05
2.4738227e-05
2.3673777e-05
2.2655839e-05
2.1681719e-05
2.0748929e-05
1.9855154e-05
1.899828e-05
1.8176348e-05
1.738749e-05
1.6629972e-05
1.5902201e-05
1.5202677e-05
1.4530007e-05
1.388288e-05
1.3260078e-05
1.2660495e-05
1.2083054e-05
1.1526737e-05
1.0990612e-05
1.0473796e-05
9.9754631e-06
9.4948312e-06
9.0311712e-06
8.5838161e-06
8.152113e-06
7.7354448e-06
7.3332408e-06
6.9449604e-06
6.5700856e-06
6.2081385e-06
5.8586721e-06
5.5211286e-06
5.1954709e-06
4.8894321e-06
4.6107811e-06
4.3578834e-06
4.1273599e-06
3.9167098e-06
3.7235791e-06
3.5459733e-06
3.3821653e-06
3.2306531e-06
3.0901293e-06
2.9594543e-06
2.8376205e-06
2.7237243e-06
2.6169558e-06
2.5165618e-06
2.4218655e-06
2.3321176e-06
2.2467864e-06
2.1645848e-06
2.0860702e-06
2.0051139e-06
1.9366334e-06
1.8363084e-06
0.0075577601
0.0074186799
0.007339395
0.0072977201
0.007271916
0.0072537887
0.0072402423
0.0072297978
0.0072215891
0.0072150555
0.0072098173
0.0072056134
0.0072022663
0.0071996618
0.007197744
0.007196512
0.0071960651
0.0071965632
0.0071986697
0.0072027321
0.0072128583
0.0072348364
0.0072439926
0.0090987488
0.029269162
0.0017528838
0.0048788663
0.00035057261
0.0018120788
0.00017171048
0.001028798
0.00010694642
0.00068385839
0.00051491592
0.00049407761
0.00041039693
0.00037391757
0.00032769116
0.00029577158
0.00026592872
0.00024143227
0.00021993082
0.00020133386
0.0001850055
0.00017061066
0.00015783684
0.00014644251
0.00013622832
0.00012703092
0.00011871504
0.00011116737
0.00010429248
9.8009767e-05
9.2250474e-05
8.6955932e-05
8.2075757e-05
7.7566162e-05
7.3389094e-05
6.9511449e-05
6.5904208e-05
6.2541829e-05
5.9401887e-05
5.6464576e-05
5.3712175e-05
5.1128896e-05
4.8700683e-05
4.6414944e-05
4.4260356e-05
4.2226718e-05
4.0304911e-05
3.8486683e-05
3.6764464e-05
3.5131391e-05
3.3581255e-05
3.2108373e-05
3.0707571e-05
2.937409e-05
2.8103588e-05
2.6892158e-05
2.5736121e-05
2.4632057e-05
2.3576866e-05
2.2567676e-05
2.1601827e-05
2.0676858e-05
1.9790481e-05
1.8940607e-05
1.81253e-05
1.7342713e-05
1.6591133e-05
1.5868983e-05
1.5174781e-05
1.4507151e-05
1.3864795e-05
1.3246508e-05
1.2651198e-05
1.2077799e-05
1.1525304e-05
1.0992792e-05
1.0479389e-05
9.9842774e-06
9.506684e-06
9.0458872e-06
8.601227e-06
8.1720572e-06
7.7577669e-06
7.3577916e-06
6.9715957e-06
6.5986667e-06
6.2385312e-06
5.8907467e-06
5.5547612e-06
5.2305377e-06
4.9257722e-06
4.648213e-06
4.3962569e-06
4.1665494e-06
3.9566062e-06
3.7640886e-06
3.5870145e-06
3.4236674e-06
3.2725546e-06
3.1323761e-06
3.0019993e-06
2.8804222e-06
2.7667463e-06
2.6601662e-06
2.5599324e-06
2.4653716e-06
2.3757378e-06
2.2905013e-06
2.2083782e-06
2.129927e-06
2.0490182e-06
1.9805696e-06
1.8802918e-06
0.0075537858
0.0074144145
0.0073349503
0.007293176
0.0072673086
0.0072491358
0.0072355549
0.007225083
0.0072168522
0.0072103
0.0072050459
0.0072008277
0.0071974672
0.0071948496
0.007192918
0.0071916705
0.0071912045
0.0071916784
0.0071937479
0.0071977622
0.0072077747
0.0072296411
0.0072380228
0.0090910584
0.028696288
0.0017372534
0.0047875783
0.0003470157
0.0017823666
0.00017006812
0.0010132821
0.00010612165
0.00067420358
0.00050818295
0.00048749059
0.00040516564
0.00036918282
0.00032366779
0.0002921985
0.00026278972
0.00023863599
0.00021743447
0.00019909168
0.00018298406
0.00016878095
0.00015617513
0.00014492874
0.00013484556
0.0001257647
0.00011755297
0.00011009874
0.00010330802
9.7101371e-05
9.141105e-05
8.6179237e-05
8.135627e-05
7.6898989e-05
7.2769876e-05
6.8936291e-05
6.5369622e-05
6.2044678e-05
5.8939342e-05
5.603408e-05
5.3311409e-05
5.0755754e-05
4.8353247e-05
4.6091462e-05
4.3959227e-05
4.1946476e-05
4.0044205e-05
3.8244274e-05
3.6539207e-05
3.4922231e-05
3.3387214e-05
3.1928548e-05
3.0541121e-05
2.9220237e-05
2.7961605e-05
2.6761368e-05
2.5615893e-05
2.4521801e-05
2.347603e-05
2.2475743e-05
2.1518312e-05
2.0601306e-05
1.9722463e-05
1.887972e-05
1.8071165e-05
1.7294971e-05
1.6549445e-05
1.583303e-05
1.514426e-05
1.4481774e-05
1.384429e-05
1.3230618e-05
1.2639676e-05
1.2070411e-05
1.1521828e-05
1.0993016e-05
1.0483109e-05
9.9913011e-06
9.5168253e-06
9.0589686e-06
8.617078e-06
8.1905139e-06
7.7786723e-06
7.3809941e-06
6.9969496e-06
6.6260313e-06
6.2677708e-06
5.9217298e-06
5.5873623e-06
5.2646315e-06
4.9611949e-06
4.6847786e-06
4.4338106e-06
4.2049619e-06
3.995765e-06
3.8038967e-06
3.6273877e-06
3.4645327e-06
3.313848e-06
3.1740419e-06
3.0439884e-06
2.9226916e-06
2.8092581e-06
2.7028869e-06
2.6028331e-06
2.5084264e-06
2.4189244e-06
2.3337994e-06
2.2517712e-06
2.173399e-06
2.0925549e-06
2.024152e-06
1.9239422e-06
0.0075469647
0.0074070951
0.0073273242
0.0072853801
0.0072594045
0.0072411544
0.0072275146
0.0072169966
0.0072087285
0.0072021456
0.0071968653
0.0071926245
0.0071892435
0.0071866066
0.0071846557
0.0071833879
0.0071828983
0.0071833436
0.0071853713
0.0071893324
0.0071992192
0.0072209733
0.0072284532
0.0090781396
0.028119973
0.0017214166
0.0046946163
0.0003433708
0.0017520145
0.00016838
0.00099740563
0.00010526923
0.00066431299
0.00050126919
0.00048073803
0.00039979577
0.00036432486
0.00031953624
0.00028852917
0.00025956449
0.00023576212
0.00021486785
0.00019678563
0.00018090427
0.00016689775
0.0001544642
0.00014336956
0.00013342076
0.00012445948
0.00011635462
0.00010899629
0.00010229196
9.6163404e-05
9.0543902e-05
8.5376506e-05
8.0612296e-05
7.6208752e-05
7.2128906e-05
6.8340596e-05
6.4815621e-05
6.1529155e-05
5.8459395e-05
5.5587084e-05
5.2894985e-05
5.0367742e-05
4.7991678e-05
4.5754538e-05
4.3645306e-05
4.1654051e-05
3.9771893e-05
3.7990799e-05
3.6303397e-05
3.4703001e-05
3.3183562e-05
3.1739545e-05
3.0365906e-05
2.9058009e-05
2.7811619e-05
2.6622928e-05
2.5488351e-05
2.4404551e-05
2.3368506e-05
2.2377414e-05
2.142868e-05
2.0519902e-05
1.9648849e-05
1.8813482e-05
1.8011911e-05
1.7242334e-05
1.6503078e-05
1.5792604e-05
1.5109464e-05
1.4452313e-05
1.3819885e-05
1.3211003e-05
1.2624599e-05
1.2059633e-05
1.1515119e-05
1.0990158e-05
1.0483895e-05
9.9955306e-06
9.5243087e-06
9.0695238e-06
8.63053e-06
8.2066945e-06
7.7974201e-06
7.4021539e-06
7.0203716e-06
6.6515713e-06
6.2952895e-06
5.9510925e-06
5.61844e-06
5.2972957e-06
4.9952765e-06
4.720084e-06
4.4701776e-06
4.2422547e-06
4.0338652e-06
3.8427024e-06
3.6668103e-06
3.504495e-06
3.3542826e-06
3.2148898e-06
3.0851977e-06
2.9642167e-06
2.8510588e-06
2.7449279e-06
2.6450833e-06
2.5508584e-06
2.4615144e-06
2.3765259e-06
2.2946168e-06
2.2163464e-06
2.1355919e-06
2.0672546e-06
1.9671424e-06
0.0075371009
0.0073965111
0.0073162969
0.0072741073
0.0072479755
0.0072296136
0.0072158892
0.0072053046
0.0071969831
0.0071903562
0.0071850391
0.0071807665
0.0071773573
0.0071746945
0.0071727186
0.0071714251
0.0071709071
0.007171319
0.0071732994
0.0071772017
0.0071869496
0.0072085903
0.0072150299
0.0090596494
0.027533244
0.0017051769
0.0045987973
0.0003395893
0.0017206268
0.00016662246
0.00098095816
0.00010437462
0.00065405368
0.00049407946
0.00047372821
0.00039421322
0.00035927685
0.00031523905
0.0002847124
0.00025620773
0.00023277006
0.00021219447
0.00019438269
0.00017873615
0.00016493373
0.00015267906
0.000141742
0.00013193279
0.00012309574
0.00011510192
0.00010784326
0.00010122872
9.5181348e-05
8.963548e-05
8.4535073e-05
7.9831977e-05
7.5484334e-05
7.1455749e-05
6.7714552e-05
6.4232974e-05
6.0986562e-05
5.7953843e-05
5.5115845e-05
5.245559e-05
4.9957944e-05
4.7609432e-05
4.5397978e-05
4.3312723e-05
4.134388e-05
3.9482695e-05
3.7721251e-05
3.6052279e-05
3.4469186e-05
3.2966008e-05
3.1537287e-05
3.0178048e-05
2.8883717e-05
2.765012e-05
2.64735e-05
2.5350319e-05
2.4277285e-05
2.3251417e-05
2.226995e-05
2.1330323e-05
2.0430166e-05
1.9567277e-05
1.8739643e-05
1.79454e-05
1.7182768e-05
1.6450096e-05
1.5745863e-05
1.5068641e-05
1.4417103e-05
1.3789997e-05
1.3186161e-05
1.260454e-05
1.2044107e-05
1.150389e-05
1.0982998e-05
1.0480588e-05
9.9958705e-06
9.5280974e-06
9.0765719e-06
8.6406557e-06
8.2197233e-06
7.8131843e-06
7.4204923e-06
7.0411287e-06
6.6745973e-06
6.3204398e-06
5.9782271e-06
5.6474253e-06
5.3279983e-06
5.0275195e-06
4.7536626e-06
4.5049193e-06
4.2780146e-06
4.0705168e-06
3.8801367e-06
3.7049325e-06
3.5432222e-06
3.3935425e-06
3.2546189e-06
3.1253402e-06
3.0047233e-06
2.8918862e-06
2.7860379e-06
2.6864422e-06
2.5924367e-06
2.5032861e-06
2.4184678e-06
2.3367101e-06
2.2585725e-06
2.1779402e-06
2.1096954e-06
2.0097206e-06
0.0075239296
0.0073823777
0.007301571
0.0072590534
0.0072327127
0.0072142016
0.007200364
0.0071896908
0.0071812981
0.0071746129
0.007169247
0.0071649327
0.0071614869
0.0071587909
0.0071567836
0.0071554588
0.007154907
0.0071552803
0.0071572074
0.0071610448
0.0071706394
0.0071921653
0.0071974127
0.0090351273
0.026929778
0.0016883504
0.0044989838
0.00033562303
0.0016878163
0.00016477175
0.00096373219
0.00010342298
0.00064329392
0.00048651887
0.00046636993
0.00038834407
0.00035397208
0.00031071876
0.00028069696
0.00025267397
0.00022961904
0.00020937762
0.00019184966
0.00017644952
0.00016286133
0.00015079445
0.00014002287
0.00013036025
0.0001216537
0.00011377655
0.00010662263
0.00010010247
9.4140436e-05
8.8671989e-05
8.3642029e-05
7.9003214e-05
7.4714379e-05
7.073973e-05
6.7048114e-05
6.3612214e-05
6.0407972e-05
5.7414256e-05
5.4612398e-05
5.1985687e-05
4.9519228e-05
4.7199752e-05
4.5015373e-05
4.2955399e-05
4.1010192e-05
3.9171132e-05
3.7430422e-05
3.57809e-05
3.4216075e-05
3.2730069e-05
3.1317505e-05
2.9973482e-05
2.8693492e-05
2.7473422e-05
2.6309568e-05
2.5198445e-05
2.4136808e-05
2.3121717e-05
2.2150446e-05
2.1220471e-05
2.0329455e-05
1.9475226e-05
1.8655799e-05
1.7869337e-05
1.7114084e-05
1.638841e-05
1.5690817e-05
1.5019895e-05
1.4374335e-05
1.3752901e-05
1.3154447e-05
1.2577933e-05
1.2022344e-05
1.1486722e-05
1.0970186e-05
1.0471906e-05
9.9910998e-06
9.527031e-06
9.0790109e-06
8.6464093e-06
8.228608e-06
7.8250241e-06
7.435118e-06
7.0583772e-06
6.6943115e-06
6.3424679e-06
6.0024224e-06
5.6736475e-06
5.3561075e-06
5.0573285e-06
4.7849524e-06
4.5375035e-06
4.3117364e-06
4.1052394e-06
3.9157417e-06
3.7413168e-06
3.5802958e-06
3.4312267e-06
3.2928443e-06
3.1640459e-06
3.0438555e-06
2.9313974e-06
2.8258861e-06
2.7265904e-06
2.6328522e-06
2.5439407e-06
2.4593359e-06
2.3777713e-06
2.2998059e-06
2.2193375e-06
2.1512197e-06
2.051433e-06
0.0075071192
0.0073643381
0.0072827736
0.0072398365
0.0072132287
0.0071945268
0.0071805446
0.0071697581
0.0071612746
0.0071545152
0.0071490874
0.0071447204
0.0071412288
0.0071384915
0.0071364458
0.0071350833
0.0071344917
0.0071348207
0.0071366878
0.0071404536
0.0071498791
0.0071712889
0.0071751767
0.0090040003
0.026303874
0.0016707656
0.0043940804
0.00033142392
0.0016532031
0.00016280383
0.00094552219
0.00010239897
0.0006319024
0.00047849227
0.00045857188
0.00038211401
0.00034834351
0.00030591748
0.00027643116
0.00024891733
0.00022626785
0.00020638016
0.00018915284
0.00017401371
0.00016065253
0.00014878468
0.00013818852
0.00012868134
0.00012011318
0.00011235979
0.00010531699
9.8896977e-05
9.3025518e-05
8.7639259e-05
8.2684098e-05
7.8113546e-05
7.3887177e-05
6.9969829e-05
6.63309e-05
6.2943549e-05
5.9784135e-05
5.6831892e-05
5.4068471e-05
5.1477443e-05
4.9044165e-05
4.6755592e-05
4.4600034e-05
4.2566979e-05
4.0646946e-05
3.8831457e-05
3.7112841e-05
3.5484054e-05
3.3938706e-05
3.2471016e-05
3.1075691e-05
2.9747907e-05
2.8483229e-05
2.7277606e-05
2.6127393e-05
2.5029159e-05
2.3979708e-05
2.2976145e-05
2.2015786e-05
2.1096146e-05
2.0214922e-05
1.9369975e-05
1.8559351e-05
1.7781237e-05
1.7033906e-05
1.6315751e-05
1.5625295e-05
1.496115e-05
1.4322024e-05
1.3706701e-05
1.3114051e-05
1.2543047e-05
1.1992691e-05
1.1462036e-05
1.0950215e-05
1.0456408e-05
9.979846e-06
9.5198004e-06
9.0755927e-06
8.6466011e-06
8.2322156e-06
7.831861e-06
7.4450049e-06
7.0711413e-06
6.7097864e-06
6.3604929e-06
6.0228424e-06
5.6963139e-06
5.3808725e-06
5.0839916e-06
4.8132767e-06
4.5672857e-06
4.3428049e-06
4.1374442e-06
3.948953e-06
3.7754213e-06
3.6151946e-06
3.4668329e-06
3.3290815e-06
3.2008466e-06
3.0811602e-06
2.9691534e-06
2.8640469e-06
2.7651149e-06
2.671704e-06
2.5830882e-06
2.4987507e-06
2.4174311e-06
2.3396873e-06
2.2594342e-06
2.1914862e-06
2.0919507e-06
0.0074862728
0.0073419652
0.0072594586
0.0072159997
0.0071890597
0.0071701206
0.0071559586
0.0071450314
0.0071364352
0.0071295837
0.0071240793
0.0071196474
0.0071160994
0.007113312
0.0071112199
0.0071098127
0.0071091746
0.0071094528
0.0071112528
0.0071149395
0.0071241784
0.0071454712
0.007147814
0.0089655889
0.025650466
0.0016522642
0.0042830358
0.00032694378
0.0016164141
0.00016069427
0.00092612412
0.00010128667
0.0006197479
0.00046990395
0.00045024232
0.00037544813
0.00034232348
0.00030077665
0.0002718627
0.00024489123
0.0002226746
0.00020316428
0.00018625792
0.00017139745
0.00015827871
0.00014662348
0.00013621474
0.00012687368
0.00011845345
0.00011083238
0.00010390841
9.7595516e-05
9.1820961e-05
8.6522649e-05
8.1647546e-05
7.7150073e-05
7.2990589e-05
6.9134611e-05
6.5552121e-05
6.2216788e-05
5.9105417e-05
5.619763e-05
5.3475419e-05
5.0922659e-05
4.8524976e-05
4.626956e-05
4.4144936e-05
4.2140778e-05
4.0247778e-05
3.8457607e-05
3.6762731e-05
3.5156228e-05
3.3631822e-05
3.218383e-05
3.0807051e-05
2.9496745e-05
2.8248552e-05
2.7058489e-05
2.5922973e-05
2.4838631e-05
2.3802321e-05
2.2811196e-05
2.1862615e-05
2.0954135e-05
2.008349e-05
1.9248577e-05
1.8447472e-05
1.7678394e-05
1.6939641e-05
1.6229633e-05
1.5546917e-05
1.4890125e-05
1.4257987e-05
1.3649306e-05
1.3062967e-05
1.2497963e-05
1.1953308e-05
1.1428071e-05
1.0921399e-05
1.0432483e-05
9.9605651e-06
9.5049286e-06
9.0649047e-06
8.6398807e-06
8.2292551e-06
7.8324616e-06
7.4489749e-06
7.0782965e-06
6.7199491e-06
6.3734918e-06
6.0385118e-06
5.7144957e-06
5.4014089e-06
5.1066667e-06
4.8378316e-06
4.5934965e-06
4.3704823e-06
4.1664223e-06
3.9790882e-06
3.8065881e-06
3.6472829e-06
3.4997462e-06
3.3627347e-06
3.2351646e-06
3.1160765e-06
3.0046091e-06
2.8999897e-06
2.8014988e-06
2.7084881e-06
2.6202371e-06
2.5362324e-06
2.4552209e-06
2.3777589e-06
2.2977839e-06
2.2300579e-06
2.1308506e-06
0.0074609306
0.007314764
0.0072311082
0.0071870125
0.0071596673
0.0071404387
0.0071260574
0.0071149586
0.007106225
0.0070992614
0.0070936639
0.0070891532
0.0070855372
0.0070826895
0.0070805423
0.0070790825
0.0070783905
0.0070786107
0.0070803354
0.0070839349
0.0070929682
0.0071141431
0.0071147351
0.0089191137
0.024965168
0.0016327022
0.0041648505
0.00032213425
0.0015770846
0.00015841816
0.00090533587
0.00010006952
0.00060669932
0.00046065759
0.00044128911
0.00036827082
0.00033584371
0.00029523698
0.0002669385
0.00024054836
0.00021879668
0.00019969144
0.00018312989
0.00016856878
0.00015571059
0.00014428389
0.00013407667
0.00012491427
0.00011665318
0.00010917447
0.00010237839
9.6180816e-05
9.0510601e-05
8.5307004e-05
8.0518138e-05
7.6099403e-05
7.2012001e-05
6.8222175e-05
6.4700536e-05
6.14213e-05
5.8361752e-05
5.550193e-05
5.2824194e-05
5.0312744e-05
4.7953493e-05
4.5733889e-05
4.3642682e-05
4.1669752e-05
3.9805973e-05
3.8043177e-05
3.6373977e-05
3.4791585e-05
3.3289843e-05
3.1863177e-05
3.0506485e-05
2.9215114e-05
2.7984787e-05
2.6811595e-05
2.5692022e-05
2.4622756e-05
2.3600712e-05
2.2623095e-05
2.1687314e-05
2.0790966e-05
1.993183e-05
1.9107837e-05
1.8317099e-05
1.7557866e-05
1.6828466e-05
1.6127347e-05
1.545308e-05
1.4804323e-05
1.4179825e-05
1.3578411e-05
1.2998986e-05
1.2440558e-05
1.190216e-05
1.1382874e-05
1.0881862e-05
1.0398329e-05
9.9315298e-06
9.4807586e-06
9.0453577e-06
8.6247243e-06
8.2182664e-06
7.8254265e-06
7.4456877e-06
7.0785592e-06
6.723571e-06
6.3802891e-06
6.0483068e-06
5.7271184e-06
5.4166903e-06
5.1243723e-06
4.8576769e-06
4.6152334e-06
4.3939001e-06
4.1913366e-06
4.0053388e-06
3.8340349e-06
3.6758032e-06
3.5292317e-06
3.3930902e-06
3.2663057e-06
3.1479284e-06
3.0371056e-06
2.9330719e-06
2.8351147e-06
2.7425917e-06
2.6547881e-06
2.5711949e-06
2.4905672e-06
2.413459e-06
2.333837e-06
2.2663958e-06
2.167609e-06
0.0074305711
0.0072821728
0.0071971346
0.0071522727
0.0071244397
0.0071048629
0.0070902177
0.0070789124
0.0070700137
0.0070629154
0.0070572062
0.0070526012
0.007048904
0.0070459847
0.0070437723
0.007042251
0.0070414968
0.0070416511
0.0070432915
0.0070467948
0.0070556015
0.0070766584
0.0070752705
0.0088637019
0.024244354
0.0016119535
0.0040385908
0.00031694694
0.0015348612
0.00015595016
0.00088295857
9.8730293e-05
0.0005926264
0.00045065675
0.00043161998
0.00036050605
0.00032883542
0.00028923859
0.00026160489
0.00023584076
0.00021459081
0.00019592245
0.00017973306
0.00016549506
0.00015291822
0.00014173835
0.00013174885
0.00012277951
0.00011469043
0.00010736566
0.00010070789
9.4635054e-05
8.9077732e-05
8.3976641e-05
7.9281128e-05
7.4947648e-05
7.0938312e-05
6.7220148e-05
6.3764443e-05
6.0546006e-05
5.7542638e-05
5.4734827e-05
5.2105328e-05
4.9638695e-05
4.7321151e-05
4.5140419e-05
4.3085497e-05
4.1146484e-05
3.931445e-05
3.7581405e-05
3.5940118e-05
3.4383945e-05
3.2906858e-05
3.1503399e-05
3.0168572e-05
2.8897822e-05
2.7686959e-05
2.6532154e-05
2.5429962e-05
2.437714e-05
2.3370663e-05
2.2407795e-05
2.1485993e-05
2.0602905e-05
1.9756351e-05
1.8944305e-05
1.8164915e-05
1.7416465e-05
1.6697316e-05
1.6005946e-05
1.5340952e-05
1.4701018e-05
1.4084918e-05
1.3491497e-05
1.2919683e-05
1.2368501e-05
1.1837002e-05
1.1324286e-05
1.0829531e-05
1.0351953e-05
9.8908234e-06
9.4454482e-06
9.0151814e-06
8.599431e-06
8.1976151e-06
7.8091861e-06
7.4336362e-06
7.0704829e-06
6.7192642e-06
6.3795533e-06
6.0509504e-06
5.7329583e-06
5.4255443e-06
5.1359845e-06
4.871733e-06
4.631457e-06
4.412056e-06
4.2112185e-06
4.0267674e-06
3.8568531e-06
3.6998731e-06
3.5544318e-06
3.4193132e-06
3.2934566e-06
3.1759227e-06
3.0658684e-06
2.9625367e-06
2.8652225e-06
2.7732901e-06
2.6860317e-06
2.6029428e-06
2.5227884e-06
2.4461194e-06
2.366939e-06
2.299857e-06
2.2015999e-06
0.0073946128
0.0072435649
0.0071568817
0.0071111075
0.0070826938
0.0070627022
0.0070477429
0.007036192
0.0070270967
0.0070198383
0.0070139964
0.0070092795
0.0070054862
0.0070024825
0.0070001938
0.0069986008
0.0069977752
0.0069978546
0.0069994008
0.0070027979
0.0070113549
0.0070322942
0.0070286717
0.0087983949
0.023485251
0.0015899134
0.0039034094
0.00031133364
0.0014894076
0.00015326453
0.0008587989
9.7251175e-05
0.00057740095
0.00043980564
0.00042114336
0.00035207794
0.00032122987
0.00028272142
0.00025580794
0.0002307201
0.0002100133
0.00019181766
0.00017603125
0.00016214318
0.00014987115
0.00013895877
0.00012920528
0.00012044529
0.00011254278
0.00010538502
9.8877342e-05
9.2939912e-05
8.7505168e-05
8.2515405e-05
7.7921305e-05
7.3680463e-05
6.9755975e-05
6.6115716e-05
6.2731711e-05
5.9579406e-05
5.663716e-05
5.388595e-05
5.1308961e-05
4.8891126e-05
4.6619006e-05
4.4480623e-05
4.2465242e-05
4.0563201e-05
3.8765783e-05
3.7065188e-05
3.5454356e-05
3.39268e-05
3.2476632e-05
3.109852e-05
2.9787583e-05
2.8539372e-05
2.7349791e-05
2.6215099e-05
2.5131928e-05
2.4097109e-05
2.3107684e-05
2.2160976e-05
2.12545e-05
2.0385955e-05
1.9553211e-05
1.8754283e-05
1.798736e-05
1.7250765e-05
1.6542891e-05
1.5862251e-05
1.5207471e-05
1.4577262e-05
1.3970425e-05
1.3385829e-05
1.2822423e-05
1.2279254e-05
1.1755392e-05
1.1249954e-05
1.0762136e-05
1.0291171e-05
9.8363425e-06
9.3969718e-06
8.9724256e-06
8.5621234e-06
8.1654945e-06
7.782002e-06
7.4111481e-06
7.0524592e-06
6.705482e-06
6.369798e-06
6.0450144e-06
5.7306437e-06
5.426654e-06
5.1402382e-06
4.8787822e-06
4.6409927e-06
4.4238149e-06
4.2249692e-06
4.0423086e-06
3.8740082e-06
3.7184868e-06
3.5743673e-06
3.4404493e-06
3.3156859e-06
3.1991498e-06
3.0900083e-06
2.9875139e-06
2.8909702e-06
2.7997486e-06
2.7131494e-06
2.6306734e-06
2.5510968e-06
2.4749669e-06
2.3963317e-06
2.3296958e-06
2.2320963e-06
0.0073524162
0.007198251
0.0071096268
0.0070627755
0.0070336761
0.007013195
0.0069978649
0.0069860239
0.0069766967
0.0069692495
0.0069632512
0.0069584026
0.0069544963
0.0069513939
0.0069490162
0.0069473404
0.0069464328
0.0069464273
0.0069478681
0.0069511481
0.0069594301
0.006980253
0.0069741127
0.0087221572
0.022686063
0.001566504
0.0037585743
0.00030524683
0.001440412
0.0001503354
0.0008326727
9.561386e-05
0.00056089889
0.00042801049
0.00040976954
0.00034291171
0.00031295917
0.00027562591
0.000249494
0.0002251382
0.00020502048
0.00018733733
0.00017198814
0.0001584798
0.00014653867
0.00013591677
0.00012641966
0.00011788715
0.00011018745
0.00010321127
9.6866836e-05
9.1076714e-05
8.577536e-05
8.0906775e-05
7.6423091e-05
7.2283139e-05
6.845108e-05
6.4895713e-05
6.1589855e-05
5.8509647e-05
5.5634056e-05
5.2944587e-05
5.0424891e-05
4.8060314e-05
4.5837785e-05
4.3745648e-05
4.1773459e-05
3.9911815e-05
3.8152233e-05
3.6487117e-05
3.4909596e-05
3.3413348e-05
3.1992641e-05
3.0642279e-05
2.9357509e-05
2.8133992e-05
2.6967737e-05
2.5855098e-05
2.4792793e-05
2.377773e-05
2.2807026e-05
2.1878069e-05
2.0988436e-05
2.0135882e-05
1.9318327e-05
1.8533837e-05
1.7780644e-05
1.705711e-05
1.6361669e-05
1.5692866e-05
1.5049362e-05
1.4429898e-05
1.3833302e-05
1.3258469e-05
1.2704374e-05
1.2170084e-05
1.1654692e-05
1.1157335e-05
1.0677227e-05
1.0213617e-05
9.7658059e-06
9.3331299e-06
8.9149695e-06
8.5107569e-06
8.1199338e-06
7.7419751e-06
7.3763934e-06
7.0227254e-06
6.6805272e-06
6.349389e-06
6.0289263e-06
5.7186616e-06
5.4185642e-06
5.1357331e-06
4.8774745e-06
4.6425366e-06
4.4279149e-06
4.2313655e-06
4.0507748e-06
3.8843457e-06
3.7305205e-06
3.5879427e-06
3.4554296e-06
3.3319496e-06
3.2165888e-06
3.1085265e-06
3.0070255e-06
2.911399e-06
2.8210272e-06
2.7352188e-06
2.6534809e-06
2.5746031e-06
2.4991277e-06
2.4211573e-06
2.3550685e-06
2.2582745e-06
0.0073032859
0.0071454809
0.0070545828
0.0070064687
0.0069765655
0.0069555104
0.0069397455
0.0069275646
0.0069179656
0.0069102971
0.0069041156
0.0068991131
0.006895075
0.0068918575
0.0068893767
0.0068876053
0.006886604
0.0068865025
0.0068878256
0.0068909765
0.0068989558
0.0069196643
0.0069106921
0.0086338859
0.021846091
0.0015416807
0.0036035047
0.00029864033
0.0013875976
0.00014713702
0.00080440996
9.3799767e-05
0.0005430031
0.00041518154
0.00039741254
0.00033293508
0.0003039575
0.00026789404
0.00024261064
0.00021904779
0.00019956936
0.00018244226
0.00016756781
0.00015447186
0.00014289026
0.00013258409
0.00012336574
0.00011508065
0.0001076016
0.00010082305
9.4656342e-05
8.9026643e-05
8.3870595e-05
7.9134054e-05
7.4770721e-05
7.0740767e-05
6.7009511e-05
6.3546748e-05
6.0326164e-05
5.732465e-05
5.4521832e-05
5.1899791e-05
4.9442681e-05
4.71363e-05
4.4967974e-05
4.2926401e-05
4.100145e-05
3.9184002e-05
3.7465824e-05
3.5839548e-05
3.4298503e-05
3.2836552e-05
3.1448128e-05
3.0128187e-05
2.8872109e-05
2.7675682e-05
2.6535027e-05
2.54466e-05
2.4407211e-05
2.3413856e-05
2.246373e-05
2.1554294e-05
2.0683192e-05
1.984824e-05
1.9047415e-05
1.8278835e-05
1.7540779e-05
1.6831654e-05
1.6149936e-05
1.5494207e-05
1.4863165e-05
1.4255583e-05
1.367032e-05
1.3106301e-05
1.2562525e-05
1.2038085e-05
1.1532096e-05
1.1043718e-05
1.0572184e-05
1.0116763e-05
9.6767728e-06
9.2515657e-06
8.8405379e-06
8.4431356e-06
8.0588138e-06
7.6870602e-06
7.3273993e-06
6.9793785e-06
6.6425647e-06
6.3165575e-06
6.0009814e-06
5.6953698e-06
5.3996936e-06
5.1209454e-06
4.866339e-06
4.634666e-06
4.4229779e-06
4.22907e-06
4.0508665e-06
3.8866008e-06
3.7347417e-06
3.5939558e-06
3.4630801e-06
3.3411001e-06
3.227117e-06
3.1203234e-06
3.0199938e-06
2.9254524e-06
2.8360887e-06
2.7512217e-06
2.6703653e-06
2.5923245e-06
2.517636e-06
2.4404675e-06
2.3750412e-06
2.2792225e-06
0.007246474
0.0070844471
0.0069909013
0.0069413157
0.0069104756
0.0068887516
0.0068724801
0.006859903
0.0068499873
0.0068420611
0.0068356665
0.0068304848
0.0068262937
0.0068229428
0.0068203429
0.0068184618
0.0068173536
0.0068171435
0.0068183353
0.0068213438
0.0068289901
0.0068495876
0.0068374365
0.0085324236
0.020965867
0.0015154408
0.0034378167
0.00029147025
0.0013307365
0.00014364422
0.00077386141
9.1790322e-05
0.00052360734
0.00040123564
0.00038399257
0.00032208024
0.00029416286
0.00025947077
0.00023510789
0.00021240361
0.00019361865
0.00017709462
0.00016273545
0.00015008724
0.00013889618
0.0001289331
0.00012001778
0.00011200177
0.00010476277
9.8199296e-05
9.2226063e-05
8.6771062e-05
8.1773303e-05
7.7180646e-05
7.2948495e-05
6.9038474e-05
6.5417158e-05
6.2055425e-05
5.8927898e-05
5.6012287e-05
5.3288932e-05
5.0740538e-05
4.8351808e-05
4.6109028e-05
4.3999957e-05
4.2013676e-05
4.0140397e-05
3.8371307e-05
3.669845e-05
3.5114701e-05
3.3613606e-05
3.2189233e-05
3.0836193e-05
2.9549605e-05
2.8324998e-05
2.7158293e-05
2.6045737e-05
2.4983896e-05
2.3969681e-05
2.3000182e-05
2.2072681e-05
2.1184718e-05
2.0334007e-05
1.9518434e-05
1.8736036e-05
1.7984989e-05
1.7263625e-05
1.6570397e-05
1.5903826e-05
1.5262539e-05
1.464527e-05
1.4050829e-05
1.3478108e-05
1.2926064e-05
1.2393724e-05
1.1880208e-05
1.1384658e-05
1.0906255e-05
1.0444255e-05
9.9979475e-06
9.5666696e-06
9.1497918e-06
8.7467269e-06
8.3569364e-06
7.9798899e-06
7.6150892e-06
7.2620716e-06
6.9203967e-06
6.5896426e-06
6.2694197e-06
5.9593622e-06
5.6590154e-06
5.3683522e-06
5.0942447e-06
4.8438003e-06
4.6158561e-06
4.4075249e-06
4.2166466e-06
4.0411867e-06
3.8794129e-06
3.7298239e-06
3.5911117e-06
3.4621354e-06
3.3418996e-06
3.2295226e-06
3.1242117e-06
3.0252547e-06
2.931988e-06
2.8438118e-06
2.7600565e-06
2.680244e-06
2.603197e-06
2.5294453e-06
2.453234e-06
2.3886016e-06
2.2939507e-06
0.0071811841
0.0070142895
0.0069176778
0.0068663862
0.00683446
0.0068119605
0.0067951017
0.0067820653
0.0067717825
0.0067635576
0.0067569161
0.006751527
0.006747159
0.0067436543
0.0067409173
0.0067389105
0.0067376808
0.0067373483
0.0067383935
0.0067412453
0.0067485256
0.0067690166
0.0067533058
0.0084165733
0.020047252
0.0014878323
0.0032613761
0.00028369621
0.0012696663
0.00013983301
0.00074090689
8.9567351e-05
0.00050262126
0.00038609974
0.00036943928
0.00031028645
0.0002835193
0.00025030596
0.00022693995
0.00020516386
0.00018712999
0.0001712591
0.00015745843
0.00014529569
0.00013452832
0.00012493758
0.0001163513
0.00010862756
0.00010164942
9.5319748e-05
8.9556916e-05
8.4291963e-05
7.9466458e-05
7.5030433e-05
7.0941133e-05
6.7161757e-05
6.3660236e-05
6.0408625e-05
5.7382561e-05
5.4560641e-05
5.1923979e-05
4.9455956e-05
4.7141873e-05
4.4968545e-05
4.2924199e-05
4.0998333e-05
3.9181533e-05
3.7465316e-05
3.5842027e-05
3.4304804e-05
3.2847435e-05
3.1464202e-05
3.0149913e-05
2.8899866e-05
2.7709751e-05
2.6575634e-05
2.5493896e-05
2.4461226e-05
2.3474645e-05
2.2531343e-05
2.1628697e-05
2.0764332e-05
1.9936044e-05
1.9141788e-05
1.8379672e-05
1.7647931e-05
1.6944955e-05
1.626925e-05
1.5619387e-05
1.4994036e-05
1.4391976e-05
1.3812054e-05
1.32532e-05
1.2714403e-05
1.2194725e-05
1.1693313e-05
1.1209335e-05
1.0742002e-05
1.029059e-05
9.8544129e-06
9.4328284e-06
9.0252267e-06
8.6310388e-06
8.249743e-06
7.880825e-06
7.5238021e-06
7.1782253e-06
6.8436677e-06
6.5197198e-06
6.2060037e-06
5.9021643e-06
5.60776e-06
5.3227656e-06
5.0539178e-06
4.8082014e-06
4.5845011e-06
4.3799978e-06
4.1925806e-06
4.0202613e-06
3.8613458e-06
3.7143656e-06
3.5780413e-06
3.4512569e-06
3.3330383e-06
3.2225226e-06
3.1189339e-06
3.0215747e-06
2.9297951e-06
2.8430074e-06
2.7605548e-06
2.6819683e-06
2.606091e-06
2.5334446e-06
2.4583651e-06
2.394674e-06
2.3014075e-06
0.0071065782
0.0069341028
0.006833958
0.0067806981
0.0067475187
0.0067241245
0.0067065879
0.0066930216
0.0066823153
0.0066737458
0.0066668195
0.0066611915
0.0066566197
0.0066529382
0.0066500443
0.0066478939
0.0066465263
0.0066460561
0.0066469381
0.0066496173
0.0066564959
0.0066768867
0.0066572009
0.0082851179
0.019093516
0.0014589652
0.0030743586
0.00027528283
0.0012043098
0.00013568128
0.00070546574
8.7113593e-05
0.00047997667
0.00036971521
0.00035369588
0.00029750325
0.00027197985
0.00024035684
0.00021806729
0.00019729214
0.00018006966
0.00016490438
0.00015170762
0.00014007003
0.00012976123
0.0001205737
0.0001123439
0.00010493697
9.8241685e-05
9.2165658e-05
8.6631171e-05
8.1572552e-05
7.6934134e-05
7.2668289e-05
6.8734252e-05
6.5096919e-05
6.1725692e-05
5.8593893e-05
5.5678257e-05
5.2958339e-05
5.0416091e-05
4.8035626e-05
4.580289e-05
4.3705271e-05
4.1731505e-05
3.9871541e-05
3.8116367e-05
3.6457863e-05
3.4888696e-05
3.3402292e-05
3.1992698e-05
3.0654432e-05
2.9382515e-05
2.8172436e-05
2.7020061e-05
2.5921615e-05
2.4873624e-05
2.3872909e-05
2.291661e-05
2.2002027e-05
2.1126642e-05
2.0288171e-05
1.9484496e-05
1.8713652e-05
1.7973819e-05
1.7263302e-05