/*--------------------------------*- C++ -*----------------------------------*\
| =========                 |                                                 |
| \\      /  F ield         | OpenFOAM: The Open Source CFD Toolbox           |
|  \\    /   O peration     | Version:  2206                                  |
|   \\  /    A nd           | Website:  www.openfoam.com                      |
|    \\/     M anipulation  |                                                 |
\*---------------------------------------------------------------------------*/
FoamFile
{
    version     2.0;
    format      ascii;
    arch        "LSB;label=32;scalar=64";
    class       volScalarField;
    location    "1600";
    object      k;
}
// * * * * * * * * * * * * * * * * * * * * * * * * * * * * * * * * * * * * * //

dimensions      [0 2 -2 0 0 0 0];

internalField   nonuniform List<scalar> 
13056
(
0.00012705371
0.00011606598
0.00011210626
0.00011010214
0.00010883477
0.00010794342
0.00010728167
0.00010677385
0.00010637491
0.00010605576
0.00010579667
0.00010558376
0.00010540696
0.00010525882
0.00010513367
0.00010502724
0.00010493592
0.00010485795
0.00010478835
0.00010473761
0.00010465435
0.00010479013
0.00010380447
0.00010857432
1.7728033e-05
2.6944885e-06
5.3656866e-06
9.2217661e-07
2.7681887e-06
5.727807e-07
1.8963531e-06
4.1722544e-07
1.4434442e-06
1.1938265e-06
1.1616139e-06
1.0260379e-06
9.6425122e-07
8.8281705e-07
8.2440973e-07
7.67837e-07
7.198231e-07
6.763213e-07
6.3754698e-07
6.0250917e-07
5.7075979e-07
5.4183249e-07
5.1536624e-07
4.9105387e-07
4.6863851e-07
4.4790302e-07
4.2866138e-07
4.1075378e-07
3.9404262e-07
3.7840828e-07
3.6374703e-07
3.4996829e-07
3.3699187e-07
3.2474683e-07
3.1317061e-07
3.0220746e-07
2.9180754e-07
2.8192656e-07
2.7252491e-07
2.6356649e-07
2.5501871e-07
2.468522e-07
2.390403e-07
2.3155872e-07
2.2438528e-07
2.1750003e-07
2.1088471e-07
2.0452223e-07
1.9839693e-07
1.9249454e-07
1.8680181e-07
1.8130658e-07
1.7599748e-07
1.7086407e-07
1.6589699e-07
1.610872e-07
1.5642611e-07
1.51906e-07
1.4751957e-07
1.4326002e-07
1.3912099e-07
1.3509647e-07
1.3118102e-07
1.2736952e-07
1.2365698e-07
1.2003871e-07
1.1651041e-07
1.1306795e-07
1.0970749e-07
1.0642533e-07
1.0321803e-07
1.000825e-07
9.7015627e-08
9.4014384e-08
9.1076037e-08
8.8197936e-08
8.5377581e-08
8.2612558e-08
7.9900599e-08
7.7239652e-08
7.462761e-08
7.2062437e-08
6.9542244e-08
6.7065196e-08
6.4629475e-08
6.2233385e-08
5.9875313e-08
5.7552746e-08
5.5266655e-08
5.3074338e-08
5.1038089e-08
4.915423e-08
4.7405037e-08
4.5777946e-08
4.4260352e-08
4.2841424e-08
4.1511579e-08
4.0262312e-08
3.9086074e-08
3.797617e-08
3.6926551e-08
3.5931645e-08
3.498633e-08
3.4085656e-08
3.3225056e-08
3.2399014e-08
3.1603738e-08
3.0828053e-08
3.0077936e-08
2.9294575e-08
2.8623663e-08
2.762629e-08
0.00012704362
0.00011604842
0.0001120859
0.00011008032
0.00010881202
0.00010792002
0.00010725778
0.00010674958
0.00010635033
0.00010603094
0.00010577166
0.00010555858
0.00010538164
0.00010523339
0.00010510814
0.00010500163
0.00010491023
0.00010483219
0.00010476254
0.00010471175
0.00010462843
0.00010476428
0.00010377801
0.00010855112
1.7689618e-05
2.670465e-06
5.2541271e-06
9.1189018e-07
2.7146545e-06
5.6575719e-07
1.8616985e-06
4.1232695e-07
1.4183762e-06
1.1743187e-06
1.1423515e-06
1.009596e-06
9.488972e-07
8.6908127e-07
8.1174798e-07
7.5624568e-07
7.0911064e-07
6.6640331e-07
6.2832466e-07
5.9390922e-07
5.6271636e-07
5.3429033e-07
5.0827738e-07
4.843768e-07
4.6233697e-07
4.4194515e-07
4.2301912e-07
4.0540222e-07
3.8895962e-07
3.7357405e-07
3.5914379e-07
3.4558007e-07
3.3280422e-07
3.2074669e-07
3.093461e-07
2.9854778e-07
2.8830281e-07
2.7856775e-07
2.6930372e-07
2.6047531e-07
2.5205051e-07
2.440005e-07
2.3629911e-07
2.289225e-07
2.2184888e-07
2.1505868e-07
2.0853395e-07
2.0225792e-07
1.962152e-07
1.9039178e-07
1.8477464e-07
1.7935183e-07
1.7411219e-07
1.6904545e-07
1.6414242e-07
1.593942e-07
1.5479237e-07
1.5032932e-07
1.4599789e-07
1.4179139e-07
1.3770356e-07
1.3372849e-07
1.2986084e-07
1.2609558e-07
1.2242779e-07
1.1885286e-07
1.1536656e-07
1.1196483e-07
1.0864389e-07
1.0540009e-07
1.0223006e-07
9.9130764e-08
9.6099119e-08
9.3132156e-08
9.0227183e-08
8.7381591e-08
8.4592917e-08
8.1858784e-08
7.9176959e-08
7.6545421e-08
7.3962094e-08
7.1424972e-08
6.8932194e-08
6.6481951e-08
6.4072452e-08
6.1702025e-08
5.9369081e-08
5.7071144e-08
5.4809172e-08
5.263981e-08
5.0624725e-08
4.8760375e-08
4.7029245e-08
4.5418909e-08
4.3916904e-08
4.2512514e-08
4.1196263e-08
3.9959736e-08
3.8795465e-08
3.7696829e-08
3.6657842e-08
3.5672995e-08
3.473722e-08
3.3845621e-08
3.2993679e-08
3.2175939e-08
3.1388646e-08
3.0620742e-08
2.9878152e-08
2.9102593e-08
2.8438376e-08
2.7451159e-08
0.00012701114
0.00011599305
0.000112022
0.000110012
0.00010874087
0.00010784686
0.00010718313
0.00010667377
0.00010627362
0.00010595349
0.00010569361
0.00010548004
0.00010530269
0.00010515408
0.00010502853
0.00010492176
0.00010483014
0.0001047519
0.00010468207
0.00010463114
0.00010454761
0.00010468369
0.00010369561
0.00010847776
1.7654272e-05
2.646443e-06
5.1425625e-06
9.0152247e-07
2.6609483e-06
5.5866585e-07
1.8268746e-06
4.0737371e-07
1.3931568e-06
1.1546591e-06
1.1229572e-06
9.9302608e-07
9.3342627e-07
8.5523281e-07
7.9898097e-07
7.4455378e-07
6.9830295e-07
6.5639447e-07
6.1901576e-07
5.8522651e-07
5.5459373e-07
5.2667224e-07
5.0111566e-07
4.776297e-07
4.5596803e-07
4.3592237e-07
4.1731425e-07
3.9999022e-07
3.8381821e-07
3.6868331e-07
3.5448586e-07
3.4113886e-07
3.2856519e-07
3.1669669e-07
3.0547318e-07
2.9484104e-07
2.8475233e-07
2.7516443e-07
2.660392e-07
2.5734192e-07
2.4904118e-07
2.4110869e-07
2.335188e-07
2.2624809e-07
2.1927521e-07
2.1258092e-07
2.0614762e-07
1.9995884e-07
1.9399948e-07
1.8825578e-07
1.8271496e-07
1.7736527e-07
1.7219576e-07
1.6719634e-07
1.6235798e-07
1.5767196e-07
1.5312998e-07
1.4872457e-07
1.4444871e-07
1.402958e-07
1.362597e-07
1.3233462e-07
1.2851527e-07
1.2479675e-07
1.2117419e-07
1.1764308e-07
1.1419924e-07
1.108387e-07
1.0755772e-07
1.0435274e-07
1.0122041e-07
9.8157765e-08
9.5161769e-08
9.22295e-08
8.9358308e-08
8.6545625e-08
8.3789028e-08
8.1086178e-08
7.8434875e-08
7.583313e-08
7.3278899e-08
7.0770204e-08
6.8305215e-08
6.588215e-08
6.3499241e-08
6.1154845e-08
5.8847394e-08
5.657445e-08
5.4336959e-08
5.2190906e-08
5.0197316e-08
4.8352786e-08
4.6640009e-08
4.5046701e-08
4.3560539e-08
4.2170928e-08
4.0868495e-08
3.9644921e-08
3.849282e-08
3.7405644e-08
3.6377473e-08
3.5402859e-08
3.447679e-08
3.3594424e-08
3.2751294e-08
3.1942002e-08
3.1162834e-08
3.0402853e-08
2.9667923e-08
2.890032e-08
2.8242919e-08
2.7266044e-08
0.00012695527
0.00011589812
0.00011191254
0.00010989501
0.00010861906
0.00010772164
0.00010705536
0.00010654404
0.00010614233
0.00010582096
0.00010556006
0.00010534565
0.00010516759
0.00010501838
0.00010489232
0.00010478511
0.00010469309
0.00010461452
0.00010454438
0.00010449322
0.00010440934
0.00010454578
0.00010355467
0.00010835195
1.7621837e-05
2.6221092e-06
5.0295096e-06
8.9093892e-07
2.6063545e-06
5.5141419e-07
1.791415e-06
4.0229824e-07
1.3674469e-06
1.1345807e-06
1.1031694e-06
9.7610323e-07
9.1762906e-07
8.410837e-07
7.8593548e-07
7.3260245e-07
6.8725314e-07
6.4615867e-07
6.0949362e-07
5.763428e-07
5.4628123e-07
5.1887438e-07
4.9378336e-07
4.7072047e-07
4.4944472e-07
4.2975236e-07
4.1146875e-07
3.9444373e-07
3.78548e-07
3.6366908e-07
3.4970938e-07
3.3658372e-07
3.2421657e-07
3.1254117e-07
3.0149856e-07
2.9103623e-07
2.8110718e-07
2.7166965e-07
2.6268628e-07
2.5412302e-07
2.4594907e-07
2.3813673e-07
2.3066081e-07
2.2349838e-07
2.1662848e-07
2.1003225e-07
2.0369245e-07
1.975929e-07
1.9171879e-07
1.8605662e-07
1.8059385e-07
1.7531896e-07
1.7022119e-07
1.6529066e-07
1.6051848e-07
1.5589608e-07
1.5141536e-07
1.4706894e-07
1.4284995e-07
1.387519e-07
1.3476876e-07
1.3089484e-07
1.2712496e-07
1.2345429e-07
1.1987806e-07
1.1639182e-07
1.1299149e-07
1.0967313e-07
1.0643311e-07
1.0326789e-07
1.0017421e-07
9.7149127e-08
9.4189676e-08
9.1292978e-08
8.8456427e-08
8.5677497e-08
8.2953805e-08
8.0283048e-08
7.7663066e-08
7.50919e-08
7.2567536e-08
7.008803e-08
6.765158e-08
6.525643e-08
6.2900842e-08
6.0583197e-08
5.8301951e-08
5.6054705e-08
5.3842392e-08
5.1720319e-08
4.9748854e-08
4.7924726e-08
4.6230847e-08
4.4655071e-08
4.3185227e-08
4.1810838e-08
4.0522643e-08
3.9312416e-08
3.8172856e-08
3.7097491e-08
3.6080469e-08
3.5116404e-08
3.4200342e-08
3.3327498e-08
3.2493455e-08
3.1692877e-08
3.092209e-08
3.0170281e-08
2.9443254e-08
2.868387e-08
2.8033504e-08
2.7067296e-08
0.00012687449
0.00011576092
0.00011175437
0.00010972597
0.00010844307
0.00010754073
0.00010687077
0.00010635662
0.00010595268
0.00010562951
0.00010536714
0.0001051515
0.00010497243
0.00010482235
0.00010469555
0.0001045877
0.00010449513
0.00010441608
0.00010434549
0.00010429398
0.00010420961
0.00010434657
0.00010335111
0.00010817008
1.7592091e-05
2.5971731e-06
4.9135791e-06
8.8000935e-07
2.550193e-06
5.43912e-07
1.7548731e-06
3.9703424e-07
1.34092e-06
1.1138249e-06
1.082735e-06
9.5860951e-07
9.0130253e-07
8.2645133e-07
7.7244307e-07
7.2023707e-07
6.7581808e-07
6.3556312e-07
5.9963456e-07
5.6714257e-07
5.3767064e-07
5.107951e-07
4.8618484e-07
4.6355887e-07
4.4268174e-07
4.2335437e-07
4.0540605e-07
3.8869e-07
3.7307979e-07
3.5846544e-07
3.447515e-07
3.3185465e-07
3.1970102e-07
3.0822528e-07
2.9736974e-07
2.87083e-07
2.7731908e-07
2.6803708e-07
2.5920044e-07
2.507758e-07
2.4273303e-07
2.3504497e-07
2.2768697e-07
2.2063657e-07
2.1387323e-07
2.0737849e-07
2.0113543e-07
1.9512823e-07
1.8934236e-07
1.8376458e-07
1.7838262e-07
1.7318516e-07
1.6816167e-07
1.6330244e-07
1.5859878e-07
1.5404229e-07
1.4962499e-07
1.4533968e-07
1.4117958e-07
1.3713836e-07
1.3321008e-07
1.2938917e-07
1.2567055e-07
1.2204946e-07
1.1852124e-07
1.1508151e-07
1.1172627e-07
1.0845166e-07
1.0525409e-07
1.0213011e-07
9.9076499e-08
9.6090385e-08
9.3168846e-08
9.0309054e-08
8.7508449e-08
8.4764551e-08
8.2075015e-08
7.943758e-08
7.6850122e-08
7.4310715e-08
7.1817379e-08
6.9368203e-08
6.6961412e-08
6.4595283e-08
6.2268102e-08
5.9978279e-08
5.7724293e-08
5.5503788e-08
5.3317681e-08
5.1220578e-08
4.9272161e-08
4.746929e-08
4.5795103e-08
4.4237602e-08
4.2784766e-08
4.1426249e-08
4.0152899e-08
3.8956591e-08
3.7830112e-08
3.6767069e-08
3.5761679e-08
3.4808622e-08
3.3903005e-08
3.30401e-08
3.2215541e-08
3.1424061e-08
3.0662025e-08
2.9918751e-08
2.9199974e-08
2.8449183e-08
2.7806164e-08
2.6851094e-08
0.00012676673
0.00011557781
0.00011154325
0.00010950034
0.00010820816
0.00010729924
0.00010662438
0.00010610645
0.00010569952
0.00010537395
0.00010510962
0.00010489236
0.00010471192
0.00010456069
0.00010443291
0.0001043242
0.00010423089
0.00010415119
0.00010408001
0.00010402805
0.000103943
0.00010408064
0.00010307941
0.00010792732
1.7565047e-05
2.571366e-06
4.793467e-06
8.6860702e-07
2.4918146e-06
5.3607067e-07
1.7168189e-06
3.91516e-07
1.3132599e-06
1.0921401e-06
1.061408e-06
9.4033214e-07
8.8424843e-07
8.1115702e-07
7.5833881e-07
7.0730599e-07
6.638573e-07
6.2447739e-07
5.8931698e-07
5.5751215e-07
5.2865538e-07
5.0233424e-07
4.7822571e-07
4.560558e-07
4.3559484e-07
4.1664857e-07
3.9905039e-07
3.8265703e-07
3.6734506e-07
3.5300709e-07
3.3954991e-07
3.2689215e-07
3.1496163e-07
3.0369454e-07
2.9303451e-07
2.8293131e-07
2.7333998e-07
2.6422057e-07
2.5553732e-07
2.4725762e-07
2.3935199e-07
2.3179389e-07
2.245592e-07
2.1762594e-07
2.1097405e-07
2.0458544e-07
1.9844359e-07
1.9253298e-07
1.8683941e-07
1.8134991e-07
1.7605248e-07
1.7093603e-07
1.6599026e-07
1.6120565e-07
1.565737e-07
1.5208617e-07
1.4773526e-07
1.4351389e-07
1.3941545e-07
1.3543371e-07
1.3156288e-07
1.2779747e-07
1.2413251e-07
1.2056335e-07
1.170854e-07
1.136944e-07
1.1038639e-07
1.071576e-07
1.0400451e-07
1.0092375e-07
9.791214e-08
9.4966871e-08
9.2085076e-08
8.926398e-08
8.6501071e-08
8.3793914e-08
8.114021e-08
7.8537737e-08
7.5984409e-08
7.3478338e-08
7.1017576e-08
6.8600248e-08
6.622461e-08
6.3888967e-08
6.1591637e-08
5.9331057e-08
5.7105732e-08
5.4913347e-08
5.2754808e-08
5.0683982e-08
4.875983e-08
4.6979343e-08
4.5325896e-08
4.3787645e-08
4.2352729e-08
4.1010936e-08
3.9753232e-08
3.8571596e-08
3.7458908e-08
3.6408856e-08
3.5415733e-08
3.4474286e-08
3.3579687e-08
3.2727266e-08
3.1912716e-08
3.1130835e-08
3.0378033e-08
2.9643766e-08
2.8933697e-08
2.8191986e-08
2.7556724e-08
2.6613404e-08
0.00012662942
0.0001153442
0.00011127385
0.00010921241
0.00010790837
0.00010699106
0.00010630994
0.00010578718
0.00010537644
0.0001050478
0.00010478096
0.00010456163
0.00010437945
0.00010422676
0.00010409771
0.00010398792
0.00010389366
0.00010381313
0.0001037412
0.00010368864
0.00010360274
0.00010374124
0.00010273268
0.00010761759
1.7540961e-05
2.5444418e-06
4.6679523e-06
8.5660824e-07
2.4305994e-06
5.2780283e-07
1.6768376e-06
3.8567815e-07
1.2841598e-06
1.06928e-06
1.038948e-06
9.2106267e-07
8.6627245e-07
7.9502525e-07
7.4346052e-07
6.936599e-07
6.5123232e-07
6.1277273e-07
5.7842073e-07
5.4733908e-07
5.1912992e-07
4.9339252e-07
4.6981238e-07
4.4812286e-07
4.2810034e-07
4.0955562e-07
3.9232643e-07
3.7627318e-07
3.6127558e-07
3.4722898e-07
3.3404251e-07
3.2163684e-07
3.0994161e-07
2.9889457e-07
2.8844074e-07
2.7853113e-07
2.6912187e-07
2.6017398e-07
2.5165255e-07
2.4352577e-07
2.3576485e-07
2.2834387e-07
2.2123929e-07
2.1442966e-07
2.0789538e-07
2.0161879e-07
1.9558374e-07
1.8977509e-07
1.8417895e-07
1.7878266e-07
1.7357447e-07
1.6854355e-07
1.6367984e-07
1.5897402e-07
1.5441779e-07
1.5000309e-07
1.4572228e-07
1.4156846e-07
1.3753514e-07
1.3361624e-07
1.2980608e-07
1.2609931e-07
1.2249106e-07
1.1897677e-07
1.1555196e-07
1.1221244e-07
1.0895436e-07
1.0577402e-07
1.0266796e-07
9.9632886e-08
9.6665696e-08
9.3763627e-08
9.0923875e-08
8.8143719e-08
8.5420699e-08
8.2752427e-08
8.0136651e-08
7.7571192e-08
7.5054007e-08
7.2583242e-08
7.0156988e-08
6.7773405e-08
6.5430783e-08
6.3127459e-08
6.0861781e-08
5.8632216e-08
5.6437298e-08
5.4274753e-08
5.2145476e-08
5.0102555e-08
4.8204183e-08
4.6447482e-08
4.4816076e-08
4.3298288e-08
4.1882425e-08
4.0558415e-08
3.9317351e-08
3.8151321e-08
3.7053304e-08
3.6017075e-08
3.5037007e-08
3.4107918e-08
3.3225046e-08
3.2383788e-08
3.1579893e-08
3.0808235e-08
3.0065268e-08
2.9340594e-08
2.8639798e-08
2.7907767e-08
2.7280767e-08
2.6349957e-08
0.00012645954
0.00011505466
0.00011093984
0.00010885537
0.0001075366
0.00010660887
0.00010591998
0.00010539123
0.00010497576
0.00010464331
0.00010437337
0.00010415146
0.00010396712
0.0001038126
0.00010368199
0.00010357085
0.00010347541
0.00010339386
0.00010332099
0.00010326771
0.00010318075
0.00010332031
0.00010230269
0.00010723368
1.7520361e-05
2.5161807e-06
4.5359027e-06
8.4389223e-07
2.3659582e-06
5.1902217e-07
1.63453e-06
3.7945545e-07
1.2533218e-06
1.0450043e-06
1.0151207e-06
9.0059683e-07
8.4718405e-07
7.778835e-07
7.2764857e-07
6.791516e-07
6.3780642e-07
6.0032189e-07
5.6682694e-07
5.3651198e-07
5.0898964e-07
4.8387143e-07
4.6085189e-07
4.3967215e-07
4.2011497e-07
4.0199652e-07
3.851591e-07
3.6946699e-07
3.5480327e-07
3.4106614e-07
3.2816723e-07
3.1602938e-07
3.0458413e-07
2.9377091e-07
2.835362e-07
2.7383233e-07
2.6461658e-07
2.5585099e-07
2.4750158e-07
2.3953734e-07
2.3193026e-07
2.2465506e-07
2.1768883e-07
2.1101065e-07
2.0460142e-07
1.9844395e-07
1.9252249e-07
1.8682227e-07
1.8132975e-07
1.7603259e-07
1.7091932e-07
1.6597939e-07
1.6120297e-07
1.5658098e-07
1.5210531e-07
1.4776809e-07
1.4356189e-07
1.3947994e-07
1.3551592e-07
1.316639e-07
1.2791832e-07
1.2427397e-07
1.2072608e-07
1.1727021e-07
1.1390198e-07
1.1061729e-07
1.0741237e-07
1.0428362e-07
1.0122767e-07
9.8241272e-08
9.5321406e-08
9.2465372e-08
8.9670427e-08
8.693391e-08
8.4253415e-08
8.1626605e-08
7.9051277e-08
7.65253e-08
7.4046673e-08
7.1613582e-08
6.9224158e-08
6.6876599e-08
6.4569231e-08
6.2300423e-08
6.0068559e-08
5.7872136e-08
5.5709718e-08
5.3579076e-08
5.1481093e-08
4.9468028e-08
4.7597248e-08
4.5866013e-08
4.425821e-08
4.2762337e-08
4.1366882e-08
4.0061924e-08
3.883869e-08
3.7689385e-08
3.6607094e-08
3.5585685e-08
3.4619613e-08
3.3703776e-08
3.2833482e-08
3.2004197e-08
3.1211734e-08
3.0451043e-08
2.9718628e-08
2.9004249e-08
2.8313403e-08
2.7591766e-08
2.6973635e-08
2.6056242e-08
0.00012625362
0.00011470289
0.00011053386
0.00010842134
0.00010708464
0.00010614422
0.00010544586
0.00010490981
0.00010448858
0.00010415151
0.00010387778
0.00010365273
0.00010346577
0.00010330903
0.00010317651
0.00010306374
0.00010296687
0.00010288406
0.00010281006
0.00010275589
0.00010266764
0.00010280848
0.00010177989
0.00010676724
1.7504076e-05
2.4863941e-06
4.3962873e-06
8.3034152e-07
2.2973378e-06
5.0964358e-07
1.5895155e-06
3.7278286e-07
1.2204592e-06
1.0190791e-06
9.8969815e-07
8.7873532e-07
8.2679713e-07
7.5956276e-07
7.1074635e-07
6.6363637e-07
6.2344503e-07
5.869994e-07
5.5441821e-07
5.2492074e-07
4.9813096e-07
4.7367334e-07
4.5125202e-07
4.3061639e-07
4.1155598e-07
3.9389269e-07
3.7747365e-07
3.6216729e-07
3.4786023e-07
3.3445374e-07
3.2186211e-07
3.1001047e-07
2.9883239e-07
2.8826908e-07
2.7826861e-07
2.6878469e-07
2.5977584e-07
2.5120517e-07
2.430397e-07
2.3524929e-07
2.2780672e-07
2.2068744e-07
2.1386916e-07
2.0733158e-07
2.0105613e-07
1.9502608e-07
1.8922614e-07
1.8364193e-07
1.7826029e-07
1.730692e-07
1.680575e-07
1.6321494e-07
1.5853193e-07
1.5399966e-07
1.4961021e-07
1.4535594e-07
1.4122958e-07
1.3722458e-07
1.3333476e-07
1.2955433e-07
1.2587791e-07
1.2230039e-07
1.1881715e-07
1.1542384e-07
1.121162e-07
1.0889025e-07
1.0574229e-07
1.0266883e-07
9.9666556e-08
9.6732324e-08
9.3863183e-08
9.1056497e-08
8.8309591e-08
8.5619867e-08
8.2984977e-08
8.0402641e-08
7.7870706e-08
7.5387093e-08
7.2949847e-08
7.0557196e-08
6.8207315e-08
6.5898441e-08
6.362894e-08
6.1397217e-08
5.9201691e-08
5.7040893e-08
5.4913418e-08
5.2817089e-08
5.0752771e-08
4.877184e-08
4.6930771e-08
4.5226963e-08
4.3644583e-08
4.2172319e-08
4.0798856e-08
3.9514432e-08
3.8310416e-08
3.7179143e-08
3.6113808e-08
3.5108379e-08
3.4157405e-08
3.3255863e-08
3.2399139e-08
3.1582774e-08
3.0802648e-08
3.0053793e-08
2.9332768e-08
2.8629501e-08
2.7949395e-08
2.7238986e-08
2.663043e-08
2.5727511e-08
0.00012600778
0.0001142818
0.00011004762
0.0001079014
0.00010654316
0.00010558752
0.0001048778
0.000104333
0.00010390486
0.00010356223
0.00010328395
0.00010305515
0.00010286504
0.00010270563
0.00010257084
0.00010245609
0.0001023575
0.0001022732
0.00010219784
0.0001021426
0.00010205282
0.00010219518
0.00010115348
0.00010620884
1.7493281e-05
2.4549331e-06
4.2481968e-06
8.1584287e-07
2.2242283e-06
4.995836e-07
1.5414363e-06
3.6559582e-07
1.1852992e-06
9.912796e-07
9.6246158e-07
8.5528547e-07
8.049315e-07
7.3989884e-07
6.9260142e-07
6.4697301e-07
6.0801658e-07
5.7268236e-07
5.4107939e-07
5.1245717e-07
4.86452e-07
4.6270206e-07
4.4092179e-07
4.2086935e-07
4.0234155e-07
3.8516634e-07
3.6919603e-07
3.5430348e-07
3.4037907e-07
3.2732738e-07
3.1506552e-07
3.0352108e-07
2.9262981e-07
2.8233482e-07
2.7258586e-07
2.6333811e-07
2.5455144e-07
2.4619013e-07
2.3822222e-07
2.3061852e-07
2.2335268e-07
2.1640089e-07
2.0974158e-07
2.0335506e-07
1.9722335e-07
1.9133024e-07
1.8566088e-07
1.8020135e-07
1.7493887e-07
1.6986178e-07
1.6495927e-07
1.6022137e-07
1.5563879e-07
1.5120297e-07
1.4690622e-07
1.4274113e-07
1.3870065e-07
1.3477838e-07
1.3096835e-07
1.2726493e-07
1.2366288e-07
1.2015726e-07
1.1674356e-07
1.1341756e-07
1.1017512e-07
1.0701237e-07
1.0392572e-07
1.0091175e-07
9.7967262e-08
9.508919e-08
9.2274661e-08
8.9521114e-08
8.6825945e-08
8.4186623e-08
8.1600864e-08
7.9066447e-08
7.6581276e-08
7.4143324e-08
7.1750689e-08
6.9401644e-08
6.7094409e-08
6.4827267e-08
6.2598623e-08
6.0406923e-08
5.8250624e-08
5.6128293e-08
5.403856e-08
5.1979299e-08
4.9951362e-08
4.8005171e-08
4.6196237e-08
4.4522099e-08
4.2967229e-08
4.1520515e-08
4.0170854e-08
3.8908659e-08
3.7725453e-08
3.6613706e-08
3.5566736e-08
3.457862e-08
3.3644002e-08
3.275795e-08
3.1915933e-08
3.1113572e-08
3.0346818e-08
2.9610795e-08
2.8902119e-08
2.82109e-08
2.754244e-08
2.6844211e-08
2.6246039e-08
2.5358802e-08
0.00012571782
0.00011378353
0.00010947189
0.00010728564
0.00010590184
0.00010492811
0.00010420492
0.00010364973
0.00010321339
0.00010286417
0.00010258051
0.00010234725
0.00010215341
0.00010199083
0.00010185333
0.00010173625
0.00010163563
0.00010154955
0.00010147257
0.00010141608
0.00010132448
0.00010146863
0.00010041147
0.00010554803
1.7489545e-05
2.4216996e-06
4.0908727e-06
8.0028864e-07
2.1461764e-06
4.8876116e-07
1.489965e-06
3.578308e-07
1.1475875e-06
9.6139362e-07
9.3320429e-07
8.3006412e-07
7.8141548e-07
7.187346e-07
6.7306746e-07
6.2902562e-07
5.9139412e-07
5.5725194e-07
5.2669885e-07
4.9901618e-07
4.7385358e-07
4.5086383e-07
4.2977237e-07
4.1034678e-07
3.9239158e-07
3.7574123e-07
3.6025358e-07
3.4580619e-07
3.3229353e-07
3.1962368e-07
3.0771677e-07
2.9650303e-07
2.8592055e-07
2.7591448e-07
2.6643638e-07
2.5744301e-07
2.4889567e-07
2.4075988e-07
2.3300481e-07
2.2560229e-07
2.1852687e-07
2.1175558e-07
2.0526758e-07
1.9904387e-07
1.9306708e-07
1.8732157e-07
1.8179298e-07
1.7646787e-07
1.7133386e-07
1.663797e-07
1.6159492e-07
1.5696988e-07
1.5249561e-07
1.481638e-07
1.4396705e-07
1.3989815e-07
1.3595029e-07
1.3211728e-07
1.2839333e-07
1.2477299e-07
1.212512e-07
1.1782315e-07
1.1448449e-07
1.1123115e-07
1.0805909e-07
1.0496455e-07
1.0194408e-07
9.8994354e-08
9.6112268e-08
9.3294847e-08
9.0539306e-08
8.7843163e-08
8.5203889e-08
8.2619031e-08
8.0086368e-08
7.7603748e-08
7.5169132e-08
7.2780554e-08
7.0436165e-08
6.8134289e-08
6.5873194e-08
6.3651213e-08
6.1466793e-08
5.9318424e-08
5.7204605e-08
5.5123942e-08
5.3075101e-08
5.1056013e-08
4.9067517e-08
4.7159001e-08
4.5384935e-08
4.3742996e-08
4.2217984e-08
4.0799009e-08
3.9475193e-08
3.8237138e-08
3.7076534e-08
3.5986e-08
3.4958984e-08
3.398968e-08
3.3072838e-08
3.2203625e-08
3.1377597e-08
3.0590461e-08
2.9838249e-08
2.911618e-08
2.8420935e-08
2.774282e-08
2.7087027e-08
2.6402051e-08
2.5815177e-08
2.4944985e-08
0.00012537922
0.00011319949
0.0001087966
0.00010656321
0.00010514932
0.00010415433
0.00010341528
0.00010284789
0.00010240191
0.00010204494
0.00010175495
0.00010151646
0.00010131822
0.00010115193
0.00010101125
0.00010089143
0.00010078841
0.00010070025
0.00010062137
0.0001005634
0.00010046967
0.00010061592
9.9540722e-05
0.00010477337
1.749488e-05
2.3866621e-06
3.9237439e-06
7.8357903e-07
2.0628006e-06
4.7709881e-07
1.4348141e-06
3.4942621e-07
1.1070958e-06
9.2922649e-07
9.0173672e-07
8.0290162e-07
7.5608952e-07
6.959232e-07
6.5200725e-07
6.096662e-07
5.7345768e-07
5.4059546e-07
5.111705e-07
4.844976e-07
4.6024098e-07
4.3806887e-07
4.1771855e-07
3.9896762e-07
3.8162891e-07
3.655438e-07
3.5057606e-07
3.3660832e-07
3.2353939e-07
3.112811e-07
2.9975685e-07
2.8889971e-07
2.7865024e-07
2.689558e-07
2.5976988e-07
2.5105096e-07
2.4276185e-07
2.3486943e-07
2.2734406e-07
2.2015868e-07
2.1328881e-07
2.0671236e-07
2.0040931e-07
1.9436139e-07
1.885519e-07
1.8296578e-07
1.7758923e-07
1.7240929e-07
1.6741406e-07
1.6259268e-07
1.5793509e-07
1.5343199e-07
1.4907474e-07
1.4485533e-07
1.4076662e-07
1.3680168e-07
1.3295392e-07
1.2921739e-07
1.2558648e-07
1.2205596e-07
1.1862092e-07
1.1527676e-07
1.1201924e-07
1.0884445e-07
1.057485e-07
1.0272776e-07
9.9778877e-08
9.6898648e-08
9.4084076e-08
9.1332284e-08
8.8640582e-08
8.6006571e-08
8.3427806e-08
8.0901915e-08
7.8426749e-08
7.6000225e-08
7.3620373e-08
7.1285287e-08
6.8993179e-08
6.6742427e-08
6.4531351e-08
6.2358336e-08
6.022188e-08
5.8120517e-08
5.605279e-08
5.401735e-08
5.2012903e-08
5.0037438e-08
4.8091782e-08
4.6224207e-08
4.4488044e-08
4.2881118e-08
4.1388578e-08
3.9999773e-08
3.8704075e-08
3.7492288e-08
3.6356281e-08
3.5288835e-08
3.4283541e-08
3.333472e-08
3.2437237e-08
3.1586362e-08
3.077775e-08
3.0007201e-08
2.9270832e-08
2.8563968e-08
2.7883358e-08
2.7219524e-08
2.6577534e-08
2.5907006e-08
2.5332447e-08
2.4480816e-08
0.00012498723
0.00011252046
0.00010801083
0.00010572236
0.00010427334
0.00010325353
0.00010249599
0.00010191435
0.00010145714
0.00010109113
0.00010079376
0.00010054916
0.00010034581
0.00010017518
0.0001000308
9.990778e-05
9.9801974e-05
9.9711383e-05
9.9630298e-05
9.9570607e-05
9.94744e-05
9.9623076e-05
9.8527025e-05
0.00010387253
1.7511797e-05
2.349875e-06
3.7464723e-06
7.6562489e-07
1.9738129e-06
4.6452437e-07
1.3757495e-06
3.4032354e-07
1.0636299e-06
8.94608e-07
8.6789292e-07
7.7364738e-07
7.2881127e-07
6.7133246e-07
6.2929656e-07
5.8877823e-07
5.5409756e-07
5.2260941e-07
4.9439644e-07
4.6880872e-07
4.4552617e-07
4.2423351e-07
4.0468067e-07
3.8665598e-07
3.6998109e-07
3.5450482e-07
3.4009724e-07
3.2664643e-07
3.1405582e-07
3.022413e-07
2.9112973e-07
2.8065723e-07
2.7076704e-07
2.6140887e-07
2.5253828e-07
2.441156e-07
2.3610527e-07
2.2847561e-07
2.2119828e-07
2.1424739e-07
2.0759952e-07
2.0123354e-07
1.9513028e-07
1.8927228e-07
1.8364355e-07
1.7822968e-07
1.7301744e-07
1.6799441e-07
1.6314918e-07
1.5847136e-07
1.5395126e-07
1.4958001e-07
1.4534928e-07
1.4125142e-07
1.3727956e-07
1.3342705e-07
1.2968757e-07
1.2605538e-07
1.2252512e-07
1.1909176e-07
1.157506e-07
1.1249719e-07
1.093275e-07
1.0623773e-07
1.0322416e-07
1.002833e-07
9.7411914e-08
9.4606933e-08
9.186547e-08
8.9184756e-08
8.6562201e-08
8.3995497e-08
8.1482293e-08
7.9020299e-08
7.6607448e-08
7.4241732e-08
7.1921252e-08
6.9644171e-08
6.7408766e-08
6.5213471e-08
6.3056666e-08
6.0936793e-08
5.8852401e-08
5.6802073e-08
5.4784404e-08
5.2798089e-08
5.0841877e-08
4.8913824e-08
4.701474e-08
4.5191692e-08
4.3496769e-08
4.1927946e-08
4.047075e-08
3.9114791e-08
3.7849709e-08
3.6666527e-08
3.5557313e-08
3.4515019e-08
3.3533392e-08
3.2606892e-08
3.1730506e-08
3.0899622e-08
3.0109996e-08
2.9357532e-08
2.863844e-08
2.7948157e-08
2.7283509e-08
2.663525e-08
2.6008316e-08
2.535355e-08
2.4792425e-08
2.3961023e-08
0.00012453695
0.00011173663
0.00010710297
0.00010475055
0.00010326078
0.0001022122
0.00010143323
0.00010083509
0.00010036486
9.998839e-05
9.9682479e-05
9.9430801e-05
9.9221527e-05
9.9045889e-05
9.8897219e-05
9.8770501e-05
9.8661468e-05
9.8568068e-05
9.8484427e-05
9.8422749e-05
9.8323688e-05
9.8475159e-05
9.7355189e-05
0.00010283235
1.754335e-05
2.3115045e-06
3.559005e-06
7.463515e-07
1.8790434e-06
4.5097321e-07
1.3126055e-06
3.304691e-07
1.0170415e-06
8.5740093e-07
8.3153887e-07
7.4217685e-07
6.9946192e-07
6.4485061e-07
6.048294e-07
5.662614e-07
5.3321856e-07
5.0320335e-07
4.762906e-07
4.5186751e-07
4.2963094e-07
4.0928304e-07
3.9058729e-07
3.7334347e-07
3.5738263e-07
3.4256148e-07
3.2875687e-07
3.1586264e-07
3.0378721e-07
2.9245075e-07
2.8178389e-07
2.7172597e-07
2.6222309e-07
2.5322752e-07
2.4469701e-07
2.3659389e-07
2.2888432e-07
2.2153819e-07
2.1452854e-07
2.0783074e-07
2.0142252e-07
1.9528376e-07
1.8939624e-07
1.8374332e-07
1.7830983e-07
1.7308201e-07
1.6804727e-07
1.6319377e-07
1.5851062e-07
1.5398792e-07
1.4961642e-07
1.4538766e-07
1.4129371e-07
1.3732724e-07
1.3348171e-07
1.2975076e-07
1.2612835e-07
1.2260901e-07
1.1918761e-07
1.1585934e-07
1.1261971e-07
1.0946449e-07
1.063898e-07
1.0339204e-07
1.0046762e-07
9.7613203e-08
9.4825709e-08
9.2102189e-08
8.9439879e-08
8.6836129e-08
8.4288459e-08
8.1794659e-08
7.9352475e-08
7.6959712e-08
7.4614387e-08
7.2314577e-08
7.0058457e-08
6.7844267e-08
6.567035e-08
6.3535207e-08
6.143728e-08
5.9375071e-08
5.7347187e-08
5.5352264e-08
5.3388951e-08
5.1455993e-08
4.9552186e-08
4.7675656e-08
4.5827197e-08
4.4052569e-08
4.2402512e-08
4.0875149e-08
3.9456419e-08
3.8136213e-08
3.6904463e-08
3.5752431e-08
3.4672395e-08
3.3657498e-08
3.2701655e-08
3.1799475e-08
3.0946082e-08
3.0136985e-08
2.9368057e-08
2.8635309e-08
2.7935054e-08
2.7262851e-08
2.6615608e-08
2.5984335e-08
2.5373821e-08
2.4736247e-08
2.4189778e-08
2.338042e-08
0.00012402347
0.00011083775
0.00010606077
0.00010363454
0.0001020978
0.00010101607
0.00010021242
9.9595286e-05
9.9110082e-05
9.8721573e-05
9.8405834e-05
9.8146022e-05
9.7929936e-05
9.7748532e-05
9.7594933e-05
9.7463962e-05
9.735122e-05
9.725459e-05
9.7168015e-05
9.7104053e-05
9.7001727e-05
9.715639e-05
9.6009181e-05
0.000101639
1.7593165e-05
2.2718606e-06
3.3616327e-06
7.2570331e-07
1.7784695e-06
4.3639101e-07
1.2453049e-06
3.1981603e-07
9.6724178e-07
8.1751163e-07
7.9258268e-07
7.084002e-07
6.6795424e-07
6.1639334e-07
5.7852443e-07
5.4203737e-07
5.1074532e-07
4.823048e-07
4.5678327e-07
4.3360689e-07
4.1249068e-07
3.9315528e-07
3.7537856e-07
3.5897244e-07
3.4377797e-07
3.2966025e-07
3.1650329e-07
3.0420711e-07
2.9268541e-07
2.8186298e-07
2.716744e-07
2.6206248e-07
2.529764e-07
2.443711e-07
2.3620673e-07
2.284477e-07
2.2106207e-07
2.1402136e-07
2.0730011e-07
2.0087505e-07
1.947251e-07
1.8883127e-07
1.8317633e-07
1.7774456e-07
1.7252161e-07
1.6749447e-07
1.626512e-07
1.579806e-07
1.5347234e-07
1.4911702e-07
1.4490591e-07
1.4083096e-07
1.3688465e-07
1.3306003e-07
1.293509e-07
1.2575123e-07
1.2225525e-07
1.1885778e-07
1.1555395e-07
1.1233921e-07
1.0920929e-07
1.0616016e-07
1.0318814e-07
1.002898e-07
9.7461743e-08
9.4700783e-08
9.2003988e-08
8.9368551e-08
8.6791843e-08
8.4271339e-08
8.1804677e-08
7.9389754e-08
7.702442e-08
7.4706585e-08
7.2434356e-08
7.0205898e-08
6.8019472e-08
6.5873396e-08
6.376609e-08
6.1696122e-08
5.9662003e-08
5.7662301e-08
5.5695684e-08
5.3760848e-08
5.1856499e-08
4.9981435e-08
4.8134505e-08
4.6313907e-08
4.4520422e-08
4.2798394e-08
4.1197095e-08
3.9714802e-08
3.8337892e-08
3.7056565e-08
3.5861068e-08
3.474292e-08
3.369463e-08
3.2709545e-08
3.1781764e-08
3.0906057e-08
3.0077695e-08
2.9292322e-08
2.8545932e-08
2.7834658e-08
2.715492e-08
2.6502412e-08
2.5874132e-08
2.5261364e-08
2.466874e-08
2.40499e-08
2.3519401e-08
2.2734044e-08
0.00012344194
0.00010981326
0.00010487152
0.00010236059
0.00010076999
9.9650292e-05
9.8818399e-05
9.8179526e-05
9.7677187e-05
9.7274911e-05
9.6947933e-05
9.6678823e-05
9.645495e-05
9.6266957e-05
9.6107722e-05
9.5971893e-05
9.5854913e-05
9.5754594e-05
9.5664669e-05
9.5598102e-05
9.5492065e-05
9.5650346e-05
9.4472331e-05
0.00010027809
1.7665447e-05
2.2314379e-06
3.15505e-06
7.0364969e-07
1.6722487e-06
4.2073732e-07
1.1738799e-06
3.0832695e-07
9.1421709e-07
7.7490244e-07
7.5098673e-07
6.7227274e-07
6.3424213e-07
5.8591239e-07
5.5033276e-07
5.1605699e-07
4.8662891e-07
4.5986522e-07
4.3582655e-07
4.1397977e-07
3.9405925e-07
3.7580504e-07
3.5901032e-07
3.4349981e-07
3.291251e-07
3.1576018e-07
3.0329665e-07
2.9164104e-07
2.8071269e-07
2.7044124e-07
2.6076551e-07