/*--------------------------------*- C++ -*----------------------------------*\
| =========                 |                                                 |
| \\      /  F ield         | OpenFOAM: The Open Source CFD Toolbox           |
|  \\    /   O peration     | Version:  2206                                  |
|   \\  /    A nd           | Website:  www.openfoam.com                      |
|    \\/     M anipulation  |                                                 |
\*---------------------------------------------------------------------------*/
FoamFile
{
    version     2.0;
    format      ascii;
    arch        "LSB;label=32;scalar=64";
    class       volScalarField;
    location    "1600";
    object      nut;
}
// * * * * * * * * * * * * * * * * * * * * * * * * * * * * * * * * * * * * * //

dimensions      [0 2 -1 0 0 0 0];

internalField   nonuniform List<scalar> 
13056
(
6.5391919e-09
5.5433043e-09
5.2224714e-09
5.0638177e-09
4.9640081e-09
4.8942271e-09
4.8427111e-09
4.8033445e-09
4.7725011e-09
4.7478562e-09
4.7278391e-09
4.7113451e-09
4.697569e-09
4.6859047e-09
4.6758718e-09
4.6670828e-09
4.6591431e-09
4.651789e-09
4.6441354e-09
4.6369015e-09
4.6227885e-09
4.620627e-09
4.5267947e-09
3.9362343e-09
3.163106e-11
1.2331061e-11
1.7401354e-11
7.2137997e-12
1.2498657e-11
5.6852503e-12
1.0344811e-11
4.8522134e-12
9.0252926e-12
8.2077943e-12
8.0963911e-12
7.6092104e-12
7.3765705e-12
7.0581874e-12
6.8207116e-12
6.5825151e-12
6.3733832e-12
6.1777908e-12
5.9980823e-12
5.830929e-12
5.675214e-12
5.5295235e-12
5.3927813e-12
5.2640381e-12
5.1424856e-12
5.0274264e-12
4.9182494e-12
4.8144179e-12
4.7154618e-12
4.6209639e-12
4.5305572e-12
4.4439163e-12
4.3607466e-12
4.2807831e-12
4.2037886e-12
4.1295486e-12
4.0578674e-12
3.9885698e-12
3.9214971e-12
3.8565014e-12
3.7934468e-12
3.7322099e-12
3.6726767e-12
3.6147418e-12
3.5583073e-12
3.5032852e-12
3.4495936e-12
3.3971536e-12
3.3458922e-12
3.295742e-12
3.2466394e-12
3.1985254e-12
3.1513436e-12
3.1050415e-12
3.0595727e-12
3.0148903e-12
2.9709483e-12
2.9277055e-12
2.8851221e-12
2.8431601e-12
2.8017834e-12
2.760957e-12
2.7206491e-12
2.6808294e-12
2.6414666e-12
2.6025305e-12
2.5639932e-12
2.5258269e-12
2.4880051e-12
2.4505012e-12
2.4132898e-12
2.3763479e-12
2.3396507e-12
2.3031728e-12
2.2668909e-12
2.230781e-12
2.1948193e-12
2.1589818e-12
2.1232447e-12
2.0875853e-12
2.0519787e-12
2.0163992e-12
1.9808214e-12
1.9452188e-12
1.909563e-12
1.8738256e-12
1.8379771e-12
1.8019713e-12
1.7658143e-12
1.7304311e-12
1.696906e-12
1.6652891e-12
1.6353851e-12
1.6070692e-12
1.5802016e-12
1.5546608e-12
1.5303366e-12
1.5071287e-12
1.484946e-12
1.4637061e-12
1.4433323e-12
1.4237515e-12
1.4048938e-12
1.3866881e-12
1.3690664e-12
1.3519361e-12
1.3352364e-12
1.3187443e-12
1.3025972e-12
1.2855184e-12
1.2707085e-12
1.2483674e-12
6.5392378e-09
5.5426218e-09
5.2215592e-09
5.0627921e-09
4.9629114e-09
4.8930809e-09
4.8415285e-09
4.8021343e-09
4.7712696e-09
4.7466079e-09
4.7265776e-09
4.7100731e-09
4.6962891e-09
4.684619e-09
4.6745826e-09
4.6657924e-09
4.6578546e-09
4.6505062e-09
4.6428654e-09
4.6356516e-09
4.6215893e-09
4.6194948e-09
4.5259603e-09
3.9356316e-09
3.2115152e-11
1.222019e-11
1.6995963e-11
7.1245543e-12
1.2215446e-11
5.5990196e-12
1.0119129e-11
4.774905e-12
8.8362818e-12
8.0442855e-12
7.9333391e-12
7.4600584e-12
7.2329125e-12
6.9231925e-12
6.6916935e-12
6.4596697e-12
6.2557899e-12
6.0650923e-12
5.8897978e-12
5.7266981e-12
5.5747e-12
5.4324364e-12
5.2988624e-12
5.1730578e-12
5.0542382e-12
4.941727e-12
4.8349311e-12
4.7333294e-12
4.6364654e-12
4.543934e-12
4.4553787e-12
4.3704835e-12
4.2889624e-12
4.2105578e-12
4.1350393e-12
4.0621984e-12
3.991845e-12
3.9238088e-12
3.8579355e-12
3.7940813e-12
3.732114e-12
3.6719136e-12
3.6133693e-12
3.5563785e-12
3.5008461e-12
3.4466864e-12
3.3938198e-12
3.3421695e-12
3.2916644e-12
3.2422388e-12
3.1938308e-12
3.1463829e-12
3.0998399e-12
3.0541509e-12
3.0092705e-12
2.9651529e-12
2.9217532e-12
2.879031e-12
2.8369476e-12
2.7954657e-12
2.7545499e-12
2.714166e-12
2.6742827e-12
2.6348704e-12
2.5958981e-12
2.5573364e-12
2.5191577e-12
2.4813347e-12
2.4438409e-12
2.4066503e-12
2.3697375e-12
2.3330798e-12
2.2966526e-12
2.2604305e-12
2.2243902e-12
2.1885077e-12
2.1527592e-12
2.1171204e-12
2.0815673e-12
2.046077e-12
2.0106242e-12
1.9751828e-12
1.9397266e-12
1.9042286e-12
1.8686597e-12
1.8329903e-12
1.7971898e-12
1.7612108e-12
1.7250579e-12
1.689654e-12
1.6560855e-12
1.6244054e-12
1.5944204e-12
1.5660077e-12
1.5390293e-12
1.5133651e-12
1.4889061e-12
1.4655529e-12
1.4432155e-12
1.421812e-12
1.4012665e-12
1.3815063e-12
1.3624621e-12
1.3440626e-12
1.32624e-12
1.3089014e-12
1.2919853e-12
1.2752664e-12
1.2588839e-12
1.2415393e-12
1.2264853e-12
1.2037574e-12
6.5393345e-09
5.5404846e-09
5.2187245e-09
5.0596132e-09
4.9595164e-09
4.8895353e-09
4.8378722e-09
4.7983936e-09
4.7674631e-09
4.7427492e-09
4.7226768e-09
4.7061384e-09
4.6923269e-09
4.6806349e-09
4.6705815e-09
4.661779e-09
4.6538341e-09
4.6464847e-09
4.6388529e-09
4.6316589e-09
4.6176542e-09
4.6156528e-09
4.522457e-09
3.9336156e-09
3.2625557e-11
1.2109301e-11
1.6592288e-11
7.034844e-12
1.1932536e-11
5.5122616e-12
9.8933037e-12
4.697096e-12
8.6469221e-12
7.8802334e-12
7.7698325e-12
7.3103733e-12
7.0887411e-12
6.7876493e-12
6.562129e-12
6.3362653e-12
6.137636e-12
5.95183e-12
5.7809491e-12
5.6219033e-12
5.4736236e-12
5.3347891e-12
5.2043862e-12
5.0815236e-12
4.9654408e-12
4.8554819e-12
4.7510715e-12
4.6517042e-12
4.5569371e-12
4.4663771e-12
4.3796783e-12
4.2965341e-12
4.2166667e-12
4.1398262e-12
4.0657891e-12
3.9943527e-12
3.9253326e-12
3.8585632e-12
3.7938947e-12
3.7311875e-12
3.6703131e-12
3.6111548e-12
3.553605e-12
3.497564e-12
3.4429394e-12
3.3896479e-12
3.3376123e-12
3.2867577e-12
3.2370148e-12
3.18832e-12
3.140613e-12
3.0938375e-12
3.04794e-12
3.0028708e-12
2.9585856e-12
2.9150399e-12
2.8721897e-12
2.8299957e-12
2.78842e-12
2.747426e-12
2.7069793e-12
2.6670463e-12
2.6275964e-12
2.5886006e-12
2.5500284e-12
2.5118511e-12
2.4740412e-12
2.4365721e-12
2.3994176e-12
2.362552e-12
2.3259502e-12
2.2895897e-12
2.2534461e-12
2.2174942e-12
2.1817106e-12
2.1460716e-12
2.1105532e-12
2.0751312e-12
2.0397813e-12
2.0044805e-12
1.9692034e-12
1.9339232e-12
1.8986138e-12
1.8632473e-12
1.827794e-12
1.7922238e-12
1.7565052e-12
1.7205899e-12
1.6844812e-12
1.6490993e-12
1.6155311e-12
1.5838323e-12
1.5538121e-12
1.5253493e-12
1.4983077e-12
1.4725686e-12
1.4480242e-12
1.4245762e-12
1.4021353e-12
1.3806206e-12
1.3599569e-12
1.3400718e-12
1.3208964e-12
1.3023601e-12
1.2843947e-12
1.2669075e-12
1.2498367e-12
1.2329552e-12
1.2164036e-12
1.1988677e-12
1.1836379e-12
1.1606333e-12
6.5394911e-09
5.5368266e-09
5.2138781e-09
5.0541805e-09
4.9537155e-09
4.8834779e-09
4.831626e-09
4.7920035e-09
4.7609605e-09
4.7361571e-09
4.7160125e-09
4.6994152e-09
4.6855555e-09
4.6738239e-09
4.6637387e-09
4.6549112e-09
4.6469486e-09
4.639589e-09
4.6319588e-09
4.6247798e-09
4.6108292e-09
4.6089354e-09
4.5160581e-09
3.9300399e-09
3.3172042e-11
1.1996997e-11
1.6185036e-11
6.9435711e-12
1.1646242e-11
5.4239259e-12
9.664392e-12
4.6178749e-12
8.4547452e-12
7.7134935e-12
7.6037386e-12
7.1582022e-12
6.9421801e-12
6.6497958e-12
6.4303374e-12
6.2107045e-12
6.0173961e-12
5.8365449e-12
5.6701382e-12
5.5152021e-12
5.3706937e-12
5.2353381e-12
5.1081533e-12
4.9882772e-12
4.8749733e-12
4.7676068e-12
4.6656201e-12
4.5685235e-12
4.475888e-12
4.3873326e-12
4.302522e-12
4.221159e-12
4.1429746e-12
4.0677263e-12
3.9951974e-12
3.9251914e-12
3.8575295e-12
3.7920511e-12
3.7286109e-12
3.6670732e-12
3.6073136e-12
3.5492187e-12
3.492684e-12
3.437613e-12
3.3839159e-12
3.3315119e-12
3.2803259e-12
3.2302854e-12
3.181323e-12
3.1333768e-12
3.0863881e-12
3.0403024e-12
2.9950675e-12
2.9506349e-12
2.9069618e-12
2.8640045e-12
2.8217205e-12
2.7800712e-12
2.7390195e-12
2.69853e-12
2.6585689e-12
2.6191035e-12
2.5801037e-12
2.5415412e-12
2.5033863e-12
2.4656105e-12
2.4281871e-12
2.3910897e-12
2.3542928e-12
2.3177708e-12
2.281499e-12
2.2454553e-12
2.2096154e-12
2.1739544e-12
2.1384491e-12
2.1030757e-12
2.0678106e-12
2.0326293e-12
1.9975077e-12
1.9624227e-12
1.9273486e-12
1.8922588e-12
1.8571265e-12
1.8219237e-12
1.7866203e-12
1.7511858e-12
1.715588e-12
1.6797779e-12
1.6437581e-12
1.6084451e-12
1.5749247e-12
1.5432553e-12
1.5132484e-12
1.4847845e-12
1.4577292e-12
1.4319652e-12
1.4073859e-12
1.3838942e-12
1.3614016e-12
1.3398281e-12
1.319099e-12
1.2991427e-12
1.2798908e-12
1.2612727e-12
1.2432209e-12
1.2256425e-12
1.2084759e-12
1.1914927e-12
1.1748347e-12
1.1571776e-12
1.1418356e-12
1.1186563e-12
6.5397232e-09
5.5315453e-09
5.2068812e-09
5.0463376e-09
4.9453416e-09
4.8747339e-09
4.8226095e-09
4.7827794e-09
4.751574e-09
4.7266412e-09
4.7063919e-09
4.689709e-09
4.6757788e-09
4.6639891e-09
4.6538561e-09
4.6449902e-09
4.6369982e-09
4.629619e-09
4.6219824e-09
4.6148134e-09
4.6009133e-09
4.5991428e-09
4.5065643e-09
3.9247917e-09
3.3764714e-11
1.1881991e-11
1.5769342e-11
6.8496886e-12
1.1353129e-11
5.3330052e-12
9.429629e-12
4.5363673e-12
8.2574207e-12
7.5420295e-12
7.4330344e-12
7.0016875e-12
6.7914438e-12
6.5079523e-12
6.2947154e-12
6.0814614e-12
5.8936114e-12
5.7178412e-12
5.5560259e-12
5.4053081e-12
5.2646723e-12
5.1328902e-12
5.0090123e-12
4.892206e-12
4.7817598e-12
4.6770598e-12
4.577567e-12
4.4828078e-12
4.392367e-12
4.3058762e-12
4.2230109e-12
4.1434837e-12
4.0670342e-12
3.9934278e-12
3.9224548e-12
3.8539249e-12
3.7876651e-12
3.7235198e-12
3.6613484e-12
3.6010194e-12
3.5424122e-12
3.4854171e-12
3.4299329e-12
3.3758659e-12
3.3231294e-12
3.271645e-12
3.2213401e-12
3.1721442e-12
3.123992e-12
3.0768234e-12
3.0305815e-12
2.9852134e-12
2.9406683e-12
2.8968993e-12
2.8538646e-12
2.8115219e-12
2.7698296e-12
2.7287503e-12
2.6882479e-12
2.6482879e-12
2.6088372e-12
2.569864e-12
2.531339e-12
2.4932344e-12
2.4555213e-12
2.4181718e-12
2.3811597e-12
2.344459e-12
2.3080448e-12
2.2718919e-12
2.235976e-12
2.2002754e-12
2.1647659e-12
2.129423e-12
2.0942238e-12
2.0591446e-12
2.0241619e-12
1.9892515e-12
1.9543894e-12
1.9195524e-12
1.8847148e-12
1.84985e-12
1.8149311e-12
1.77993e-12
1.7448164e-12
1.7095594e-12
1.6741266e-12
1.6384688e-12
1.6025877e-12
1.5673952e-12
1.5339745e-12
1.5023866e-12
1.4724448e-12
1.4440318e-12
1.4170149e-12
1.3912783e-12
1.3667167e-12
1.3432339e-12
1.3207424e-12
1.2991631e-12
1.2784221e-12
1.2584483e-12
1.2391739e-12
1.2205289e-12
1.2024459e-12
1.1848325e-12
1.1676271e-12
1.1506012e-12
1.1338971e-12
1.1161855e-12
1.1007917e-12
1.077534e-12
6.5400541e-09
5.5245028e-09
5.197547e-09
5.0358739e-09
4.9341692e-09
4.8630676e-09
4.8105798e-09
4.7704725e-09
4.7390504e-09
4.7139447e-09
4.6935555e-09
4.6767579e-09
4.662733e-09
4.6508648e-09
4.6406668e-09
4.6317479e-09
4.6237141e-09
4.6163048e-09
4.6086533e-09
4.6014887e-09
4.5876354e-09
4.5860046e-09
4.493705e-09
3.9177179e-09
3.4415353e-11
1.1763103e-11
1.5340744e-11
6.7521959e-12
1.1049994e-11
5.2385307e-12
9.1864124e-12
4.4517328e-12
8.0527417e-12
7.3639011e-12
7.2557941e-12
6.8390554e-12
6.6348262e-12
6.3605108e-12
6.1537267e-12
5.9470725e-12
5.7648817e-12
5.5943777e-12
5.4373248e-12
5.2909834e-12
5.1543674e-12
5.0262959e-12
4.9058533e-12
4.7922374e-12
4.6847622e-12
4.5828356e-12
4.4859376e-12
4.3936111e-12
4.3054556e-12
4.2211152e-12
4.1402769e-12
4.0626632e-12
3.9880227e-12
3.916129e-12
3.8467794e-12
3.7797905e-12
3.7149949e-12
3.6522423e-12
3.5913969e-12
3.5323317e-12
3.47493e-12
3.4190859e-12
3.3647015e-12
3.3116863e-12
3.2599566e-12
3.2094367e-12
3.1600563e-12
3.1117474e-12
3.0644466e-12
3.0180957e-12
2.9726398e-12
2.9280275e-12
2.8842098e-12
2.8411409e-12
2.7987806e-12
2.7570878e-12
2.716022e-12
2.675547e-12
2.6356276e-12
2.5962304e-12
2.5573231e-12
2.5188748e-12
2.480857e-12
2.4432428e-12
2.4060037e-12
2.3691125e-12
2.3325438e-12
2.2962721e-12
2.2602729e-12
2.2245215e-12
2.1889943e-12
2.1536696e-12
2.118524e-12
2.0835331e-12
2.0486743e-12
2.0139243e-12
1.9792599e-12
1.944657e-12
1.9100917e-12
1.8755411e-12
1.8409797e-12
1.8063808e-12
1.7717178e-12
1.7369624e-12
1.7020844e-12
1.6670528e-12
1.6318351e-12
1.5963821e-12
1.5606953e-12
1.5256804e-12
1.4924163e-12
1.460966e-12
1.4311453e-12
1.4028389e-12
1.3759158e-12
1.3502616e-12
1.3257724e-12
1.3023532e-12
1.2799175e-12
1.258387e-12
1.2376884e-12
1.2177517e-12
1.1985095e-12
1.1798923e-12
1.1618333e-12
1.1442405e-12
1.1270527e-12
1.110042e-12
1.0933504e-12
1.0756493e-12
1.0602617e-12
1.0370177e-12
6.5405164e-09
5.5155278e-09
5.1856425e-09
5.0225265e-09
4.9199168e-09
4.848185e-09
4.7952333e-09
4.7547723e-09
4.7230735e-09
4.6977471e-09
4.6771791e-09
4.660235e-09
4.6460887e-09
4.6341196e-09
4.6238376e-09
4.6148495e-09
4.6067602e-09
4.5993092e-09
4.5916334e-09
4.5844673e-09
4.5706565e-09
4.5691834e-09
4.477141e-09
3.9086262e-09
3.5137785e-11
1.1639278e-11
1.4895175e-11
6.6501375e-12
1.0733859e-11
5.1395704e-12
8.9322989e-12
4.3631635e-12
7.8386209e-12
7.17726e-12
7.0701849e-12
6.6686114e-12
6.4706966e-12
6.2059312e-12
6.0058981e-12
5.8061324e-12
5.6298612e-12
5.4648639e-12
5.3127953e-12
5.1710352e-12
5.0386296e-12
4.9144464e-12
4.7976052e-12
4.6873355e-12
4.5829778e-12
4.4839627e-12
4.3897899e-12
4.3000194e-12
4.2142657e-12
4.1321865e-12
4.0534804e-12
3.9778804e-12
3.9051443e-12
3.8350544e-12
3.7674155e-12
3.7020508e-12
3.6387991e-12
3.5775159e-12
3.51807e-12
3.4603392e-12
3.4042111e-12
3.3495835e-12
3.2963622e-12
3.24446e-12
3.1937963e-12
3.1442982e-12
3.095898e-12
3.0485299e-12
3.002133e-12
2.956651e-12
2.9120309e-12
2.868223e-12
2.82518e-12
2.7828577e-12
2.7412172e-12
2.7002188e-12
2.6598233e-12
2.6199956e-12
2.5807016e-12
2.5419089e-12
2.5035863e-12
2.4657037e-12
2.4282335e-12
2.3911496e-12
2.3544244e-12
2.3180312e-12
2.2819454e-12
2.2461421e-12
2.2105974e-12
2.1752872e-12
2.1401883e-12
2.1052796e-12
2.070538e-12
2.0359398e-12
2.0014626e-12
1.9670835e-12
1.9327796e-12
1.8985273e-12
1.8643029e-12
1.8300838e-12
1.7958446e-12
1.7615591e-12
1.7272006e-12
1.6927413e-12
1.658151e-12
1.6233989e-12
1.5884527e-12
1.5532634e-12
1.5178325e-12
1.483058e-12
1.4500126e-12
1.4187612e-12
1.3891221e-12
1.3609819e-12
1.3342115e-12
1.3086982e-12
1.2843393e-12
1.2610409e-12
1.2387177e-12
1.2172924e-12
1.1966925e-12
1.1768486e-12
1.1576942e-12
1.1391604e-12
1.121181e-12
1.1036646e-12
1.0865505e-12
1.0696123e-12
1.0529912e-12
1.0353641e-12
1.0200396e-12
9.9689852e-13
6.5411553e-09
5.5044176e-09
5.1708901e-09
5.0059822e-09
4.9022492e-09
4.8297353e-09
4.7762081e-09
4.7353085e-09
4.7032666e-09
4.6776664e-09
4.6568766e-09
4.6397503e-09
4.6254532e-09
4.6133583e-09
4.6029714e-09
4.5938961e-09
4.585736e-09
4.5782307e-09
4.5705201e-09
4.5633457e-09
4.5495725e-09
4.5482768e-09
4.4564674e-09
3.8972859e-09
3.5948373e-11
1.1509608e-11
1.442899e-11
6.5426056e-12
1.040199e-11
5.0352298e-12
8.6650132e-12
4.2698849e-12
7.6130975e-12
6.9803544e-12
6.8744713e-12
6.4887443e-12
6.2975029e-12
6.0427439e-12
5.8498224e-12
5.6572962e-12
5.4872602e-12
5.328062e-12
5.1812467e-12
5.044317e-12
4.9163533e-12
4.7962742e-12
4.6832362e-12
4.5765021e-12
4.47544e-12
4.3795042e-12
4.2882149e-12
4.2011502e-12
4.1179404e-12
4.0382571e-12
3.9618111e-12
3.8883465e-12
3.8176311e-12
3.7494557e-12
3.6836332e-12
3.6199941e-12
3.5583835e-12
3.4986627e-12
3.4407058e-12
3.3843954e-12
3.3296235e-12
3.2762921e-12
3.2243107e-12
3.1735958e-12
3.1240699e-12
3.0756632e-12
3.0283105e-12
2.9819488e-12
2.9365194e-12
2.8919682e-12
2.848244e-12
2.8052993e-12
2.7630884e-12
2.7215688e-12
2.6807031e-12
2.6404528e-12
2.6007804e-12
2.5616518e-12
2.5230341e-12
2.4848961e-12
2.4472076e-12
2.4099396e-12
2.3730655e-12
2.3365598e-12
2.3003959e-12
2.264548e-12
2.2289921e-12
2.193704e-12
2.1586606e-12
2.1238383e-12
2.0892146e-12
2.0547689e-12
2.0204787e-12
1.9863206e-12
1.9522731e-12
1.9183134e-12
1.8844193e-12
1.8505675e-12
1.8167347e-12
1.7828987e-12
1.7490346e-12
1.7151164e-12
1.681118e-12
1.6470117e-12
1.6127678e-12
1.5783559e-12
1.543744e-12
1.5088838e-12
1.4737766e-12
1.4393117e-12
1.4065529e-12
1.3755667e-12
1.3461745e-12
1.3182645e-12
1.2917098e-12
1.2663993e-12
1.2422316e-12
1.2191143e-12
1.1969631e-12
1.1757015e-12
1.1552583e-12
1.1355647e-12
1.1165551e-12
1.0981613e-12
1.0803178e-12
1.0629343e-12
1.0459504e-12
1.029142e-12
1.012649e-12
9.9515885e-13
9.7995327e-13
9.5700252e-13
6.542032e-09
5.49094e-09
5.1529706e-09
4.9858797e-09
4.8807794e-09
4.8073139e-09
4.7530869e-09
4.7116538e-09
4.6791947e-09
4.6532617e-09
4.6322021e-09
4.6148543e-09
4.6003735e-09
4.5881252e-09
4.5776098e-09
4.5684274e-09
4.5601796e-09
4.5526057e-09
4.5448486e-09
4.5376584e-09
4.5239174e-09
4.5228206e-09
4.4312169e-09
3.8834285e-09
3.6866634e-11
1.1373369e-11
1.393902e-11
6.4287466e-12
1.0051923e-11
4.9246556e-12
8.382471e-12
4.1711595e-12
7.3743542e-12
6.7715436e-12
6.6670285e-12
6.2979381e-12
6.1137825e-12
5.8695599e-12
5.6841665e-12
5.4992877e-12
5.3358532e-12
5.1827938e-12
5.0415446e-12
4.9097349e-12
4.7864824e-12
4.6707587e-12
4.5617591e-12
4.4587814e-12
4.3612227e-12
4.268562e-12
4.1803412e-12
4.0961574e-12
4.0156573e-12
3.9385272e-12
3.8644911e-12
3.7933045e-12
3.7247455e-12
3.6586143e-12
3.5947323e-12
3.5329374e-12
3.4730817e-12
3.4150324e-12
3.3586692e-12
3.3038798e-12
3.2505611e-12
3.1986193e-12
3.147968e-12
3.0985273e-12
3.0502235e-12
3.0029896e-12
2.9567637e-12
2.9114851e-12
2.8670977e-12
2.8235497e-12
2.7807923e-12
2.7387795e-12
2.697468e-12
2.6568167e-12
2.6167899e-12
2.5773508e-12
2.5384631e-12
2.500094e-12
2.4622122e-12
2.4247874e-12
2.3877908e-12
2.3511944e-12
2.3149725e-12
2.2791008e-12
2.2435535e-12
2.2083057e-12
2.1733342e-12
2.1386156e-12
2.1041275e-12
2.0698472e-12
2.0357527e-12
2.0018241e-12
1.9680396e-12
1.9343764e-12
1.9008134e-12
1.8673288e-12
1.8339004e-12
1.8005058e-12
1.7671223e-12
1.733728e-12
1.7002986e-12
1.6668086e-12
1.6332323e-12
1.5995428e-12
1.5657108e-12
1.5317065e-12
1.4974984e-12
1.4630391e-12
1.4283303e-12
1.3942502e-12
1.3618517e-12
1.3312027e-12
1.3021275e-12
1.2745162e-12
1.2482443e-12
1.2232023e-12
1.1992903e-12
1.1764172e-12
1.1545e-12
1.1334634e-12
1.1132369e-12
1.093753e-12
1.0749467e-12
1.0567507e-12
1.0391006e-12
1.0219069e-12
1.0051102e-12
9.8848902e-13
9.7218174e-13
9.5489119e-13
9.3985985e-13
9.1718525e-13
6.5432279e-09
5.4748366e-09
5.1315248e-09
4.9618122e-09
4.8550714e-09
4.7804649e-09
4.7253991e-09
4.6833269e-09
4.6503679e-09
4.6240362e-09
4.6026533e-09
4.58504e-09
4.5703389e-09
4.5579064e-09
4.5472366e-09
4.5379249e-09
4.5295704e-09
4.5219122e-09
4.5140956e-09
4.5068809e-09
4.4931658e-09
4.4922913e-09
4.4008634e-09
3.8667482e-09
3.7916035e-11
1.1230078e-11
1.342265e-11
6.3077724e-12
9.6815209e-12
4.8070441e-12
8.0828163e-12
4.0662924e-12
7.1207475e-12
6.5493216e-12
6.4463663e-12
6.0947921e-12
5.9181816e-12
5.6850878e-12
5.5076886e-12
5.3309146e-12
5.1744927e-12
5.0279538e-12
4.8926224e-12
4.7662588e-12
4.6480213e-12
4.5369365e-12
4.4322409e-12
4.3332691e-12
4.2394489e-12
4.1502853e-12
4.0653427e-12
3.9842381e-12
3.906636e-12
3.832238e-12
3.7607818e-12
3.6920351e-12
3.6257871e-12
3.5618478e-12
3.5000474e-12
3.4402319e-12
3.3822606e-12
3.326007e-12
3.271357e-12
3.2182036e-12
3.1664486e-12
3.116003e-12
3.0667845e-12
3.0187175e-12
2.9717319e-12
2.9257641e-12
2.8807551e-12
2.8366474e-12
2.7933872e-12
2.7509254e-12
2.7092153e-12
2.6682133e-12
2.6278778e-12
2.5881699e-12
2.5490554e-12
2.5104992e-12
2.4724666e-12
2.4349263e-12
2.3978482e-12
2.3612035e-12
2.3249645e-12
2.2891046e-12
2.2535992e-12
2.218425e-12
2.1835571e-12
2.1489717e-12
2.1146465e-12
2.0805591e-12
2.0466877e-12
2.0130106e-12
1.9795065e-12
1.9461563e-12
1.9129388e-12
1.8798322e-12
1.8468158e-12
1.8138685e-12
1.780969e-12
1.7480953e-12
1.7152254e-12
1.6823381e-12
1.6494098e-12
1.6164156e-12
1.5833306e-12
1.5501283e-12
1.5167804e-12
1.4832577e-12
1.4495297e-12
1.4155499e-12
1.3813205e-12
1.3477066e-12
1.315748e-12
1.2855134e-12
1.2568302e-12
1.2295907e-12
1.2036728e-12
1.1789686e-12
1.1553801e-12
1.1328175e-12
1.1111991e-12
1.0904508e-12
1.0705034e-12
1.0512901e-12
1.0327471e-12
1.0148082e-12
9.9740975e-13
9.8046377e-13
9.6391174e-13
9.4753567e-13
9.3147171e-13
9.144431e-13
8.9964085e-13
8.7732702e-13
6.5448513e-09
5.455825e-09
5.1061568e-09
4.9333301e-09
4.824643e-09
4.7486839e-09
4.6926241e-09
4.6497949e-09
4.6162442e-09
4.5894404e-09
4.5676747e-09
4.549747e-09
4.5347849e-09
4.522134e-09
4.5112807e-09
4.5018152e-09
4.493333e-09
4.4855727e-09
4.4776821e-09
4.4704334e-09
4.4567369e-09
4.4561104e-09
4.3648259e-09
3.8469026e-09
3.9125e-11
1.1079569e-11
1.2877928e-11
6.1789777e-12
9.289037e-12
4.681652e-12
7.7644748e-12
3.9546408e-12
6.8508492e-12
6.3123522e-12
6.2111628e-12
5.8780522e-12
5.7094839e-12
5.4881612e-12
5.3192624e-12
5.1510914e-12
5.0021306e-12
4.8625294e-12
4.7335008e-12
4.6129407e-12
4.5000514e-12
4.393917e-12
4.2938178e-12
4.1991271e-12
4.1093048e-12
4.0238832e-12
3.9424506e-12
3.864645e-12
3.7901493e-12
3.7186816e-12
3.6499941e-12
3.5838671e-12
3.5201017e-12
3.4585184e-12
3.3989567e-12
3.3412711e-12
3.2853284e-12
3.2310093e-12
3.1782056e-12
3.1268162e-12
3.0767484e-12
3.0279179e-12
2.9802472e-12
2.9336648e-12
2.8881049e-12
2.8435074e-12
2.7998165e-12
2.7569777e-12
2.7149401e-12
2.6736573e-12
2.6330848e-12
2.5931816e-12
2.5539082e-12
2.5152277e-12
2.4771077e-12
2.439515e-12
2.4024163e-12
2.3657821e-12
2.3295838e-12
2.2937939e-12
2.2583863e-12
2.2233356e-12
2.1886184e-12
2.1542126e-12
2.1200945e-12
2.0862413e-12
2.0526316e-12
2.019244e-12
1.9860579e-12
1.9530523e-12
1.9202068e-12
1.8875032e-12
1.8549211e-12
1.8224394e-12
1.7900384e-12
1.7576976e-12
1.7253967e-12
1.6931143e-12
1.6608293e-12
1.6285211e-12
1.596167e-12
1.5637429e-12
1.5312246e-12
1.4985867e-12
1.4658015e-12
1.4328411e-12
1.3996757e-12
1.3662603e-12
1.3325977e-12
1.2995378e-12
1.2681042e-12
1.2383661e-12
1.2101547e-12
1.1833644e-12
1.1578755e-12
1.1335821e-12
1.110388e-12
1.0882049e-12
1.0669526e-12
1.0465583e-12
1.026954e-12
1.0080741e-12
9.8985593e-13
9.722344e-13
9.5514689e-13
9.3850714e-13
9.2225765e-13
9.0618472e-13
8.904217e-13
8.7371709e-13
8.5919828e-13
8.3732865e-13
6.5470446e-09
5.4336034e-09
5.076437e-09
4.8999445e-09
4.7889693e-09
4.7114216e-09
4.6541953e-09
4.610478e-09
4.5762333e-09
4.548876e-09
4.5266616e-09
4.5083652e-09
4.493097e-09
4.4801899e-09
4.469121e-09
4.4594742e-09
4.4508411e-09
4.4429592e-09
4.4349784e-09
4.427685e-09
4.413999e-09
4.4136483e-09
4.3224732e-09
3.8235125e-09
4.0528187e-11
1.0922095e-11
1.2303695e-11
6.0417624e-12
8.8732086e-12
4.5478135e-12
7.4262227e-12
3.8356272e-12
6.563503e-12
6.0595164e-12
5.9603111e-12
5.6466521e-12
5.4866496e-12
5.2777738e-12
5.1179109e-12
4.9588709e-12
4.8178481e-12
4.6856287e-12
4.5633135e-12
4.4489391e-12
4.3417548e-12
4.2409051e-12
4.1457164e-12
4.055603e-12
3.9700583e-12
3.8886432e-12
3.8109712e-12
3.7367024e-12
3.6655391e-12
3.5972168e-12
3.5315027e-12
3.4681911e-12
3.4070951e-12
3.3480465e-12
3.2908947e-12
3.2355031e-12
3.1817467e-12
3.1295133e-12
3.0787015e-12
3.0292162e-12
2.9809705e-12
2.9338855e-12
2.8878884e-12
2.8429125e-12
2.7988962e-12
2.7557833e-12
2.7135214e-12
2.6720593e-12
2.6313491e-12
2.5913472e-12
2.5520118e-12
2.5133043e-12
2.4751875e-12
2.4376269e-12
2.4005919e-12
2.3640511e-12
2.3279732e-12
2.2923303e-12
2.2570954e-12
2.2222427e-12
2.1877476e-12
2.1535861e-12
2.1197362e-12
2.086177e-12
2.0528859e-12
2.0198415e-12
1.9870235e-12
1.9544115e-12
1.9219858e-12
1.8897267e-12
1.8576147e-12
1.8256325e-12
1.7937606e-12
1.7619789e-12
1.7302685e-12
1.6986101e-12
1.6669838e-12
1.6353696e-12
1.6037469e-12
1.5720962e-12
1.5403958e-12
1.5086223e-12
1.4767527e-12
1.4447623e-12
1.4126249e-12
1.3803134e-12
1.3477994e-12
1.3150393e-12
1.2820367e-12
1.2496241e-12
1.2188057e-12
1.1896513e-12
1.1619957e-12
1.1357357e-12
1.1107543e-12
1.0869478e-12
1.0642218e-12
1.0424897e-12
1.021673e-12
1.0017003e-12
9.8250487e-13
9.6402251e-13
9.4619169e-13
9.2894868e-13
9.1223209e-13
8.9595757e-13
8.8006875e-13
8.6435702e-13
8.4895234e-13
8.3263335e-13
8.1845175e-13
7.9710834e-13
6.5499942e-09
5.4078551e-09
5.0419069e-09
4.8611314e-09
4.7474875e-09
4.6680888e-09
4.6095044e-09
4.5647539e-09
4.5297021e-09
4.5017013e-09
4.4789653e-09
4.4602404e-09
4.4446163e-09
4.4314112e-09
4.4200913e-09
4.4102331e-09
4.4014233e-09
4.3933982e-09
4.3853094e-09
4.3779594e-09
4.3642749e-09
4.3642298e-09
4.2731308e-09
3.7961625e-09
4.2168118e-11
1.0758469e-11
1.1699749e-11
5.8956627e-12
8.4333626e-12
4.4049614e-12
7.0672718e-12
3.7087568e-12
6.2578942e-12
5.7899709e-12
5.6929775e-12
5.3997657e-12
5.2488655e-12
5.0531261e-12
4.9028497e-12
4.7534849e-12
4.6208933e-12
4.4965162e-12
4.3813413e-12
4.2735507e-12
4.1724445e-12
4.0772294e-12
3.9872811e-12
3.9020564e-12
3.8210841e-12
3.743955e-12
3.6703087e-12
3.5998286e-12
3.5322374e-12
3.4672888e-12
3.4047662e-12
3.3444782e-12
3.2862509e-12
3.2299277e-12
3.1753686e-12
3.1224466e-12
3.0710452e-12
3.0210598e-12
2.9723958e-12
2.9249651e-12
2.8786867e-12
2.8334871e-12
2.7892989e-12
2.7460605e-12
2.7037149e-12
2.6622099e-12
2.6214967e-12
2.5815276e-12
2.542258e-12
2.503647e-12
2.4656561e-12
2.428249e-12
2.3913913e-12
2.3550505e-12
2.3191984e-12
2.2838055e-12
2.2488424e-12
2.214283e-12
2.1801022e-12
2.1462759e-12
2.1127811e-12
2.0795955e-12
2.0466985e-12
2.0140705e-12
1.9816904e-12
1.9495378e-12
1.9175938e-12
1.8858393e-12
1.8542556e-12
1.8228242e-12
1.7915267e-12
1.7603467e-12
1.7292659e-12
1.6982652e-12
1.6673268e-12
1.6364322e-12
1.6055628e-12
1.5746994e-12
1.5438225e-12
1.5129136e-12
1.4819519e-12
1.4509153e-12
1.4197819e-12
1.3885282e-12
1.357129e-12
1.3255587e-12
1.2937901e-12
1.2617817e-12
1.2295377e-12
1.1978706e-12
1.1677623e-12
1.1392827e-12
1.1122706e-12
1.0866254e-12
1.0622331e-12
1.0389921e-12
1.0168102e-12
9.956027e-13
9.7529275e-13
9.5581062e-13
9.3709106e-13
9.1907129e-13
9.0169116e-13
8.8488838e-13
8.6860301e-13
8.527528e-13
8.3728273e-13
8.2199e-13
8.0700063e-13
7.9112814e-13
7.773367e-13
7.5659987e-13
6.5539426e-09
5.3782551e-09
5.0020845e-09
4.8163379e-09
4.6996025e-09
4.6180625e-09
4.5579085e-09
4.5119646e-09
4.4759811e-09
4.4472379e-09
4.4239002e-09
4.4046812e-09
4.3886465e-09
4.3750974e-09
4.3634877e-09
4.353385e-09
4.3443704e-09
4.3361786e-09
4.3279621e-09
4.3205426e-09
4.3068494e-09
4.3071419e-09
4.2160851e-09
3.7644046e-09
4.4097228e-11
1.0590237e-11
1.1067009e-11
5.7403897e-12
7.9695402e-12
4.2526551e-12
6.6873692e-12
3.5736398e-12
5.9336329e-12
5.5032201e-12
5.408672e-12
5.1368717e-12
4.9956054e-12
4.8136817e-12
4.6735402e-12
4.5343939e-12
4.4107289e-12
4.2946579e-12
4.1870546e-12
4.0862516e-12
3.9916024e-12
3.9023792e-12
3.8180085e-12
3.7379924e-12
3.6618958e-12
3.5893405e-12
3.5199938e-12
3.4535632e-12
3.3897927e-12
3.3284552e-12
3.2693509e-12
3.2123036e-12
3.1571529e-12
3.1037546e-12
3.0519798e-12
3.0017115e-12
2.952842e-12
2.9052748e-12
2.858923e-12
2.8137051e-12
2.7695467e-12
2.7263803e-12
2.684144e-12
2.6427816e-12
2.602241e-12
2.5624744e-12
2.5234367e-12
2.4850838e-12
2.4473748e-12
2.4102719e-12
2.3737394e-12
2.3377442e-12
2.3022542e-12
2.2672398e-12
2.2326747e-12
2.1985317e-12
2.1647834e-12
2.1314058e-12
2.0983757e-12
2.0656708e-12
2.0332701e-12
2.0011529e-12
1.9693001e-12
1.9376935e-12
1.9063137e-12
1.8751416e-12
1.8441596e-12
1.8133498e-12
1.7826951e-12
1.7521779e-12
1.7217811e-12
1.6914896e-12
1.6612861e-12
1.6311527e-12
1.6010728e-12
1.5710289e-12
1.5410036e-12
1.5109787e-12
1.4809361e-12
1.4508582e-12
1.4207256e-12
1.3905173e-12
1.3602125e-12
1.3297892e-12
1.2992236e-12
1.2684914e-12
1.2375671e-12
1.2064111e-12
1.1750285e-12
1.1442092e-12
1.1149096e-12
1.0871992e-12
1.0609214e-12
1.0359781e-12
1.0122586e-12
9.8966387e-13
9.6810371e-13
9.4749572e-13
9.2776486e-13
9.0884322e-13
8.9066719e-13
8.7317556e-13
8.5630971e-13
8.4000898e-13
8.2421501e-13
8.0884794e-13
7.9385424e-13
7.7903768e-13
7.6451979e-13
7.4915365e-13
7.3580424e-13
7.1575232e-13
6.5592042e-09
5.3444787e-09
4.9564722e-09
4.7649895e-09
4.6446951e-09
4.5606939e-09
4.4987379e-09
4.4514252e-09
4.4143738e-09
4.3847798e-09
4.3607531e-09
4.3409681e-09
4.3244634e-09
4.3105204e-09
4.2985786e-09
4.2881955e-09
4.2789454e-09
4.2705611e-09
4.2621957e-09
4.2546921e-09
4.2409793e-09
4.2416431e-09
4.1505943e-09
3.7277596e-09
4.6380473e-11
1.0419919e-11
1.0407695e-11
5.5758779e-12
7.4826313e-12
4.0906142e-12
6.2869102e-12
3.4300187e-12
5.5908499e-12
5.1991993e-12
5.1073315e-12
4.8578285e-12
4.7267025e-12
4.5592345e-12
4.4297532e-12
4.3013473e-12
4.1870886e-12
4.0797742e-12
3.9801637e-12
3.8867443e-12
3.798926e-12
3.7160476e-12
3.6375898e-12
3.5631009e-12
3.4921834e-12
3.424491e-12
3.3597194e-12
3.2976013e-12
3.2379029e-12
3.180417e-12
3.1249615e-12
3.0713757e-12
3.0195137e-12
2.9692441e-12
2.9204495e-12
2.8730234e-12
2.8268675e-12
2.7818938e-12
2.738023e-12
2.6951811e-12
2.6533004e-12
2.6123198e-12
2.5721833e-12
2.5328403e-12
2.4942442e-12
2.4563513e-12
2.4191208e-12
2.3825125e-12
2.3464889e-12
2.3110159e-12
2.2760608e-12
2.2415935e-12
2.207585e-12
2.174008e-12
2.1408388e-12
2.1080525e-12
2.0756238e-12
2.0435308e-12
2.0117525e-12
1.9802686e-12
1.9490601e-12
1.9181082e-12
1.8873953e-12
1.856905e-12
1.8266192e-12
1.7965206e-12
1.7665929e-12
1.7368196e-12
1.707185e-12
1.6776729e-12
1.6482675e-12
1.6189548e-12
1.589719e-12
1.5605435e-12
1.5314126e-12
1.5023104e-12
1.4732206e-12
1.4441262e-12
1.4150104e-12
1.3858569e-12
1.3566475e-12
1.3273626e-12
1.2979829e-12
1.2684877e-12
1.2388546e-12
1.2090612e-12
1.1790834e-12
1.1488841e-12
1.118469e-12
1.0886029e-12
1.0602132e-12
1.0333688e-12
1.0079179e-12
9.8376519e-13
9.6080373e-13
9.3893699e-13
9.1807721e-13
8.9814428e-13
8.790653e-13
8.6077431e-13
8.4320951e-13
8.2631146e-13
8.1002319e-13
7.9428587e-13
7.7904288e-13
7.6421703e-13
7.4975644e-13
7.3547217e-13
7.2148074e-13
7.0667929e-13
6.9382239e-13
6.7453115e-13
6.566185e-09
5.306212e-09
4.9045665e-09
4.7065005e-09
4.5821327e-09
4.4953199e-09
4.431308e-09
4.3824353e-09
4.3441678e-09
4.3136058e-09
4.2887953e-09
4.2683667e-09
4.2513276e-09
4.2369367e-09
4.2246171e-09
4.2139148e-09
4.2043962e-09
4.1957915e-09
4.1872541e-09
4.179651e-09
4.1659068e-09
4.166977e-09
4.0759019e-09
3.6857188e-09
4.9098587e-11
1.025131e-11
9.7255011e-12
5.4023441e-12
6.9745132e-12
3.918759e-12
5.8670578e-12
3.2778013e-12
5.2303008e-12
4.8783662e-12
4.7894106e-12
4.5629587e-12
4.4424295e-12
4.2899849e-12
4.1716411e-12
4.0544518e-12
3.9500421e-12
3.8519022e-12
3.7606783e-12
3.675015e-12
3.5943808e-12
3.5181834e-12
3.4459594e-12
3.3773043e-12
3.3118589e-12
3.2493098e-12
3.1893817e-12
3.1318331e-12
3.0764533e-12
3.0230556e-12