/*--------------------------------*- C++ -*----------------------------------*\
| =========                 |                                                 |
| \\      /  F ield         | OpenFOAM: The Open Source CFD Toolbox           |
|  \\    /   O peration     | Version:  2206                                  |
|   \\  /    A nd           | Website:  www.openfoam.com                      |
|    \\/     M anipulation  |                                                 |
\*---------------------------------------------------------------------------*/
FoamFile
{
    version     2.0;
    format      ascii;
    arch        "LSB;label=32;scalar=64";
    class       volScalarField;
    location    "1600";
    object      p;
}
// * * * * * * * * * * * * * * * * * * * * * * * * * * * * * * * * * * * * * //

dimensions      [0 2 -2 0 0 0 0];

internalField   nonuniform List<scalar> 
13056
(
0.011715149
0.01182164
0.012043004
0.012322388
0.012663277
0.013064907
0.013524036
0.014039838
0.014613904
0.015249543
0.015951762
0.016727761
0.01758744
0.018544939
0.019618943
0.020839456
0.022241111
0.023903971
0.025875956
0.028470232
0.031546122
0.036940276
0.041893821
0.082780029
0.052043603
0.0015163577
0.0007849571
0.0018735548
0.0023884443
0.0028108132
0.0030766339
0.0032676409
0.0034071825
0.0035047604
0.0035730709
0.0036217729
0.003656502
0.0036808009
0.0036971341
0.0037075262
0.0037133496
0.0037154825
0.003714679
0.0037115601
0.003706523
0.0036998565
0.0036918417
0.0036826784
0.0036725449
0.0036615626
0.0036498113
0.0036373829
0.0036243446
0.0036107563
0.0035966774
0.0035821315
0.0035671342
0.0035517139
0.003535891
0.0035196783
0.0035030904
0.0034861442
0.0034688326
0.0034511467
0.0034330917
0.0034146652
0.0033958652
0.0033766858
0.0033571253
0.0033371823
0.0033168317
0.003296055
0.0032748449
0.0032531875
0.0032310664
0.0032084688
0.0031853731
0.0031617724
0.0031376417
0.0031129348
0.0030876369
0.0030617232
0.0030351631
0.0030079284
0.0029799866
0.0029513063
0.0029218569
0.0028915848
0.0028604388
0.0028283793
0.0027953559
0.0027613138
0.0027261992
0.0026899459
0.0026524995
0.0026137839
0.0025736998
0.0025321733
0.0024891119
0.002444415
0.0023979779
0.002349679
0.0022994034
0.0022470086
0.0021923235
0.0021351952
0.0020754413
0.0020128711
0.001947269
0.0018784322
0.0018061044
0.0017300133
0.0016502755
0.001567416
0.0014832589
0.0014000786
0.0013185153
0.001238453
0.0011599111
0.0010829247
0.0010075413
0.00093383855
0.00086193181
0.00079197066
0.00072413241
0.00065865781
0.00059587894
0.00053620657
0.00048027139
0.0004287037
0.00038306678
0.00034373088
0.00031667349
0.00029503169
0.00043851437
-0.00039373963
0.011715149
0.01182164
0.012043004
0.012322388
0.012663278
0.013064907
0.013524036
0.014039838
0.014613904
0.015249543
0.015951762
0.016727761
0.017587441
0.01854494
0.019618944
0.020839458
0.022241113
0.023903973
0.025875959
0.028470237
0.031546129
0.036940289
0.041893864
0.082774804
0.052055362
0.001523968
0.00078695039
0.0018744188
0.0023889718
0.0028111859
0.0030769161
0.0032678649
0.0034073659
0.0035049139
0.003573202
0.0036218864
0.0036566014
0.0036808888
0.0036972125
0.0037075966
0.0037134132
0.0037155404
0.0037147318
0.0037116084
0.0037065675
0.0036998976
0.0036918798
0.0036827137
0.0036725778
0.0036615933
0.00364984
0.0036374098
0.0036243698
0.00361078
0.0035966997
0.0035821525
0.0035671541
0.0035517327
0.0035359087
0.0035196951
0.0035031063
0.0034861594
0.003468847
0.0034511604
0.0034331047
0.0034146776
0.003395877
0.003376697
0.003357136
0.0033371925
0.0033168415
0.0032960643
0.0032748537
0.003253196
0.0032310744
0.0032084765
0.0031853805
0.0031617795
0.0031376484
0.0031129412
0.0030876431
0.0030617291
0.0030351688
0.0030079338
0.0029799917
0.0029513112
0.0029218616
0.0028915893
0.0028604431
0.0028283834
0.0027953598
0.0027613175
0.0027262028
0.0026899493
0.0026525028
0.002613787
0.0025737027
0.0025321761
0.0024891146
0.0024444175
0.0023979803
0.0023496813
0.0022994056
0.0022470107
0.0021923255
0.002135197
0.0020754431
0.0020128728
0.0019472706
0.0018784337
0.0018061058
0.0017300146
0.0016502768
0.0015674172
0.00148326
0.0014000797
0.0013185163
0.0012384539
0.001159912
0.0010829255
0.0010075421
0.00093383931
0.00086193254
0.00079197136
0.00072413308
0.00065865846
0.00059587957
0.00053620717
0.00048027198
0.00042870427
0.00038306734
0.00034373143
0.00031667404
0.00029503228
0.00043851498
-0.00039373923
0.011715149
0.01182164
0.012043004
0.012322388
0.012663278
0.013064907
0.013524036
0.014039838
0.014613904
0.015249543
0.015951762
0.016727762
0.017587441
0.01854494
0.019618945
0.020839459
0.022241114
0.023903976
0.025875962
0.028470242
0.031546136
0.036940303
0.041893901
0.08276994
0.052071395
0.0015310449
0.00078914546
0.0018754288
0.0023895884
0.0028116217
0.0030772459
0.0032681268
0.0034075801
0.0035050934
0.0035733552
0.003622019
0.0036567176
0.0036809916
0.0036973042
0.003707679
0.0037134876
0.003715608
0.0037147935
0.003711665
0.0037066195
0.0036999457
0.0036919243
0.003682755
0.0036726163
0.0036616292
0.0036498735
0.0036374412
0.0036243993
0.0036108077
0.0035967258
0.0035821771
0.0035671773
0.0035517546
0.0035359295
0.0035197148
0.003503125
0.0034861771
0.0034688638
0.0034511763
0.0034331199
0.003414692
0.0033958908
0.0033767101
0.0033571484
0.0033372044
0.0033168528
0.0032960751
0.0032748641
0.0032532059
0.0032310839
0.0032084855
0.0031853891
0.0031617877
0.0031376563
0.0031129488
0.0030876503
0.003061736
0.0030351753
0.0030079401
0.0029799977
0.0029513169
0.0029218671
0.0028915946
0.0028604481
0.0028283882
0.0027953644
0.0027613219
0.002726207
0.0026899533
0.0026525066
0.0026137906
0.0025737062
0.0025321794
0.0024891177
0.0024444205
0.0023979831
0.002349684
0.0022994082
0.0022470132
0.0021923278
0.0021351992
0.0020754452
0.0020128748
0.0019472724
0.0018784355
0.0018061074
0.0017300161
0.0016502782
0.0015674185
0.0014832613
0.0014000809
0.0013185175
0.001238455
0.001159913
0.0010829265
0.001007543
0.00093384021
0.0008619334
0.00079197217
0.00072413387
0.00065865921
0.0005958803
0.00053620787
0.00048027266
0.00042870493
0.00038306799
0.00034373207
0.00031667469
0.00029503294
0.00043851569
-0.00039373879
0.011715149
0.01182164
0.012043004
0.012322388
0.012663278
0.013064907
0.013524037
0.014039838
0.014613905
0.015249543
0.015951763
0.016727762
0.017587442
0.018544941
0.019618946
0.02083946
0.022241116
0.023903978
0.025875966
0.028470248
0.031546143
0.036940316
0.041893938
0.082765217
0.052089154
0.0015360647
0.00079118534
0.0018764076
0.0023901861
0.002812044
0.0030775656
0.0032683806
0.0034077878
0.0035052674
0.0035735036
0.0036221476
0.0036568302
0.0036810912
0.003697393
0.0037077588
0.0037135598
0.0037156735
0.0037148533
0.0037117198
0.00370667
0.0036999923
0.0036919674
0.0036827951
0.0036726535
0.003661664
0.0036499061
0.0036374717
0.0036244279
0.0036108346
0.0035967511
0.003582201
0.0035671999
0.0035517759
0.0035359496
0.0035197339
0.003503143
0.0034861942
0.0034688801
0.0034511918
0.0034331346
0.003414706
0.0033959041
0.0033767228
0.0033571605
0.0033372159
0.0033168638
0.0032960856
0.0032748741
0.0032532154
0.003231093
0.0032084942
0.0031853975
0.0031617957
0.0031376639
0.0031129561
0.0030876573
0.0030617427
0.0030351817
0.0030079462
0.0029800036
0.0029513225
0.0029218724
0.0028915997
0.002860453
0.0028283928
0.0027953688
0.0027613261
0.002726211
0.0026899572
0.0026525102
0.0026137941
0.0025737095
0.0025321826
0.0024891208
0.0024444234
0.0023979859
0.0023496866
0.0022994107
0.0022470155
0.0021923301
0.0021352013
0.0020754472
0.0020128767
0.0019472742
0.0018784372
0.001806109
0.0017300176
0.0016502797
0.0015674199
0.0014832625
0.001400082
0.0013185186
0.001238456
0.001159914
0.0010829275
0.0010075439
0.00093384107
0.00086193422
0.00079197297
0.00072413463
0.00065865995
0.000595881
0.00053620855
0.00048027332
0.00042870558
0.00038306862
0.00034373269
0.00031667532
0.00029503355
0.00043851639
-0.00039373838
0.011715149
0.01182164
0.012043004
0.012322388
0.012663278
0.013064907
0.013524037
0.014039838
0.014613905
0.015249544
0.015951763
0.016727763
0.017587443
0.018544942
0.019618947
0.020839462
0.022241118
0.023903981
0.025875969
0.028470253
0.031546151
0.036940329
0.041893979
0.082760097
0.052108015
0.0015418395
0.00079327476
0.0018774158
0.002390802
0.0028124791
0.003077895
0.0032686421
0.0034080018
0.0035054466
0.0035736566
0.0036222801
0.0036569462
0.0036811938
0.0036974846
0.003707841
0.0037136341
0.003715741
0.0037149149
0.0037117763
0.003706722
0.0037000403
0.0036920119
0.0036828363
0.003672692
0.0036616998
0.0036499396
0.0036375031
0.0036244574
0.0036108623
0.0035967772
0.0035822256
0.0035672231
0.0035517978
0.0035359704
0.0035197535
0.0035031617
0.0034862119
0.0034688969
0.0034512077
0.0034331497
0.0034147204
0.0033959178
0.0033767359
0.003357173
0.0033372278
0.0033168752
0.0032960964
0.0032748844
0.0032532253
0.0032311024
0.0032085032
0.0031854061
0.0031618039
0.0031376717
0.0031129636
0.0030876644
0.0030617495
0.0030351883
0.0030079525
0.0029800096
0.0029513282
0.0029218779
0.0028916049
0.002860458
0.0028283976
0.0027953734
0.0027613305
0.0027262152
0.0026899611
0.002652514
0.0026137977
0.002573713
0.0025321859
0.0024891239
0.0024444264
0.0023979887
0.0023496893
0.0022994132
0.0022470179
0.0021923324
0.0021352035
0.0020754492
0.0020128786
0.0019472761
0.0018784389
0.0018061106
0.0017300192
0.0016502811
0.0015674212
0.0014832638
0.0014000833
0.0013185197
0.0012384571
0.0011599151
0.0010829285
0.0010075449
0.00093384196
0.00086193508
0.00079197378
0.00072413541
0.0006586607
0.00059588173
0.00053620926
0.000480274
0.00042870624
0.00038306927
0.00034373333
0.00031667597
0.00029503417
0.0004385171
-0.00039373796
0.011715149
0.01182164
0.012043004
0.012322388
0.012663278
0.013064908
0.013524037
0.014039839
0.014613905
0.015249544
0.015951764
0.016727763
0.017587443
0.018544943
0.019618949
0.020839464
0.022241121
0.023903984
0.025875974
0.02847026
0.03154616
0.036940344
0.041894026
0.082754399
0.052127669
0.0015491378
0.00079550589
0.0018784895
0.0023914579
0.0028129425
0.0030782458
0.0032689207
0.0034082297
0.0035056375
0.0035738195
0.0036224211
0.0036570698
0.0036813031
0.003697582
0.0037079285
0.0037137132
0.0037158129
0.0037149805
0.0037118365
0.0037067773
0.0037000914
0.0036920592
0.0036828803
0.0036727329
0.003661738
0.0036499753
0.0036375365
0.0036244888
0.0036108918
0.003596805
0.0035822518
0.0035672478
0.0035518212
0.0035359925
0.0035197744
0.0035031815
0.0034862307
0.0034689147
0.0034512247
0.0034331659
0.0034147358
0.0033959324
0.0033767498
0.0033571863
0.0033372405
0.0033168872
0.003296108
0.0032748954
0.0032532358
0.0032311125
0.0032085128
0.0031854152
0.0031618127
0.0031376801
0.0031129716
0.0030876721
0.0030617568
0.0030351953
0.0030079591
0.0029800159
0.0029513343
0.0029218837
0.0028916105
0.0028604633
0.0028284027
0.0027953783
0.0027613351
0.0027262196
0.0026899654
0.0026525181
0.0026138016
0.0025737167
0.0025321894
0.0024891272
0.0024444296
0.0023979917
0.0023496922
0.002299416
0.0022470205
0.0021923348
0.0021352058
0.0020754514
0.0020128807
0.001947278
0.0018784408
0.0018061124
0.0017300208
0.0016502826
0.0015674227
0.0014832652
0.0014000845
0.0013185209
0.0012384583
0.0011599162
0.0010829295
0.0010075459
0.00093384291
0.00086193599
0.00079197466
0.00072413625
0.0006586615
0.0005958825
0.00053621001
0.00048027473
0.00042870695
0.00038306996
0.00034373401
0.00031667666
0.00029503484
0.00043851786
-0.00039373752
0.011715149
0.01182164
0.012043004
0.012322388
0.012663278
0.013064908
0.013524037
0.014039839
0.014613905
0.015249544
0.015951764
0.016727764
0.017587444
0.018544944
0.01961895
0.020839466
0.022241123
0.023903988
0.025875979
0.028470269
0.031546171
0.036940363
0.041894081
0.082748027
0.052148367
0.0015571416
0.00079790805
0.0018796446
0.0023921637
0.0028134411
0.0030786233
0.0032692203
0.0034084749
0.0035058429
0.0035739948
0.0036225729
0.0036572028
0.0036814207
0.0036976869
0.0037080228
0.0037137983
0.0037158902
0.0037150511
0.0037119012
0.0037068369
0.0037001463
0.0036921101
0.0036829276
0.0036727769
0.003661779
0.0036500137
0.0036375725
0.0036245225
0.0036109236
0.0035968348
0.0035822799
0.0035672744
0.0035518463
0.0035360162
0.0035197969
0.0035032028
0.003486251
0.003468934
0.003451243
0.0034331832
0.0034147523
0.0033959482
0.0033767648
0.0033572006
0.0033372541
0.0033169002
0.0032961204
0.0032749073
0.0032532471
0.0032311233
0.0032085231
0.0031854251
0.0031618221
0.0031376891
0.0031129802
0.0030876803
0.0030617647
0.0030352028
0.0030079663
0.0029800228
0.0029513409
0.00292189
0.0028916165
0.0028604691
0.0028284082
0.0027953835
0.0027613401
0.0027262244
0.0026899699
0.0026525224
0.0026138057
0.0025737206
0.0025321931
0.0024891308
0.002444433
0.002397995
0.0023496953
0.0022994189
0.0022470233
0.0021923375
0.0021352083
0.0020754538
0.0020128829
0.0019472801
0.0018784428
0.0018061143
0.0017300226
0.0016502843
0.0015674242
0.0014832666
0.0014000859
0.0013185223
0.0012384595
0.0011599173
0.0010829306
0.0010075469
0.00093384394
0.00086193696
0.00079197559
0.00072413715
0.00065866237
0.00059588334
0.00053621081
0.00048027551
0.00042870771
0.00038307071
0.00034373474
0.0003166774
0.00029503555
0.00043851868
-0.00039373704
0.011715149
0.01182164
0.012043005
0.012322388
0.012663278
0.013064908
0.013524037
0.014039839
0.014613906
0.015249545
0.015951765
0.016727765
0.017587446
0.018544946
0.019618952
0.020839469
0.022241127
0.023903993
0.025875986
0.028470279
0.031546185
0.036940387
0.041894146
0.082740838
0.052170382
0.0015657175
0.00080051105
0.0018808966
0.0023929289
0.0028139817
0.0030790325
0.0032695452
0.0034087407
0.0035060655
0.0035741848
0.0036227374
0.0036573469
0.0036815482
0.0036978006
0.0037081249
0.0037138906
0.0037159741
0.0037151277
0.0037119713
0.0037069014
0.0037002059
0.0036921653
0.0036829788
0.0036728246
0.0036618236
0.0036500553
0.0036376115
0.0036245591
0.003610958
0.0035968672
0.0035823104
0.0035673032
0.0035518736
0.003536042
0.0035198214
0.003503226
0.0034862729
0.0034689548
0.0034512628
0.0034332021
0.0034147703
0.0033959652
0.003376781
0.0033572161
0.0033372689
0.0033169143
0.0032961338
0.0032749201
0.0032532594
0.003231135
0.0032085343
0.0031854358
0.0031618323
0.0031376989
0.0031129895
0.0030876892
0.0030617732
0.0030352109
0.0030079741
0.0029800303
0.002951348
0.0029218968
0.002891623
0.0028604753
0.0028284141
0.0027953892
0.0027613455
0.0027262296
0.0026899749
0.0026525271
0.0026138102
0.0025737249
0.0025321972
0.0024891347
0.0024444367
0.0023979985
0.0023496986
0.0022994221
0.0022470263
0.0021923403
0.0021352111
0.0020754564
0.0020128854
0.0019472824
0.0018784449
0.0018061163
0.0017300245
0.0016502861
0.0015674259
0.0014832682
0.0014000874
0.0013185237
0.0012384609
0.0011599186
0.0010829318
0.0010075481
0.00093384504
0.00086193802
0.00079197661
0.00072413812
0.00065866331
0.00059588424
0.00053621168
0.00048027636
0.00042870853
0.00038307152
0.00034373554
0.00031667821
0.00029503633
0.00043851956
-0.00039373651
0.011715149
0.01182164
0.012043005
0.012322388
0.012663278
0.013064908
0.013524038
0.01403984
0.014613906
0.015249546
0.015951766
0.016727766
0.017587447
0.018544948
0.019618955
0.020839472
0.022241131
0.023903999
0.025875994
0.028470292
0.031546202
0.036940416
0.041894221
0.082732652
0.05219394
0.0015750262
0.00080335282
0.0018822638
0.0023937646
0.0028145721
0.0030794794
0.0032699
0.003409031
0.0035063087
0.0035743923
0.0036229171
0.0036575043
0.0036816874
0.0036979248
0.0037082364
0.0037139914
0.0037160656
0.0037152112
0.003712048
0.0037069719
0.003700271
0.0036922256
0.0036830348
0.0036728767
0.0036618722
0.0036501008
0.0036376541
0.0036245991
0.0036109955
0.0035969026
0.0035823438
0.0035673346
0.0035519033
0.0035360702
0.003519848
0.0035032512
0.0034862969
0.0034689776
0.0034512844
0.0034332226
0.0034147898
0.0033959839
0.0033767988
0.003357233
0.003337285
0.0033169297
0.0032961485
0.0032749341
0.0032532727
0.0032311478
0.0032085465
0.0031854474
0.0031618434
0.0031377095
0.0031129997
0.003087699
0.0030617825
0.0030352198
0.0030079826
0.0029800384
0.0029513558
0.0029219043
0.0028916301
0.0028604821
0.0028284206
0.0027953954
0.0027613515
0.0027262352
0.0026899803
0.0026525323
0.0026138151
0.0025737296
0.0025322017
0.002489139
0.0024444407
0.0023980024
0.0023497023
0.0022994255
0.0022470296
0.0021923434
0.002135214
0.0020754592
0.002012888
0.0019472849
0.0018784473
0.0018061185
0.0017300266
0.0016502881
0.0015674278
0.00148327
0.0014000891
0.0013185252
0.0012384623
0.00115992
0.0010829332
0.0010075494
0.00093384625
0.00086193918
0.00079197772
0.00072413919
0.00065866433
0.00059588523
0.00053621264
0.00048027728
0.00042870943
0.0003830724
0.00034373641
0.00031667909
0.00029503718
0.00043852053
-0.00039373594
0.011715149
0.011821641
0.012043005
0.012322389
0.012663279
0.013064909
0.013524038
0.01403984
0.014613907
0.015249547
0.015951767
0.016727768
0.017587449
0.01854495
0.019618958
0.020839476
0.022241137
0.023904007
0.025876004
0.028470308
0.031546223
0.036940453
0.041894311
0.082723253
0.052219253
0.0015852289
0.00080647587
0.0018837665
0.0023946835
0.0028152212
0.0030799708
0.0032702901
0.0034093502
0.003506576
0.0035746205
0.0036231147
0.0036576773
0.0036818405
0.0036980613
0.003708359
0.0037141021
0.0037161663
0.0037153031
0.0037121322
0.0037070494
0.0037003426
0.0036922918
0.0036830963
0.003672934
0.0036619256
0.0036501507
0.0036377009
0.003624643
0.0036110368
0.0035969415
0.0035823804
0.0035673692
0.003551936
0.0035361011
0.0035198773
0.003503279
0.0034863232
0.0034690026
0.0034513082
0.0034332452
0.0034148113
0.0033960043
0.0033768183
0.0033572516
0.0033373027
0.0033169466
0.0032961646
0.0032749495
0.0032532874
0.0032311618
0.0032085599
0.0031854603
0.0031618557
0.0031377212
0.0031130109
0.0030877097
0.0030617928
0.0030352296
0.003007992
0.0029800474
0.0029513644
0.0029219125
0.0028916379
0.0028604896
0.0028284277
0.0027954022
0.002761358
0.0027262414
0.0026899862
0.002652538
0.0026138205
0.0025737347
0.0025322066
0.0024891436
0.0024444452
0.0023980066
0.0023497063
0.0022994294
0.0022470333
0.0021923469
0.0021352173
0.0020754623
0.0020128909
0.0019472877
0.0018784499
0.001806121
0.0017300289
0.0016502902
0.0015674298
0.0014832719
0.0014000909
0.001318527
0.001238464
0.0011599216
0.0010829346
0.0010075508
0.00093384759
0.00086194045
0.00079197894
0.00072414036
0.00065866546
0.00059588631
0.00053621369
0.0004802783
0.00042871042
0.00038307337
0.00034373736
0.00031668005
0.00029503811
0.00043852159
-0.00039373532
0.011715149
0.011821641
0.012043005
0.012322389
0.012663279
0.013064909
0.013524039
0.014039841
0.014613908
0.015249548
0.015951768
0.016727769
0.017587451
0.018544953
0.019618962
0.020839481
0.022241144
0.023904016
0.025876016
0.028470327
0.031546249
0.036940499
0.041894418
0.082712384
0.052246523
0.0015964738
0.0008099266
0.0018854273
0.0023956993
0.0028159387
0.003080514
0.0032707213
0.003409703
0.0035068715
0.0035748726
0.003623333
0.0036578686
0.0036820097
0.0036982122
0.0037084945
0.0037142246
0.0037162776
0.0037154047
0.0037122253
0.0037071351
0.0037004216
0.003692365
0.0036831643
0.0036729973
0.0036619847
0.003650206
0.0036377527
0.0036246916
0.0036110825
0.0035969845
0.003582421
0.0035674075
0.0035519721
0.0035361353
0.0035199097
0.0035033097
0.0034863524
0.0034690302
0.0034513345
0.0034332702
0.0034148351
0.003396027
0.0033768398
0.0033572721
0.0033373223
0.0033169653
0.0032961825
0.0032749665
0.0032533037
0.0032311773
0.0032085748
0.0031854744
0.0031618693
0.0031377342
0.0031130233
0.0030877215
0.0030618041
0.0030352404
0.0030080023
0.0029800573
0.0029513738
0.0029219215
0.0028916466
0.0028604978
0.0028284356
0.0027954097
0.0027613652
0.0027262483
0.0026899928
0.0026525442
0.0026138265
0.0025737404
0.002532212
0.0024891488
0.0024444501
0.0023980113
0.0023497108
0.0022994336
0.0022470373
0.0021923507
0.0021352209
0.0020754657
0.0020128942
0.0019472907
0.0018784528
0.0018061237
0.0017300315
0.0016502926
0.0015674321
0.001483274
0.0014000929
0.0013185288
0.0012384658
0.0011599233
0.0010829362
0.0010075523
0.00093384906
0.00086194186
0.00079198028
0.00072414165
0.0006586667
0.00059588751
0.00053621484
0.00048027942
0.00042871151
0.00038307444
0.00034373841
0.00031668112
0.00029503914
0.00043852277
-0.00039373462
0.011715149
0.011821641
0.012043005
0.012322389
0.012663279
0.013064909
0.013524039
0.014039842
0.014613909
0.015249549
0.01595177
0.016727772
0.017587454
0.018544957
0.019618967
0.020839488
0.022241152
0.023904028
0.025876031
0.028470351
0.03154628
0.036940556
0.041894543
0.082699737
0.052275937
0.0016089214
0.00081375611
0.0018872707
0.0023968271
0.0028167354
0.003081117
0.0032712
0.0034100946
0.0035071995
0.0035751526
0.0036235754
0.0036580809
0.0036821975
0.0036983797
0.0037086449
0.0037143605
0.0037164011
0.0037155174
0.0037123286
0.0037072302
0.0037005094
0.0036924464
0.0036832398
0.0036730676
0.0036620503
0.0036502673
0.0036378101
0.0036247455
0.0036111332
0.0035970322
0.0035824659
0.0035674499
0.0035520123
0.0035361732
0.0035199456
0.0035033438
0.0034863847
0.0034690609
0.0034513636
0.003433298
0.0034148615
0.0033960521
0.0033768638
0.0033572949
0.0033373441
0.0033169861
0.0032962023
0.0032749854
0.0032533217
0.0032311946
0.0032085912
0.0031854902
0.0031618843
0.0031377486
0.003113037
0.0030877347
0.0030618167
0.0030352525
0.0030080138
0.0029800682
0.0029513843
0.0029219315
0.0028916562
0.002860507
0.0028284444
0.0027954181
0.0027613732
0.0027262559
0.0026900001
0.0026525512
0.0026138331
0.0025737467
0.002532218
0.0024891545
0.0024444555
0.0023980164
0.0023497157
0.0022994383
0.0022470417
0.0021923549
0.0021352249
0.0020754695
0.0020128977
0.0019472941
0.001878456
0.0018061267
0.0017300343
0.0016502953
0.0015674345
0.0014832763
0.0014000951
0.0013185309
0.0012384677
0.0011599251
0.001082938
0.001007554
0.00093385069
0.00086194342
0.00079198178
0.00072414309
0.00065866808
0.00059588884
0.00053621613
0.00048028067
0.00042871273
0.00038307563
0.00034373958
0.00031668231
0.00029504029
0.00043852408
-0.00039373385
0.011715149
0.011821641
0.012043006
0.012322389
0.01266328
0.01306491
0.01352404
0.014039843
0.01461391
0.015249551
0.015951772
0.016727774
0.017587457
0.018544961
0.019618972
0.020839495
0.022241162
0.023904042
0.025876049
0.028470379
0.031546318
0.036940624
0.041894692
0.082684944
0.052307656
0.0016227529
0.00081802107
0.0018893242
0.0023980839
0.0028176231
0.003081789
0.0032717334
0.003410531
0.003507565
0.0035754645
0.0036238455
0.0036583175
0.0036824067
0.0036985663
0.0037088125
0.003714512
0.0037165387
0.003715643
0.0037124438
0.0037073361
0.0037006073
0.0036925369
0.0036833239
0.0036731459
0.0036621233
0.0036503356
0.0036378741
0.0036248056
0.0036111896
0.0035970853
0.003582516
0.0035674972
0.003552057
0.0035362155
0.0035199857
0.0035033818
0.0034864207
0.0034690951
0.0034513961
0.0034333289
0.0034148909
0.0033960801
0.0033768905
0.0033573204
0.0033373683
0.0033170092
0.0032962243
0.0032750065
0.0032533419
0.0032312138
0.0032086096
0.0031855077
0.0031619011
0.0031377646
0.0031130523
0.0030877493
0.0030618307
0.0030352658
0.0030080266
0.0029800805
0.002951396
0.0029219427
0.0028916668
0.0028605172
0.0028284542
0.0027954274
0.0027613821
0.0027262644
0.0026900082
0.0026525589
0.0026138405
0.0025737538
0.0025322247
0.0024891609
0.0024444616
0.0023980222
0.0023497212
0.0022994435
0.0022470467
0.0021923596
0.0021352293
0.0020754737
0.0020129017
0.0019472979
0.0018784595
0.00180613
0.0017300374
0.0016502982
0.0015674373
0.001483279
0.0014000976
0.0013185333
0.00123847
0.0011599272
0.00108294
0.0010075559
0.00093385251
0.00086194516
0.00079198345
0.00072414469
0.00065866962
0.00059589033
0.00053621756
0.00048028206
0.00042871408
0.00038307695
0.00034374088
0.00031668363
0.00029504157
0.00043852553
-0.000393733
0.011715149
0.011821641
0.012043006
0.01232239
0.01266328
0.013064911
0.013524041
0.014039844
0.014613912
0.015249553
0.015951774
0.016727777
0.017587462
0.018544967
0.019618979
0.020839504
0.022241174
0.023904058
0.02587607
0.028470412
0.031546363
0.036940704
0.041894866
0.082667561
0.052341807
0.0016381726
0.0008227846
0.0018916182
0.0023994885
0.002818615
0.0030825399
0.0032723294
0.0034110187
0.0035079735
0.0035758131
0.0036241473
0.0036585819
0.0036826405
0.0036987748
0.0037089998
0.0037146812
0.0037166924
0.0037157834
0.0037125724
0.0037074545
0.0037007165
0.0036926381
0.0036834179
0.0036732334
0.003662205
0.0036504119
0.0036379456
0.0036248727
0.0036112527
0.0035971447
0.003582572
0.0035675501
0.0035521069
0.0035362628
0.0035200304
0.0035034242
0.003486461
0.0034691334
0.0034514324
0.0034333634
0.0034149238
0.0033961114
0.0033769203
0.0033573488
0.0033373954
0.003317035
0.003296249
0.00327503
0.0032533643
0.0032312352
0.0032086301
0.0031855273
0.0031619198
0.0031377825
0.0031130694
0.0030877657
0.0030618463
0.0030352808
0.0030080409
0.0029800941
0.0029514091
0.0029219552
0.0028916788
0.0028605286
0.0028284651
0.0027954379
0.002761392
0.0027262739
0.0026900172
0.0026525675
0.0026138488
0.0025737616
0.0025322322
0.002489168
0.0024444684
0.0023980287
0.0023497273
0.0022994493
0.0022470522
0.0021923648
0.0021352343
0.0020754784
0.0020129062
0.0019473021
0.0018784635
0.0018061338
0.001730041
0.0016503016
0.0015674404
0.0014832819
0.0014001003
0.0013185359
0.0012384724
0.0011599296
0.0010829423
0.001007558
0.00093385454
0.0008619471
0.00079198531
0.00072414647
0.00065867134
0.00059589198
0.00053621917
0.00048028361
0.00042871559
0.00038307844
0.00034374234
0.00031668511
0.00029504299
0.00043852716
-0.00039373204
0.011715149
0.011821641
0.012043006
0.01232239
0.012663281
0.013064912
0.013524042
0.014039845
0.014613914
0.015249555
0.015951777
0.016727781
0.017587466
0.018544973
0.019618987
0.020839515
0.022241188
0.023904077
0.025876095
0.028470451
0.031546415
0.036940798
0.041895071
0.082647054
0.052378459
0.001655413
0.00082811719
0.0018941869
0.0024010618
0.0028197261
0.003083381
0.003272997
0.0034115649
0.0035084309
0.0035762034
0.0036244853
0.0036588779
0.0036829024
0.0036990083
0.0037092095
0.0037148708
0.0037168646
0.0037159406
0.0037127165
0.0037075871
0.0037008389
0.0036927515
0.0036835232
0.0036733314
0.0036622964
0.0036504974
0.0036380257
0.0036249479
0.0036113234
0.0035972112
0.0035826347
0.0035676093
0.0035521628
0.0035363157
0.0035200806
0.0035034717
0.003486506
0.0034691762
0.0034514731
0.0034334021
0.0034149606
0.0033961464
0.0033769536
0.0033573806
0.0033374257
0.0033170639
0.0032962766
0.0032750564
0.0032533895
0.0032312593
0.0032086531
0.0031855492
0.0031619408
0.0031378025
0.0031130886
0.003087784
0.0030618638
0.0030352975
0.0030080569
0.0029801094
0.0029514237
0.0029219692
0.0028916922
0.0028605414
0.0028284773
0.0027954495
0.0027614032
0.0027262846
0.0026900274
0.0026525772
0.002613858
0.0025737704
0.0025322406
0.002489176
0.002444476
0.0023980359
0.0023497342
0.0022994558
0.0022470584
0.0021923707
0.0021352399
0.0020754837
0.0020129112
0.0019473068
0.0018784679
0.001806138
0.0017300449
0.0016503053
0.0015674439
0.0014832852
0.0014001034
0.0013185388
0.0012384752
0.0011599322
0.0010829448
0.0010075604
0.00093385682
0.00086194928
0.00079198739
0.00072414848
0.00065867326
0.00059589384
0.00053622096
0.00048028535
0.00042871728
0.00038308009
0.00034374397
0.00031668676
0.00029504459
0.00043852897
-0.00039373096
0.011715149
0.011821642
0.012043007
0.012322391
0.012663282
0.013064913
0.013524043
0.014039847
0.014613916
0.015249557
0.015951781
0.016727785
0.017587472
0.01854498
0.019618997
0.020839527
0.022241204
0.0239041
0.025876124
0.028470496
0.031546476
0.036940906
0.041895311
0.08262278
0.052417611
0.0016747406
0.00083409778
0.0018970685
0.0024028276
0.002820973
0.0030843248
0.0032737461
0.0034121778
0.0035089442
0.0035766414
0.0036248645
0.0036592101
0.0036831962
0.0036992703
0.0037094449
0.0037150834
0.0037170578
0.0037161169
0.0037128782
0.0037077358
0.0037009763
0.0036928787
0.0036836413
0.0036734413
0.003662399
0.0036505934
0.0036381156
0.0036250322
0.0036114026
0.0035972859
0.0035827051
0.0035676757
0.0035522256
0.0035363751
0.0035201368
0.003503525
0.0034865566
0.0034692242
0.0034515188
0.0034334455
0.0034150019
0.0033961857
0.0033769911
0.0033574163
0.0033374598
0.0033170964
0.0032963076
0.003275086
0.0032534177
0.0032312862
0.0032086788
0.0031855739
0.0031619643
0.003137825
0.0031131101
0.0030878045
0.0030618835
0.0030353163
0.0030080749
0.0029801266
0.0029514401
0.0029219849
0.0028917072
0.0028605557
0.002828491
0.0027954626
0.0027614157
0.0027262965
0.0026900388
0.0026525881
0.0026138684
0.0025737803
0.00253225
0.002489185
0.0024444845
0.002398044
0.0023497419
0.0022994632
0.0022470654
0.0021923773
0.0021352461
0.0020754896
0.0020129168
0.0019473121
0.0018784729
0.0018061427
0.0017300493
0.0016503094
0.0015674478
0.0014832888
0.0014001069
0.0013185421
0.0012384783
0.0011599352
0.0010829476
0.0010075631
0.00093385937
0.00086195173
0.00079198973
0.00072415072
0.00065867542
0.00059589592
0.00053622297
0.0004802873
0.00042871918
0.00038308196
0.0003437458
0.00031668861
0.00029504638
0.00043853102
-0.00039372976
0.011715149
0.011821642
0.012043007
0.012322392
0.012663283
0.013064914
0.013524045
0.014039849
0.014613918
0.015249561
0.015951785
0.016727791
0.017587479
0.018544989
0.019619008
0.020839542
0.022241223
0.023904126
0.025876158
0.028470547
0.031546545
0.036941028
0.041895592
0.082593969
0.052459166
0.0016964644
0.00084081499
0.0019003057
0.0024048122
0.0028223744
0.0030853856
0.0032745879
0.0034128665
0.003509521
0.0035771337
0.0036252907
0.0036595834
0.0036835263
0.0036995647
0.0037097093
0.0037153224
0.0037172749
0.0037163151
0.0037130598
0.003707903
0.0037011306
0.0036930216
0.003683774
0.0036735648
0.0036625143
0.0036507011
0.0036382165
0.003625127
0.0036114917
0.0035973697
0.0035827842
0.0035677503
0.0035522961
0.0035364418
0.0035202
0.0035035849
0.0034866134
0.0034692781
0.00345157
0.0034334942
0.0034150482
0.0033962299
0.0033770332
0.0033574564
0.003337498
0.0033171329
0.0032963424
0.0032751192
0.0032534495
0.0032313166
0.0032087078
0.0031856015
0.0031619907
0.0031378503
0.0031131343
0.0030878276
0.0030619056
0.0030353375
0.0030080951
0.0029801459
0.0029514586
0.0029220025
0.002891724
0.0028605719
0.0028285064
0.0027954773
0.0027614297
0.0027263099