/*--------------------------------*- C++ -*----------------------------------*\
| =========                 |                                                 |
| \\      /  F ield         | OpenFOAM: The Open Source CFD Toolbox           |
|  \\    /   O peration     | Version:  2206                                  |
|   \\  /    A nd           | Website:  www.openfoam.com                      |
|    \\/     M anipulation  |                                                 |
\*---------------------------------------------------------------------------*/
FoamFile
{
    version     2.0;
    format      ascii;
    arch        "LSB;label=32;scalar=64";
    class       surfaceScalarField;
    location    "1600";
    object      phi;
}
// * * * * * * * * * * * * * * * * * * * * * * * * * * * * * * * * * * * * * //

dimensions      [0 3 -1 0 0 0 0];

oriented        oriented;

internalField   nonuniform List<scalar> 
25880
(
2.0046227e-06
3.1497388e-11
2.0045487e-06
7.3913816e-11
2.0044568e-06
9.1901078e-11
2.0043526e-06
1.0427684e-10
2.0042322e-06
1.2038458e-10
2.0040938e-06
1.3833876e-10
2.0039354e-06
1.5839862e-10
2.0037538e-06
1.8165572e-10
2.0035447e-06
2.0903593e-10
2.0033032e-06
2.4152525e-10
2.0030228e-06
2.8042166e-10
2.0026951e-06
3.2769997e-10
2.0023093e-06
3.858182e-10
2.0018497e-06
4.5962067e-10
2.0012966e-06
5.5307366e-10
2.0006135e-06
6.8309258e-10
1.9997665e-06
8.4702937e-10
1.9986336e-06
1.1329055e-09
1.9972002e-06
1.4333802e-09
1.994884e-06
2.316228e-09
1.9919967e-06
2.887233e-09
1.9851911e-06
6.805621e-09
1.9825764e-06
2.6146894e-09
9.9597747e-07
9.8659893e-07
4.3969822e-09
9.9158049e-07
2.1111277e-09
2.2858546e-09
1.5991952e-09
5.1193246e-10
1.3510979e-09
2.4809737e-10
1.1983065e-09
1.527914e-10
1.089363e-09
1.0894344e-10
1.0061186e-09
8.3244379e-11
9.393876e-10
6.6731041e-11
8.8424534e-10
5.514226e-11
8.3758701e-10
4.6658327e-11
7.973488e-10
4.0238213e-11
7.6213182e-10
3.5216977e-11
7.3094324e-10
3.1188576e-11
7.0304622e-10
2.7897021e-11
6.7787877e-10
2.5167451e-11
6.5500672e-10
2.2872053e-11
6.3408755e-10
2.0919171e-11
6.1484489e-10
1.9242653e-11
5.9705632e-10
1.7788579e-11
5.8053851e-10
1.651781e-11
5.6513772e-10
1.5400786e-11
5.5072566e-10
1.4412061e-11
5.3719336e-10
1.3532299e-11
5.2444799e-10
1.2745365e-11
5.1241001e-10
1.2037986e-11
5.0101063e-10
1.1399374e-11
4.9018978e-10
1.0820855e-11
4.7989483e-10
1.0294951e-11
4.7007952e-10
9.8153075e-12
4.6070304e-10
9.3764799e-12
4.5172939e-10
8.973649e-12
4.4312647e-10
8.6029266e-12
4.3486534e-10
8.2611233e-12
4.2692007e-10
7.9452719e-12
4.1926733e-10
7.652743e-12
4.1188599e-10
7.3813406e-12
4.0475695e-10
7.1290342e-12
3.9786303e-10
6.8939267e-12
3.9118847e-10
6.6745545e-12
3.8471875e-10
6.469717e-12
3.7844057e-10
6.2781824e-12
3.7234175e-10
6.0988231e-12
3.6641106e-10
5.9306889e-12
3.6063811e-10
5.7729461e-12
3.5501338e-10
5.6247289e-12
3.4952817e-10
5.4852155e-12
3.4417428e-10
5.3538861e-12
3.3894399e-10
5.2302975e-12
3.3383011e-10
5.1138796e-12
3.2882597e-10
5.0041325e-12
3.2392534e-10
4.9006367e-12
3.1912232e-10
4.8030208e-12
3.1441138e-10
4.7109404e-12
3.0978746e-10
4.6239148e-12
3.0524583e-10
4.5416352e-12
3.0078178e-10
4.4640428e-12
2.963909e-10
4.3908845e-12
2.9206905e-10
4.3218513e-12
2.8781229e-10
4.2567572e-12
2.8361687e-10
4.1954234e-12
2.7947917e-10
4.1376931e-12
2.7539582e-10
4.083354e-12
2.7136365e-10
4.0321715e-12
2.6737955e-10
3.9840971e-12
2.6344043e-10
3.9391158e-12
2.5954336e-10
3.8970743e-12
2.5568551e-10
3.8578501e-12
2.5186414e-10
3.8213667e-12
2.4807658e-10
3.7875603e-12
2.4432021e-10
3.7563735e-12
2.4059257e-10
3.7276376e-12
2.3689127e-10
3.7012989e-12
2.3321381e-10
3.6774606e-12
2.2955774e-10
3.6560747e-12
2.2592067e-10
3.6370702e-12
2.2230022e-10
3.6204454e-12
2.1869402e-10
3.6062068e-12
2.1509965e-10
3.5943633e-12
2.1151481e-10
3.5848452e-12
2.0793712e-10
3.577682e-12
2.0436411e-10
3.5730155e-12
2.0079322e-10
3.570886e-12
1.972219e-10
3.5713257e-12
1.9364744e-10
3.574457e-12
1.9006706e-10
3.5803834e-12
1.8647789e-10
3.5891654e-12
1.8287637e-10
3.6015242e-12
1.7926019e-10
3.6161815e-12
1.7562731e-10
3.6328807e-12
1.7212583e-10
3.5014715e-12
1.6882749e-10
3.2983408e-12
1.6571263e-10
3.1148579e-12
1.6276646e-10
2.9461761e-12
1.5997511e-10
2.7913508e-12
1.5732532e-10
2.6497896e-12
1.5480514e-10
2.5201802e-12
1.5240376e-10
2.4013791e-12
1.5011137e-10
2.292394e-12
1.4791906e-10
2.1923039e-12
1.4581871e-10
2.1003496e-12
1.4380268e-10
2.0160288e-12
1.4186371e-10
1.938974e-12
1.3999465e-10
1.8690545e-12
1.3818847e-10
1.8061831e-12
1.3643717e-10
1.7513017e-12
1.3473297e-10
1.7042025e-12
1.3306222e-10
1.6707451e-12
1.314196e-10
1.6426204e-12
1.2975339e-10
1.6662116e-12
1.2814427e-10
1.609115e-12
1.2631356e-10
1.8307121e-12
1.0828802e-12
2.034496e-06
6.3535044e-11
2.0344208e-06
1.4910807e-10
2.0343273e-06
1.8540644e-10
2.0342212e-06
2.1037597e-10
2.0340987e-06
2.4287155e-10
2.033958e-06
2.7909129e-10
2.0337968e-06
3.1955774e-10
2.033612e-06
3.6647264e-10
2.0333993e-06
4.2170354e-10
2.0331536e-06
4.8723906e-10
2.0328684e-06
5.6569698e-10
2.032535e-06
6.6106011e-10
2.0321425e-06
7.7828552e-10
2.031675e-06
9.2714323e-10
2.0311124e-06
1.1156312e-09
2.0304177e-06
1.3778645e-09
2.0295562e-06
1.7084965e-09
2.0284041e-06
2.2850469e-09
2.0269464e-06
2.891015e-09
2.0245913e-06
4.6714043e-09
2.0216555e-06
5.8229631e-09
2.0147361e-06
1.3725058e-08
2.012073e-06
5.2777728e-09
1.0172141e-06
1.9814578e-06
1.3415817e-08
1.9953788e-06
6.4595357e-09
9.2421354e-09
4.8933411e-09
2.0781271e-09
4.134202e-09
1.0072365e-09
3.6666625e-09
6.2033086e-10
3.3332972e-09
4.4230879e-10
3.0785727e-09
3.3796882e-10
2.8743804e-09
2.7092335e-10
2.7056491e-09
2.2387359e-10
2.5628789e-09
1.8942848e-10
2.4397544e-09
1.6336273e-10
2.3319948e-09
1.4297661e-10
2.2365618e-09
1.2662154e-10
2.1512008e-09
1.1325807e-10
2.074192e-09
1.0217625e-10
2.0042069e-09
9.2857155e-11
1.9401973e-09
8.4928702e-11
1.8813178e-09
7.8122202e-11
1.8268875e-09
7.2218836e-11
1.7763456e-09
6.7059721e-11
1.7292217e-09
6.2524747e-11
1.6851231e-09
5.8510663e-11
1.6437164e-09
5.4938957e-11
1.6047177e-09
5.174412e-11
1.5678834e-09
4.8872271e-11
1.5330031e-09
4.6279608e-11
1.4998931e-09
4.3930909e-11
1.4683922e-09
4.179582e-11
1.438359e-09
3.9848545e-11
1.4096685e-09
3.8066974e-11
1.3822106e-09
3.6431546e-11
1.355887e-09
3.4926475e-11
1.3306094e-09
3.3538809e-11
1.3062981e-09
3.2256504e-11
1.282882e-09
3.1068885e-11
1.2602963e-09
2.9967036e-11
1.2384826e-09
2.8942713e-11
1.2173883e-09
2.7988216e-11
1.1969653e-09
2.7097602e-11
1.177169e-09
2.6265996e-11
1.1579588e-09
2.5488398e-11
1.1392974e-09
2.4760229e-11
1.1211504e-09
2.4077632e-11
1.1034861e-09
2.3437223e-11
1.0862754e-09
2.2835485e-11
1.0694915e-09
2.2269086e-11
1.0531095e-09
2.1735911e-11
1.0371056e-09
2.1234162e-11
1.021458e-09
2.0761525e-11
1.0061461e-09
2.031597e-11
9.9115099e-10
1.9895795e-11
9.7645452e-10
1.9499491e-11
9.620398e-10
1.9125659e-11
9.4789136e-10
1.877235e-11
9.3399469e-10
1.843831e-11
9.2033543e-10
1.8123298e-11
9.0690003e-10
1.7826288e-11
8.9367586e-10
1.7546025e-11
8.8065086e-10
1.7281754e-11
8.6781353e-10
1.7032749e-11
8.5515285e-10
1.6798374e-11
8.4265844e-10
1.6577766e-11
8.3032064e-10
1.6369975e-11
8.1812993e-10
1.6174801e-11
8.0607687e-10
1.5992185e-11
7.9415244e-10
1.5821503e-11
7.8234803e-10
1.566226e-11
7.7065525e-10
1.5514143e-11
7.5906592e-10
1.5376895e-11
7.4757201e-10
1.5250282e-11
7.3616602e-10
1.513362e-11
7.2484063e-10
1.502669e-11
7.1358818e-10
1.492991e-11
7.0240117e-10
1.4843087e-11
6.9127231e-10
1.4765933e-11
6.8019432e-10
1.4698439e-11
6.6915989e-10
1.4640632e-11
6.581617e-10
1.459255e-11
6.4719264e-10
1.4553909e-11
6.3624549e-10
1.4524828e-11
6.2531263e-10
1.4505883e-11
6.1438627e-10
1.4497238e-11
6.0345858e-10
1.4499023e-11
5.925213e-10
1.4511736e-11
5.8156589e-10
1.4535796e-11
5.705836e-10
1.457145e-11
5.595635e-10
1.4621624e-11
5.4849855e-10
1.4681129e-11
5.373825e-10
1.4748937e-11
5.2666852e-10
1.4215444e-11
5.1657611e-10
1.3390756e-11
5.0704513e-10
1.2645838e-11
4.9803029e-10
1.1961017e-11
4.8948919e-10
1.1332451e-11
4.8138124e-10
1.0757736e-11
4.7366988e-10
1.0231542e-11
4.6632203e-10
9.7492284e-12
4.5930766e-10
9.3067651e-12
4.5259955e-10
8.9004139e-12
4.4617281e-10
8.527092e-12
4.4000407e-10
8.1847601e-12
4.3407112e-10
7.8719261e-12
4.2835212e-10
7.5880589e-12
4.228255e-10
7.3328037e-12
4.1746681e-10
7.1099846e-12
4.1225226e-10
6.9187543e-12
4.071401e-10
6.7829037e-12
4.0211404e-10
6.6686863e-12
3.9701583e-10
6.7644221e-12
3.9209298e-10
6.5319592e-12
3.8648701e-10
7.4366911e-12
4.389284e-12
2.094688e-06
9.6613457e-11
2.0946104e-06
2.2676219e-10
2.0945138e-06
2.8198732e-10
2.0944042e-06
3.1996753e-10
2.0942777e-06
3.693885e-10
2.0941323e-06
4.2447187e-10
2.0939658e-06
4.8601148e-10
2.0937749e-06
5.5735523e-10
2.0935553e-06
6.4134284e-10
2.0933015e-06
7.4099773e-10
2.0930069e-06
8.6029976e-10
2.0926627e-06
1.005304e-09
2.0922574e-06
1.1835465e-09
2.0917747e-06
1.4098804e-09
2.0911939e-06
1.6964631e-09
2.0904766e-06
2.0951601e-09
2.0895872e-06
2.5978316e-09
2.0883979e-06
3.4743605e-09
2.0868934e-06
4.3955635e-09
2.0844627e-06
7.1020687e-09
2.081433e-06
8.8526766e-09
2.0742926e-06
2.0865459e-08
2.0715394e-06
8.0309832e-09
1.0539944e-06
2.9990028e-06
2.3196922e-08
3.0261763e-06
1.1194243e-08
2.1244815e-08
8.4803124e-09
4.7920573e-09
7.1647364e-09
2.3228125e-09
6.3544459e-09
1.4306213e-09
5.7766962e-09
1.0200585e-09
5.3352395e-09
7.7942555e-10
4.9813617e-09
6.2480113e-10
4.6889405e-09
5.1629473e-10
4.4415126e-09
4.3685639e-10
4.2281326e-09
3.7674277e-10
4.0413812e-09
3.2972804e-10
3.8759927e-09
2.9201001e-10
3.7280594e-09
2.6119134e-10
3.5946011e-09
2.3563461e-10
3.4733151e-09
2.1414313e-10
3.362385e-09
1.9585881e-10
3.2603454e-09
1.801618e-10
3.1660166e-09
1.6654764e-10
3.0784263e-09
1.5464997e-10
2.9967595e-09
1.4419156e-10
2.9203357e-09
1.3493445e-10
2.8485771e-09
1.2669754e-10
2.7809915e-09
1.1932975e-10
2.717157e-09
1.1270682e-10
2.6567088e-09
1.0672775e-10
2.5993284e-09
1.0131129e-10
2.5447368e-09
9.638745e-11
2.4926886e-09
9.1896739e-11
2.4429674e-09
8.7788169e-11
2.3953823e-09
8.4016629e-11
2.3497631e-09
8.054571e-11
2.3059564e-09
7.7345546e-11
2.2638245e-09
7.438836e-11
2.2232439e-09
7.1649534e-11
2.1841024e-09
6.9108506e-11
2.1462988e-09
6.6746266e-11
2.109742e-09
6.4545056e-11
2.0743484e-09
6.249117e-11
2.0400411e-09
6.0573364e-11
2.0067494e-09
5.8780107e-11
1.9744087e-09
5.7100843e-11
1.9429597e-09
5.5526674e-11
1.9123471e-09
5.4049795e-11
1.8825205e-09
5.26621e-11
1.8534337e-09
5.13559e-11
1.8250433e-09
5.0126322e-11
1.7973082e-09
4.8969215e-11
1.7701905e-09
4.7879245e-11
1.7436548e-09
4.685173e-11
1.7176678e-09
4.5882744e-11
1.6921985e-09
4.4968809e-11
1.6672174e-09
4.4106699e-11
1.6426979e-09
4.3291917e-11
1.6186146e-09
4.2521573e-11
1.5949428e-09
4.1795109e-11
1.5716589e-09
4.1110159e-11
1.5487411e-09
4.0463832e-11
1.5261685e-09
3.9854385e-11
1.5039211e-09
3.9280144e-11
1.4819798e-09
3.8739639e-11
1.4603267e-09
3.8230887e-11
1.438945e-09
3.775169e-11
1.4178182e-09
3.7301592e-11
1.3969299e-09
3.6880452e-11
1.3762646e-09
3.6486835e-11
1.3558073e-09
3.6119597e-11
1.3355434e-09
3.5778019e-11
1.3154588e-09
3.5461506e-11
1.2955396e-09
3.5169517e-11
1.2757727e-09
3.4900477e-11
1.2561455e-09
3.4653883e-11
1.2366447e-09
3.4430695e-11
1.2172573e-09
3.423047e-11
1.1979707e-09
3.405254e-11
1.1787723e-09
3.3896891e-11
1.1596493e-09
3.3763582e-11
1.1405892e-09
3.3652697e-11
1.1215795e-09
3.3563586e-11
1.1026078e-09
3.3496522e-11
1.0836609e-09
3.3452833e-11
1.0647252e-09
3.3432898e-11
1.0457872e-09
3.3437017e-11
1.0268326e-09
3.3466335e-11
1.0078466e-09
3.3521823e-11
9.8881398e-10
3.3604048e-11
9.6971585e-10
3.3719757e-11
9.5053999e-10
3.3856986e-11
9.3127554e-10
3.4013381e-11
9.1270791e-10
3.2783078e-11
8.9521746e-10
3.0881206e-11
8.787e-10
2.9163297e-11
8.6307702e-10
2.7583996e-11
8.4827504e-10
2.6134429e-11
8.3422373e-10
2.4809048e-11
8.2085971e-10
2.3595566e-11
8.0812566e-10
2.2483275e-11
7.9596954e-10
2.1462885e-11
7.8434418e-10
2.0525774e-11
7.7320644e-10
1.9664833e-11
7.6251584e-10
1.8875358e-11
7.5223386e-10
1.8153908e-11
7.4232266e-10
1.7499258e-11
7.3274488e-10
1.6910587e-11
7.2345815e-10
1.6396714e-11
7.1442122e-10
1.5955682e-11
7.0556178e-10
1.5642349e-11
6.9685157e-10
1.5378897e-11
6.8801644e-10
1.559955e-11
6.7948563e-10
1.5062768e-11
6.6976736e-10
1.7154957e-11
1.0114637e-11
2.1860956e-06
1.3125501e-10
2.1860142e-06
3.0810849e-10
2.185913e-06
3.831822e-10
2.1857982e-06
4.3479821e-10
2.1856656e-06
5.0195127e-10
2.1855133e-06
5.7679591e-10
2.1853389e-06
6.604094e-10
2.1851389e-06
7.5733981e-10
2.1849088e-06
8.7144481e-10
2.184643e-06
1.0068311e-09
2.1843344e-06
1.1689042e-09
2.1839738e-06
1.3658881e-09
2.1835493e-06
1.6080177e-09
2.1830438e-06
1.915467e-09
2.1824355e-06
2.3047441e-09
2.1816843e-06
2.8462944e-09
2.1807531e-06
3.5290432e-09
2.1795079e-06
4.7195469e-09
2.1779329e-06
5.9706452e-09
2.1753887e-06
9.6462719e-09
2.1722176e-06
1.2023766e-08
2.1647447e-06
2.8338301e-08
2.1618568e-06
1.091894e-08
1.1071725e-06
4.0536871e-06
3.4319132e-08
4.0990296e-06
1.659848e-08
3.8965467e-08
1.2574706e-08
8.8158312e-09
1.0624028e-08
4.2734908e-09
9.4224699e-09
2.6321792e-09
8.5657501e-09
1.8767783e-09
7.9111348e-09
1.4340409e-09
7.3863907e-09
1.1495452e-09
6.952778e-09
9.4990743e-10
6.5858842e-09
8.0375015e-10
6.2694791e-09
6.9314791e-10
5.9925604e-09
6.066467e-10
5.7473197e-09
5.3725076e-10
5.5279621e-09
4.8054887e-10
5.3300685e-09
4.3352827e-10
5.1502244e-09
3.9398722e-10
4.9857361e-09
3.6034708e-10
4.834431e-09
3.3146696e-10
4.6945595e-09
3.0641906e-10
4.56468e-09
2.8452948e-10
4.4435839e-09
2.652877e-10
4.3302622e-09
2.4825617e-10
4.2238581e-09
2.3310164e-10
4.1236417e-09
2.1954616e-10
4.0289874e-09
2.0736111e-10
3.9393545e-09
1.9636065e-10
3.8542704e-09
1.863953e-10
3.7733216e-09
1.7733629e-10
3.6961442e-09
1.6907416e-10
3.6224172e-09
1.615151e-10
3.5518577e-09
1.5457613e-10
3.4842132e-09
1.4819025e-10
3.4192562e-09
1.4230251e-10
3.3567828e-09
1.368618e-10
3.2966095e-09
1.3182284e-10
3.2385702e-09
1.2714779e-10
3.1825148e-09
1.2280169e-10
3.128308e-09
1.1875185e-10
3.0758261e-09
1.1497306e-10
3.0249548e-09
1.1144464e-10
2.9755896e-09
1.0814536e-10
2.9276346e-09
1.0505581e-10
2.8810017e-09
1.0215962e-10
2.835609e-09
9.9442416e-11
2.7913818e-09
9.6889303e-11
2.7482516e-09
9.4486127e-11
2.706154e-09
9.2223921e-11
2.6650282e-09
9.0095048e-11
2.6248177e-09
8.8089696e-11
2.5854702e-09
8.619925e-11
2.5469365e-09
8.4416486e-11
2.5091703e-09
8.2735006e-11
2.4721281e-09
8.1148875e-11
2.4357702e-09
7.9649821e-11
2.4000592e-09
7.8232528e-11
2.3649584e-09
7.6895962e-11
2.3304328e-09
7.5635776e-11
2.29645e-09
7.4446649e-11
2.262979e-09
7.3325374e-11
2.2299902e-09
7.2268871e-11
2.1974554e-09
7.1274439e-11
2.1653479e-09
7.0338424e-11
2.1336428e-09
6.9456788e-11
2.1023157e-09
6.8628689e-11
2.0713423e-09
6.7853867e-11
2.0406994e-09
6.7129683e-11
2.010365e-09
6.645403e-11
1.9803174e-09
6.5825588e-11
1.9505357e-09
6.524326e-11
1.9209992e-09
6.4706054e-11
1.8916886e-09
6.4211069e-11
1.8625851e-09
6.3757382e-11
1.833669e-09
6.3346758e-11
1.8049211e-09
6.297838e-11
1.7763226e-09
6.2651023e-11
1.7478548e-09
6.2364657e-11
1.719499e-09
6.2119394e-11
1.6912363e-09
6.1915388e-11
1.6630485e-09
6.1751442e-11
1.6349169e-09
6.1628061e-11
1.6068221e-09
6.1547684e-11
1.578744e-09
6.151101e-11
1.5506624e-09
6.1518591e-11
1.5225562e-09
6.1572536e-11
1.4944034e-09
6.167463e-11
1.4661815e-09
6.1825914e-11
1.4378625e-09
6.2038802e-11
1.4094282e-09
6.2291286e-11
1.3808625e-09
6.2579063e-11
1.35333e-09
6.0315537e-11
1.3273949e-09
5.6816389e-11
1.3029025e-09
5.3655705e-11
1.2797364e-09
5.075006e-11
1.2577877e-09
4.8083106e-11
1.2369521e-09
4.5644631e-11
1.2171357e-09
4.3412029e-11
1.1982533e-09
4.1365602e-11
1.180228e-09
3.9488255e-11
1.1629896e-09
3.7764125e-11
1.1464743e-09
3.6180134e-11
1.1306221e-09
3.4727625e-11
1.1153757e-09
3.3400267e-11
1.1006791e-09
3.2195804e-11
1.086477e-09
3.1112728e-11
1.0727065e-09
3.0167256e-11
1.0593064e-09
2.9355788e-11
1.0461695e-09
2.8779231e-11
1.0332539e-09
2.8294457e-11
1.0201533e-09
2.8700123e-11
1.0075042e-09
2.7711922e-11
9.9309192e-10
3.1567223e-11
1.8601557e-11
2.3100809e-06
1.6801435e-10
2.3099946e-06
3.9445717e-10
2.3098871e-06
4.9062862e-10
2.3097652e-06
5.5672749e-10
2.3096244e-06
6.4270562e-10
2.3094627e-06
7.3852777e-10
2.3092776e-06
8.4557103e-10
2.3090652e-06
9.6965684e-10
2.308821e-06
1.1157228e-09
2.3085388e-06
1.2890247e-09
2.3082112e-06
1.4964795e-09
2.3078285e-06
1.7486117e-09
2.307378e-06
2.0585173e-09
2.3068414e-06
2.4520124e-09
2.3061959e-06
2.9502164e-09
2.305399e-06
3.6432773e-09
2.304411e-06
4.5169942e-09
2.3030901e-06
6.040436e-09
2.3014195e-06
7.6412942e-09
2.2987214e-06
1.2344311e-08
2.2953588e-06
1.5386413e-08
2.2874355e-06
3.6261548e-08
2.2843651e-06
1.3989366e-08
1.1778836e-06
5.1601686e-06
4.7436524e-08
5.2294767e-06
2.2995515e-08
6.3406476e-08
1.7421491e-08
1.4389855e-08
1.4719061e-08
6.975921e-09
1.3054302e-08
4.2969383e-09
1.1867332e-08
3.0637486e-09
1.0960375e-08
2.3409973e-09
1.0233359e-08
1.8765611e-09
9.6326044e-09
1.5506622e-09
9.1242882e-09
1.3120664e-09
8.6859238e-09
1.1315123e-09
8.3022673e-09
9.9030317e-10
7.9624997e-09
8.7701837e-10
7.6585924e-09
7.8445622e-10
7.3844223e-09
7.076983e-10
7.1352592e-09
6.4315037e-10
6.9073706e-09
5.8823562e-10
6.6977467e-09
5.4109084e-10
6.5039637e-09
5.002021e-10
6.3240237e-09
4.6446947e-10
6.1562526e-09
4.3305879e-10
5.9992525e-09
4.0525628e-10
5.8518363e-09
3.8051783e-10
5.7129928e-09
3.5838969e-10
5.5818552e-09
3.3849868e-10
5.4576745e-09
3.2054141e-10
5.3397959e-09
3.0427388e-10
5.2276463e-09
2.8948586e-10
5.1207218e-09
2.7599867e-10
5.0185777e-09
2.636592e-10
4.9208219e-09
2.5233196e-10
4.8271046e-09
2.4190759e-10
4.7371107e-09
2.3229639e-10
4.6505575e-09
2.2341494e-10
4.5671911e-09
2.151893e-10
4.4867812e-09
2.0755772e-10
4.4091198e-09
2.0046309e-10
4.3340195e-09
1.9385211e-10
4.261309e-09
1.8768359e-10
4.1908298e-09
1.8192376e-10
4.1224372e-09
1.76538e-10
4.0559984e-09
1.7149459e-10
3.9913912e-09
1.6676682e-10
3.9285024e-09
1.6233125e-10
3.8672282e-09
1.5816352e-10
3.8074737e-09
1.5424057e-10
3.7491499e-09
1.5054773e-10
3.6921724e-09
1.4707254e-10
3.6364631e-09
1.4379899e-10
3.5819494e-09
1.4071301e-10
3.528563e-09
1.3780281e-10
3.4762401e-09
1.3505795e-10
3.4249202e-09
1.3246874e-10
3.3745484e-09
1.3002168e-10
3.3250728e-09
1.2770808e-10
3.2764425e-09
1.2552626e-10
3.2286092e-09
1.2346912e-10
3.1815278e-09
1.2152799e-10
3.1351556e-09
1.1969761e-10
3.0894515e-09
1.1797297e-10
3.0443763e-09
1.1634965e-10
2.999893e-09
1.1482169e-10
2.9559673e-09
1.1338251e-10
2.9125653e-09
1.1203072e-10
2.8696532e-09
1.1076589e-10
2.8271992e-09
1.0958373e-10
2.7851724e-09
1.0848079e-10
2.7435431e-09
1.0745492e-10
2.702282e-09
1.0650433e-10
2.6613607e-09
1.0562739e-10
2.6207524e-09
1.0481938e-10
2.580431e-09
1.0407878e-10
2.5403693e-09
1.0340848e-10
2.5005405e-09
1.0280714e-10
2.4609188e-09
1.0227276e-10
2.4214781e-09
1.018053e-10
2.3821926e-09
1.0140494e-10
2.343036e-09
1.0107192e-10
2.3039832e-09
1.008043e-10
2.2650083e-09
1.006029e-10
2.2260843e-09
1.004717e-10
2.1871835e-09
1.0041184e-10
2.1482778e-09
1.0042423e-10
2.1093381e-09
1.005123e-10
2.0703337e-09
1.0067897e-10
2.0312337e-09
1.0092594e-10
1.991999e-09
1.0127347e-10
1.9526047e-09
1.0168564e-10
1.9130283e-09
1.0215548e-10
1.8748833e-09
9.8460503e-11
1.8389513e-09
9.2748398e-11
1.8050182e-09
8.7588814e-11
1.7729227e-09
8.2845594e-11
1.7425137e-09
7.8492026e-11
1.7136469e-09
7.4511426e-11
1.6861921e-09
7.0866894e-11
1.6600314e-09
6.7526274e-11
1.635058e-09
6.4461659e-11
1.611175e-09
6.1647157e-11
1.5882937e-09
5.9061416e-11
1.566331e-09
5.6690303e-11
1.5452078e-09
5.4523484e-11
1.5248463e-09
5.2557274e-11
1.5051698e-09
5.0789207e-11
1.4860913e-09
4.924575e-11
1.4675261e-09
4.7921028e-11
1.4493256e-09
4.697971e-11
1.4314318e-09
4.6188267e-11
1.413282e-09
4.6849916e-11
1.3957577e-09
4.5236269e-11
1.3757888e-09
5.1536146e-11
3.0358012e-11
2.4684917e-06
2.0748979e-10
2.4683989e-06
4.8722408e-10
2.4682835e-06
6.0609849e-10
2.4681524e-06
6.8776782e-10
2.4680011e-06
7.9397362e-10
2.4678273e-06
9.1233391e-10
2.4676284e-06
1.0445465e-09
2.4674002e-06
1.1978002e-09
2.4671378e-06
1.378192e-09
2.4668346e-06
1.5922107e-09
2.4664827e-06
1.8483957e-09
2.4660715e-06
2.1597392e-09
2.4655876e-06
2.5424072e-09
2.4650114e-06
3.02827e-09
2.4643182e-06
3.6433909e-09
2.4634624e-06
4.4990601e-09
2.4624017e-06
5.5777044e-09
2.4609838e-06
7.4583887e-09
2.4591906e-06
9.4344623e-09
2.4562954e-06
1.5239527e-08
2.4526872e-06
1.8994573e-08
2.4441868e-06
4.4761948e-08
2.440882e-06
1.7294153e-08
1.2675811e-06
6.3334695e-06
6.3316576e-08
6.4337413e-06
3.0767978e-08
9.5955074e-08
2.3310655e-08
2.1847178e-08
1.9694867e-08
1.0591709e-08
1.7467247e-08
6.5245584e-09
1.587898e-08
4.6520147e-09
1.4665398e-08
3.5545796e-09
1.3692601e-08
2.8493589e-09
1.2888751e-08
2.3545117e-09
1.2208593e-08
1.9922245e-09
1.1622037e-08
1.7180678e-09
1.1108686e-08
1.5036547e-09
1.0654061e-08
1.3316435e-09
1.0247419e-08
1.1910979e-09
9.8805676e-09
1.0745497e-09
9.5471769e-09
9.765411e-10
9.2422525e-09
8.9316e-10
8.9617674e-09
8.2157602e-10
8.702478e-09
7.5949142e-10
8.461711e-09
7.0523648e-10
8.2372266e-09
6.5754318e-10
8.0271543e-09
6.1532866e-10
7.8299056e-09
5.7776653e-10
7.6441274e-09
5.4416785e-10
7.4686601e-09
5.1396598e-10
7.3025012e-09
4.8670026e-10
7.1447749e-09
4.6200018e-10
6.9947143e-09
4.3954654e-10
6.8516449e-09
4.1906805e-10
6.7149719e-09
4.0033221e-10
6.5841705e-09
3.8313332e-10
6.4587728e-09
3.6730533e-10
6.3383571e-09
3.5271202e-10
6.2225454e-09
3.3922673e-10
6.1109975e-09
3.267372e-10
6.0034055e-09
3.1514967e-10
5.8994912e-09
3.0437744e-10
5.7990037e-09
2.9433956e-10
5.7017138e-09
2.8497351e-10
5.6074096e-09
2.7622799e-10
5.5158971e-09
2.6805043e-10
5.426999e-09
2.603927e-10
5.3405516e-09
2.5321422e-10
5.2564035e-09
2.464794e-10
5.1744157e-09
2.4015128e-10
5.0944615e-09
2.341948e-10
5.0164215e-09
2.2858773e-10
4.9401829e-09
2.2331113e-10
4.8656412e-09
2.1834068e-10
4.7926992e-09
2.1365505e-10
4.7212657e-09
2.0923631e-10
4.651255e-09
2.0506861e-10
4.5825865e-09
2.0113724e-10
4.5151865e-09
1.9742171e-10
4.4489857e-09
1.9390883e-10
4.383916e-09
1.9059604e-10
4.3199125e-09
1.8747255e-10
4.2569153e-09
1.845252e-10
4.1948669e-09
1.8174602e-10
4.1337125e-09
1.7912739e-10
4.0733995e-09
1.766626e-10
4.0138786e-09
1.7434261e-10
3.9551037e-09
1.7215741e-10
3.8970295e-09
1.701049e-10
3.839611e-09
1.6818444e-10
3.7828052e-09
1.6638949e-10
3.7265712e-09
1.6471484e-10
3.6708689e-09
1.6315719e-10
3.6156594e-09
1.6171385e-10
3.5609044e-09
1.6038234e-10
3.5065683e-09
1.5915549e-10
3.4526161e-09
1.5803101e-10
3.3990113e-09
1.5701325e-10
3.3457183e-09
1.5610021e-10
3.2927022e-09
1.5528884e-10
3.2399284e-09
1.5457907e-10
3.1873622e-09
1.5397118e-10
3.1349685e-09
1.5346555e-10
3.0827136e-09
1.5305922e-10
3.0305631e-09
1.5275344e-10
2.9784805e-09
1.5255424e-10
2.926429e-09
1.5246337e-10
2.8743711e-09
1.5248219e-10
2.8222674e-09
1.5261593e-10
2.7700774e-09
1.5286902e-10
2.7177593e-09
1.5324404e-10
2.665261e-09
1.5377173e-10
2.612549e-09
1.5439761e-10
2.5595934e-09
1.551111e-10
2.5085531e-09
1.4950081e-10
2.4604739e-09
1.4082763e-10
2.4150693e-09
1.329934e-10
2.3721235e-09
1.2579142e-10
2.3314344e-09
1.1918109e-10
2.2928088e-09
1.1313706e-10
2.2560724e-09
1.076033e-10
2.2210677e-09
1.0253099e-10
2.1876516e-09
9.7877753e-11
2.1556944e-09
9.3604277e-11
2.1250777e-09
8.967814e-11
2.0956901e-09
8.6077882e-11
2.0674258e-09
8.278781e-11
2.0401808e-09
7.9802325e-11
2.0138523e-09
7.7117682e-11
1.988324e-09
7.4774053e-11
1.9634825e-09
7.2762521e-11
1.9391292e-09
7.1333025e-11
1.9151862e-09
7.0131195e-11
1.8909013e-09
7.1134844e-11
1.8674532e-09
6.8684417e-11
1.8407323e-09
7.8256968e-11
4.6087773e-11
2.6636885e-06
2.5033629e-10
2.6635878e-06
5.8796215e-10
2.6634624e-06
7.3153827e-10
2.66332e-06
8.3013042e-10
2.6631557e-06
9.5830636e-10
2.6629669e-06
1.1011433e-09
2.6627507e-06
1.2606856e-09
2.6625029e-06
1.4456057e-09
2.6622178e-06
1.663259e-09
2.6618886e-06
1.9214717e-09
2.6615064e-06
2.230542e-09
2.66106e-06
2.6061388e-09
2.6605347e-06
3.0677556e-09
2.6599091e-06
3.6538277e-09
2.6591567e-06
4.3957752e-09
2.658228e-06
5.4278147e-09
2.657077e-06
6.728693e-09
2.6555386e-06
8.9967472e-09
2.6535935e-06
1.1379582e-08
2.6504539e-06
1.8379195e-08
2.6465413e-06
2.2907083e-08
2.6373257e-06
5.3977594e-08
2.6337292e-06
2.0890607e-08
1.3780796e-06
7.5891191e-06
8.2883924e-08
7.7289369e-06
4.0380748e-08
1.3845825e-07
3.0594551e-08
3.1633375e-08
2.5849184e-08
1.5337076e-08
2.2925349e-08
9.4483934e-09
2.0840723e-08
6.7366408e-09
1.9247878e-08
5.1474243e-09
1.797108e-08
4.1261574e-09
1.6916029e-08
3.4095625e-09
1.6023326e-08
2.8849272e-09
1.525348e-08
2.487914e-09
1.4579716e-08
2.1774193e-09
1.398303e-08
1.9283293e-09
1.3449322e-08
1.7248057e-09
1.2967839e-08
1.5560328e-09
1.2530272e-08
1.4141076e-09
1.2130067e-08
1.2933651e-09
1.1761938e-08
1.1897049e-09
1.1421629e-08
1.0998011e-09
1.1105629e-08
1.0212364e-09
1.0810999e-08
9.5217256e-10
1.0535285e-08
8.9104271e-10
1.0276402e-08
8.3664989e-10
1.0032573e-08
7.8799647e-10
9.8022774e-09
7.4426193e-10
9.5841984e-09
7.0477918e-10
9.377187e-09
6.6901166e-10
9.1802363e-09
6.3649716e-10
8.9924616e-09
6.0684282e-10
8.8130818e-09
5.7971195e-10
8.6414084e-09
5.5480673e-10
8.4768271e-09
5.3188668e-10
8.3187846e-09
5.1075452e-10
8.1667844e-09
4.9122685e-10
8.0203805e-09
4.7314113e-10
7.8791686e-09
4.5636155e-10
7.7427835e-09
4.407626e-10
7.610896e-09
4.2622704e-10
7.4832052e-09
4.1266434e-10
7.3594329e-09
4.000002e-10
7.2393248e-09
3.8815852e-10
7.122648e-09
3.7706958e-10
7.0091875e-09
3.6667464e-10
6.8987448e-09
3.5692213e-10
6.7911375e-09
3.4775856e-10
6.6861991e-09
3.3913317e-10
6.5837731e-09
3.3101375e-10
6.4837114e-09
3.2337285e-10
6.3858768e-09
3.161753e-10
6.2901417e-09
3.0939016e-10
6.1963865e-09
3.0299151e-10
6.1044987e-09
2.9695639e-10
6.0143724e-09
2.9126349e-10
5.925911e-09
2.8588314e-10
5.8390236e-09
2.8079626e-10
5.7536205e-09
2.759991e-10
5.669617e-09
2.7147608e-10
5.5869341e-09
2.672081e-10
5.5054964e-09
2.6318366e-10
5.4252321e-09
2.593917e-10
5.3460722e-09
2.5582252e-10
5.2679518e-09
2.5246301e-10
5.1908105e-09
2.4929869e-10
5.1145889e-09
2.4632652e-10
5.0392278e-09
2.4354557e-10
4.9646709e-09
2.4094636e-10
4.8908644e-09
2.3852134e-10
4.8177558e-09
2.3626578e-10
4.745294e-09
2.3417572e-10
4.6734287e-09
2.3224761e-10
4.6021131e-09
2.3047106e-10
4.5313014e-09
2.2884274e-10
4.4609457e-09
2.2736897e-10
4.3909991e-09
2.2604683e-10
4.321416e-09
2.2487193e-10
4.2521509e-09
2.2384415e-10
4.1831582e-09
2.229639e-10
4.114392e-09
2.2223173e-10
4.0458079e-09
2.2164336e-10
3.9773607e-09
2.2120059e-10
3.9090028e-09
2.2091217e-10
3.8406855e-09
2.2078061e-10
3.7723598e-09
2.208079e-10
3.7039742e-09
2.210016e-10
3.6354751e-09
2.2136812e-10
3.5668079e-09
2.2191122e-10
3.4979042e-09
2.226754e-10
3.42872e-09
2.2358178e-10
3.359216e-09
2.2461517e-10
3.2922257e-09
2.1649109e-10
3.2291218e-09
2.0393152e-10
3.1695284e-09
1.9258682e-10
3.113162e-09
1.8215778e-10
3.0597576e-09
1.725855e-10
3.0090614e-09
1.6383326e-10
2.9608448e-09
1.5581994e-10
2.9149009e-09
1.4847482e-10
2.8710421e-09
1.4173655e-10
2.8290982e-09
1.3554819e-10
2.7889136e-09
1.298628e-10
2.7503421e-09
1.246493e-10
2.713245e-09
1.1988496e-10
2.6774857e-09
1.1556167e-10
2.6429293e-09
1.11674e-10
2.6094233e-09
1.082801e-10
2.5768187e-09
1.0536707e-10
2.5448551e-09
1.0329669e-10
2.5134301e-09
1.0155618e-10
2.481557e-09
1.0300794e-10
2.4507819e-09
9.9459495e-11
2.4157098e-09
1.1332907e-10
6.6732596e-11
2.8985803e-06
2.972802e-10
2.8984699e-06
6.9839755e-10
2.8983323e-06
8.6911546e-10
2.8981762e-06
9.8627828e-10
2.8979959e-06
1.138545e-09
2.8977889e-06
1.3082172e-09
2.8975518e-06
1.4977172e-09
2.8972801e-06
1.7173423e-09
2.8969675e-06
1.9758263e-09
2.8966065e-06
2.2824595e-09
2.8961876e-06
2.6494651e-09
2.8956983e-06
3.095441e-09
2.8951225e-06
3.6435219e-09
2.894437e-06
4.3393277e-09
2.8936127e-06
5.2201348e-09
2.8925952e-06
6.4452517e-09
2.8913346e-06
7.9893689e-09
2.88965e-06
1.068135e-08
2.8875203e-06
1.3509211e-08
2.884084e-06
2.1815537e-08
2.8798022e-06
2.7188915e-08
2.8697189e-06
6.4060817e-08
2.8657666e-06
2.4842936e-08
1.511608e-06
8.9432778e-06
1.0727254e-07
9.1332724e-06
5.240874e-08
1.9332205e-07
3.9708987e-08
4.4333129e-08
3.355028e-08
2.1495782e-08
2.9755195e-08
1.3243478e-08
2.7049435e-08
9.4424012e-09
2.4981989e-08
7.2148695e-09
2.3324777e-08
5.7833698e-09
2.1955385e-08
4.7789548e-09
2.0796715e-08
4.0435967e-09
1.9797511e-08
3.4871185e-09
1.8923016e-08
3.0519135e-09
1.8148566e-08
2.7027793e-09
1.7455858e-08
2.4175142e-09
1.6830933e-08
2.1809573e-09
1.626301e-08
1.9820312e-09
1.5743578e-08
1.8127969e-09
1.5265779e-08
1.6675039e-09
1.4824087e-08
1.5414931e-09
1.4413947e-08
1.4313768e-09
1.4031543e-08
1.3345757e-09
1.3673691e-08
1.2488954e-09
1.3337683e-08
1.1726579e-09
1.3021214e-08
1.1044648e-09
1.272231e-08
1.0431661e-09
1.2439263e-08
9.8782677e-10
1.217058e-08
9.3769475e-10
1.1914955e-08
8.9212219e-10
1.1671239e-08
8.5055846e-10
1.1438419e-08
8.1253165e-10
1.1215602e-08
7.7762434e-10
1.1001989e-08
7.4549949e-10
1.0796863e-08
7.1588053e-10
1.0599579e-08
6.8851043e-10
1.0409559e-08
6.6316138e-10
1.0226278e-08
6.3964302e-10
1.0049261e-08
6.1777943e-10
9.8780814e-09
5.9740632e-10
9.712349e-09
5.7839678e-10
9.5517025e-09
5.6064666e-10
9.3958117e-09
5.4404929e-10
9.2443744e-09
5.2850698e-10
9.0971116e-09
5.1393737e-10
8.9537656e-09
5.002682e-10
8.8140996e-09
4.8742449e-10
8.6778977e-09
4.7533511e-10
8.5449566e-09
4.6395488e-10
8.415084e-09
4.5324536e-10
8.2881021e-09
4.4315723e-10
8.1638451e-09
4.3364716e-10
8.0421579e-09
4.2467878e-10
7.9228943e-09
4.1621992e-10
7.8059171e-09
4.0824071e-10
7.6911006e-09
4.0069959e-10
7.5783271e-09
3.9356981e-10
7.4674801e-09
3.868461e-10
7.3584496e-09
3.805066e-10
7.2511331e-09
3.7452459e-10
7.1454328e-09
3.6888392e-10
7.0412554e-09
3.6356909e-10
6.9385115e-09
3.585665e-10
6.8371167e-09
3.5385781e-10
6.7369927e-09
3.494227e-10
6.6380623e-09
3.4525691e-10
6.5402487e-09
3.4135911e-10
6.443479e-09
3.3771606e-10
6.3476832e-09
3.3431716e-10
6.2527932e-09
3.3115576e-10
6.1587426e-09
3.2822634e-10
6.0654663e-09
3.255239e-10
5.9729035e-09
3.230339e-10
5.8809945e-09
3.2075167e-10
5.7896775e-09
3.1868604e-10
5.6988914e-09
3.1683294e-10
5.6085771e-09