/*--------------------------------*- C++ -*----------------------------------*\
| =========                 |                                                 |
| \\      /  F ield         | OpenFOAM: The Open Source CFD Toolbox           |
|  \\    /   O peration     | Version:  2206                                  |
|   \\  /    A nd           | Website:  www.openfoam.com                      |
|    \\/     M anipulation  |                                                 |
\*---------------------------------------------------------------------------*/
FoamFile
{
    version     2.0;
    format      ascii;
    arch        "LSB;label=32;scalar=64";
    class       volVectorField;
    location    "1600";
    object      U;
}
// * * * * * * * * * * * * * * * * * * * * * * * * * * * * * * * * * * * * * //

dimensions      [0 1 -1 0 0 0 0];

internalField   nonuniform List<vector> 
13056
(
(1 3.9274112e-10 4.2432771e-25)
(0.99997045 1.0460341e-09 0)
(0.99992712 1.4758831e-09 0)
(0.99987905 1.8999014e-09 0)
(0.99982355 2.4875946e-09 0)
(0.99975947 3.2405933e-09 0)
(0.99968609 4.2039269e-09 0)
(0.99960207 5.4582858e-09 0)
(0.99950558 7.1043032e-09 0)
(0.99939436 9.2732417e-09 0)
(0.99926559 1.2144489e-08 0)
(0.99911571 1.597683e-08 0)
(0.99893996 2.1123394e-08 0)
(0.99873231 2.8169954e-08 0)
(0.99848326 3.7798105e-08 0)
(0.9981826 5.1802203e-08 0)
(0.99780463 7.0850166e-08 0)
(0.99734008 1.0376255e-07 0)
(0.99668032 1.4249935e-07 0)
(0.99591058 2.4738392e-07 0)
(0.99438741 3.2737191e-07 0)
(0.99301637 8.0833277e-07 0)
(0.98765086 3.210328e-07 -4.7597156e-21)
(0.99030225 0.00012326012 7.768727e-18)
(0.0031493796 0.00012376759 0)
(0.001228749 6.5022449e-08 -1.0322046e-20)
(0.00087601379 4.639266e-08 3.42556e-18)
(0.00071881778 5.3221273e-09 0)
(0.00062874313 3.2502839e-09 0)
(0.00056649984 2.2963013e-09 0)
(0.00052011739 1.7384796e-09 0)
(0.00048348985 1.3803299e-09 0)
(0.00045356957 1.1294642e-09 0)
(0.00042849611 9.4609107e-10 0)
(0.00040703497 8.0750509e-10 0)
(0.00038836329 6.9925887e-10 0)
(0.00037190932 6.1254457e-10 0)
(0.00035725493 5.4180308e-10 0)
(0.00034408353 4.8322483e-10 0)
(0.00033215133 4.3402779e-10 0)
(0.0003212692 3.9222425e-10 0)
(0.00031128469 3.56375e-10 1.7091981e-25)
(0.00030207464 3.2531808e-10 0)
(0.0002935404 2.9820472e-10 0)
(0.00028559781 2.743907e-10 0)
(0.0002781777 2.5332906e-10 0)
(0.00027122127 2.3460038e-10 0)
(0.00026467865 2.1785711e-10 0)
(0.00025850714 2.0281389e-10 0)
(0.00025267009 1.8923844e-10 0)
(0.00024713556 1.769427e-10 0)
(0.00024187556 1.6576544e-10 0)
(0.0002368656 1.5557006e-10 0)
(0.00023208403 1.4623987e-10 0)
(0.00022751178 1.3767266e-10 0)
(0.00022313202 1.2978486e-10 0)
(0.00021892956 1.2250677e-10 0)
(0.00021489075 1.1577483e-10 0)
(0.00021100334 1.0953307e-10 0)
(0.00020725632 1.0373412e-10 0)
(0.00020363963 9.833493e-11 0)
(0.00020014428 9.3296132e-11 0)
(0.00019676211 8.8586011e-11 0)
(0.00019348558 8.4177637e-11 0)
(0.00019030774 8.0044766e-11 0)
(0.00018722226 7.6163683e-11 0)
(0.00018422332 7.2513917e-11 0)
(0.00018130555 6.9077325e-11 0)
(0.00017846396 6.5836176e-11 0)
(0.00017569403 6.2774081e-11 0)
(0.00017299159 5.9878894e-11 0)
(0.00017035266 5.7139779e-11 0)
(0.0001677735 5.4544959e-11 0)
(0.00016525069 5.2083971e-11 0)
(0.00016278099 4.9747672e-11 0)
(0.00016036141 4.7527797e-11 0)
(0.00015798908 4.5416735e-11 0)
(0.00015566133 4.3405906e-11 0)
(0.0001533758 4.1488814e-11 0)
(0.00015113012 3.9661516e-11 0)
(0.00014892197 3.7918406e-11 0)
(0.00014674925 3.6253695e-11 0)
(0.00014460995 3.466291e-11 0)
(0.00014250214 3.3141825e-11 0)
(0.000140424 3.1686574e-11 0)
(0.00013837376 3.0293046e-11 0)
(0.0001363498 2.8957179e-11 0)
(0.0001343506 2.7676466e-11 0)
(0.00013237457 2.644868e-11 0)
(0.00013042021 2.5270724e-11 0)
(0.00012848609 2.4139869e-11 0)
(0.00012657082 2.3053798e-11 0)
(0.00012467306 2.2010359e-11 0)
(0.00012279148 2.1007526e-11 0)
(0.00012092479 2.0042745e-11 0)
(0.00011907183 1.9114237e-11 0)
(0.00011723137 1.8221081e-11 0)
(0.00011540214 1.7361574e-11 0)
(0.00011358296 1.6533989e-11 0)
(0.00011177263 1.5736992e-11 0)
(0.00010996997 1.4969324e-11 0)
(0.00010817377 1.4229774e-11 0)
(0.00010638285 1.3516861e-11 0)
(0.00010459606 1.2829559e-11 0)
(0.0001028122 1.2167256e-11 0)
(0.00010102997 1.1528947e-11 0)
(9.9248114e-05 1.0913632e-11 0)
(9.7465327e-05 1.0320605e-11 0)
(9.5680214e-05 9.7490876e-12 0)
(9.3891365e-05 9.1981789e-12 0)
(9.2097327e-05 8.6686078e-12 0)
(9.0295943e-05 8.156229e-12 0)
(8.8487127e-05 7.6598242e-12 0)
(8.6709647e-05 7.1958922e-12 0)
(8.5016566e-05 6.778511e-12 0)
(8.3418965e-05 6.4014973e-12 0)
(8.190894e-05 6.0548763e-12 0)
(8.0479628e-05 5.7367273e-12 0)
(7.912407e-05 5.4458373e-12 0)
(7.7835991e-05 5.179507e-12 0)
(7.6609741e-05 4.9353874e-12 0)
(7.5440187e-05 4.7114393e-12 0)
(7.4322669e-05 4.5057708e-12 0)
(7.3252973e-05 4.3168218e-12 0)
(7.2227196e-05 4.1435613e-12 0)
(7.1241624e-05 3.9852357e-12 0)
(7.0292723e-05 3.8415772e-12 0)
(6.9376909e-05 3.7124098e-12 0)
(6.8490734e-05 3.5996665e-12 0)
(6.7629673e-05 3.5029416e-12 0)
(6.6790489e-05 3.4342264e-12 0)
(6.5962802e-05 3.3766383e-12 0)
(6.5151691e-05 3.4249112e-12 0)
(6.4300426e-05 1.384669e-11 0)
(6.3546758e-05 3.7372254e-12 2.5966975e-24)
(6.2471118e-05 9.3403157e-12 0)
(1 1.1854458e-09 0)
(0.99997038 3.1577317e-09 0)
(0.99992695 4.4556527e-09 0)
(0.99987876 5.7358081e-09 0)
(0.99982311 7.5100101e-09 0)
(0.99975888 9.7832219e-09 0)
(0.99968531 1.269135e-08 0)
(0.99960108 1.647795e-08 0)
(0.99950436 2.144677e-08 0)
(0.99939287 2.7993996e-08 0)
(0.99926379 3.6661053e-08 0)
(0.99911356 4.8228985e-08 0)
(0.9989374 6.3763544e-08 0)
(0.99872928 8.5032601e-08 0)
(0.99847966 1.1409306e-07 0)
(0.99817835 1.5636016e-07 0)
(0.99779957 2.1384879e-07 0)
(0.99733405 3.1317829e-07 0)
(0.99667296 4.3008121e-07 0)
(0.9959017 7.4659566e-07 0)
(0.99437571 9.8798429e-07 0)
(0.99300211 2.4394176e-06 0)
(0.98762699 9.6765908e-07 1.701671e-20)
(0.99027937 0.0003704662 -6.5674862e-21)
(0.0094591477 0.00037248339 0)
(0.0037044094 1.2091654e-06 0)
(0.0026410891 2.6493335e-07 2.1659456e-22)
(0.0021672137 1.267667e-07 0)
(0.0018956255 7.7384578e-08 0)
(0.0017079608 5.467959e-08 0)
(0.0015681146 4.1393557e-08 0)
(0.0014576826 3.2866059e-08 0)
(0.0013674728 2.6892611e-08 0)
(0.0012918767 2.2526334e-08 0)
(0.001227172 1.9226364e-08 0)
(0.0011708778 1.6649091e-08 0)
(0.00112127 1.4584634e-08 0)
(0.0010770879 1.290029e-08 0)
(0.0010373771 1.1505387e-08 0)
(0.0010014024 1.0333916e-08 0)
(0.0009685936 9.3385201e-09 0)
(0.0009384911 8.4849003e-09 -2.5227172e-25)
(0.00091072362 7.7454061e-09 -3.1461199e-25)
(0.00088499362 7.0998285e-09 0)
(0.00086104738 6.5328142e-09 0)
(0.0008386764 6.0313347e-09 0)
(0.0008177034 5.5854082e-09 0)
(0.000797978 5.1867557e-09 0)
(0.00077937145 4.8285846e-09 0)
(0.00076177329 4.505363e-09 0)
(0.00074508718 4.2126103e-09 0)
(0.00072922877 3.9464896e-09 0)
(0.00071412419 3.7037474e-09 0)
(0.00069970819 3.4816052e-09 0)
(0.0006859233 3.277631e-09 0)
(0.00067271873 3.0898333e-09 0)
(0.0006600487 2.9165519e-09 0)
(0.00064787204 2.7562741e-09 0)
(0.00063615188 2.6076676e-09 0)
(0.00062485494 2.4696039e-09 0)
(0.00061395098 2.3410582e-09 0)
(0.00060341281 2.221094e-09 0)
(0.00059321589 2.1089552e-09 0)
(0.00058333745 2.0040002e-09 0)
(0.00057375654 1.9056048e-09 0)
(0.0005644541 1.8132043e-09 0)
(0.00055541258 1.7263112e-09 0)
(0.00054661576 1.6444934e-09 0)
(0.00053804862 1.567329e-09 0)
(0.00052969754 1.4944281e-09 0)
(0.00052154995 1.4255009e-09 0)
(0.00051359381 1.3602893e-09 0)
(0.00050581788 1.2985132e-09 0)
(0.00049821182 1.2399236e-09 0)
(0.00049076592 1.1843025e-09 0)
(0.00048347109 1.1314534e-09 0)
(0.00047631872 1.0811947e-09 0)
(0.00046930078 1.0333228e-09 0)
(0.00046241011 9.8768283e-10 0)
(0.00045563957 9.4418019e-10 0)
(0.0004489822 9.0268203e-10 0)
(0.00044243165 8.6305048e-10 0)
(0.00043598184 8.2517891e-10 0)
(0.00042962699 7.889668e-10 0)
(0.00042336158 7.5432205e-10 0)
(0.00041718029 7.2114677e-10 0)
(0.00041107824 6.8934449e-10 0)
(0.00040505081 6.5885522e-10 0)
(0.00039909326 6.2962591e-10 0)
(0.00039320103 6.0158299e-10 0)
(0.00038736983 5.7466145e-10 0)
(0.00038159547 5.4880609e-10 0)
(0.00037587389 5.2396573e-10 0)
(0.00037020108 5.0009203e-10 0)
(0.00036457318 4.7712432e-10 0)
(0.00035898667 4.5502024e-10 0)
(0.00035343784 4.3375767e-10 0)
(0.00034792287 4.1329622e-10 0)
(0.00034243819 3.9359473e-10 0)
(0.0003369802 3.7462148e-10 0)
(0.00033154533 3.5634647e-10 0)
(0.00032612995 3.3874078e-10 0)
(0.00032073048 3.2176928e-10 0)
(0.00031534348 3.0540756e-10 0)
(0.00030996527 2.8964088e-10 0)
(0.000304592 2.7444544e-10 0)
(0.00029921987 2.597974e-10 0)
(0.00029384492 2.4567995e-10 0)
(0.00028846296 2.3207448e-10 0)
(0.00028306973 2.1895966e-10 0)
(0.00027766086 2.0635273e-10 0)
(0.00027222984 1.9415481e-10 0)
(0.00026677641 1.8233845e-10 0)
(0.00026141746 1.7129479e-10 0)
(0.00025631295 1.6135745e-10 0)
(0.00025149632 1.5238133e-10 0)
(0.00024694372 1.4412929e-10 0)
(0.00024263447 1.3655514e-10 0)
(0.00023854758 1.2962988e-10 0)
(0.00023466412 1.232893e-10 0)
(0.00023096708 1.1747747e-10 0)
(0.00022744098 1.1214584e-10 0)
(0.00022407175 1.0724936e-10 0)
(0.00022084671 1.0275089e-10 0)
(0.00021775408 9.8625848e-11 0)
(0.00021478267 9.4856264e-11 0)
(0.00021192182 9.1435743e-11 0)
(0.00020916072 8.8360014e-11 0)
(0.00020648899 8.5675161e-11 0)
(0.00020389298 8.3370993e-11 0)
(0.00020136293 8.1734216e-11 0)
(0.00019886757 8.0358192e-11 0)
(0.00019642218 8.1512358e-11 0)
(0.00019385583 7.9050077e-11 0)
(0.00019158357 8.9585693e-11 -4.0164534e-24)
(0.00018834059 5.3158035e-11 2.6098841e-25)
(1 1.9978463e-09 0)
(0.9999703 5.3221782e-09 0)
(0.99992673 7.5103043e-09 0)
(0.99987838 9.6681939e-09 0)
(0.99982255 1.2658682e-08 0)
(0.99975811 1.6490208e-08 0)
(0.99968431 2.1391788e-08 0)
(0.99959982 2.7773868e-08 0)
(0.99950279 3.6148329e-08 0)
(0.99939096 4.7182802e-08 0)
(0.99926148 6.1789647e-08 0)
(0.9991108 8.1284974e-08 0)
(0.99893412 1.0746459e-07 0)
(0.9987254 1.4330734e-07 0)
(0.99847507 1.9227885e-07 0)
(0.99817291 2.6350357e-07 0)
(0.99779311 3.6037494e-07 0)
(0.99732635 5.2774454e-07 0)
(0.99666356 7.2471706e-07 0)
(0.99589039 1.2579943e-06 0)
(0.9943608 1.6647059e-06 0)
(0.99298396 4.1101614e-06 0)
(0.98759668 1.6319902e-06 -9.0156834e-21)
(0.99025031 0.00062141589 5.3787288e-55)
(0.015872576 0.00062601412 -5.3778981e-55)
(0.0062351117 3.431706e-06 0)
(0.004445513 7.709476e-07 -1.1241444e-22)
(0.0036479536 3.7120562e-07 0)
(0.0031907828 2.2661445e-07 0)
(0.002874892 1.6012397e-07 0)
(0.0026394907 1.2121647e-07 0)
(0.0024536047 9.6243823e-08 0)
(0.0023017582 7.8751274e-08 0)
(0.0021745107 6.5964915e-08 0)
(0.0020655968 5.6301199e-08 0)
(0.0019708401 4.8753909e-08 0)
(0.0018873385 4.2708405e-08 0)
(0.0018129699 3.7776043e-08 0)
(0.0017461274 3.3691285e-08 0)
(0.0016855739 3.0260826e-08 0)
(0.0016303493 2.7345993e-08 0)
(0.00157968 2.4846308e-08 0)
(0.0015329412 2.2680831e-08 0)
(0.0014896318 2.0790394e-08 0)
(0.001449325 1.9129998e-08 0)
(0.0014116697 1.7661513e-08 0)
(0.0013763675 1.6355706e-08 0)
(0.0013431653 1.5188332e-08 0)
(0.0013118464 1.4139501e-08 0)
(0.0012822248 1.3193013e-08 0)
(0.0012541384 1.2335746e-08 0)
(0.0012274452 1.1556467e-08 0)
(0.0012020208 1.0845647e-08 0)
(0.0011777555 1.0195149e-08 0)
(0.0011545525 9.5978537e-09 0)
(0.0011323263 9.0479276e-09 0)
(0.0011109999 8.5405095e-09 0)
(0.0010905039 8.0711694e-09 0)
(0.0010707762 7.6360066e-09 0)
(0.001051761 7.2317164e-09 0)
(0.0010334072 6.8552971e-09 0)
(0.0010156691 6.5040074e-09 0)
(0.00099850547 6.1756329e-09 0)
(0.00098187786 5.8682944e-09 0)
(0.00096575107 5.5801644e-09 0)
(0.00095009299 5.309589e-09 0)
(0.00093487411 5.055141e-09 0)
(0.00092006712 4.8155548e-09 0)
(0.00090564671 4.589595e-09 0)
(0.00089158998 4.3761205e-09 0)
(0.00087787578 4.1742819e-09 0)
(0.00086448382 3.9833233e-09 0)
(0.00085139519 3.8024252e-09 0)
(0.0008385925 3.6308578e-09 0)
(0.00082605938 3.4679832e-09 0)
(0.00081378056 3.3132257e-09 0)
(0.00080174152 3.1660538e-09 0)
(0.00078992876 3.025871e-09 0)
(0.00077833021 2.8922241e-09 0)
(0.00076693389 2.7648357e-09 0)
(0.00075572804 2.6433171e-09 0)
(0.00074470198 2.5272644e-09 0)
(0.00073384551 2.4163655e-09 0)
(0.00072314888 2.3103259e-09 0)
(0.00071260279 2.208876e-09 0)
(0.00070219829 2.1117292e-09 0)
(0.00069192716 2.0186029e-09 0)
(0.00068178164 1.9293215e-09 0)
(0.00067175375 1.8437295e-09 0)
(0.00066183579 1.7616117e-09 0)
(0.00065202056 1.6827776e-09 0)
(0.000642301 1.6070655e-09 0)
(0.0006326703 1.5343257e-09 0)
(0.00062312168 1.4644165e-09 0)
(0.00061364865 1.3971604e-09 0)
(0.00060424529 1.3324332e-09 0)
(0.00059490535 1.2701702e-09 0)
(0.00058562241 1.2102531e-09 0)
(0.00057639046 1.1525614e-09 0)
(0.00056720343 1.0970021e-09 0)
(0.00055805531 1.0434875e-09 0)
(0.00054894 9.919329e-10 0)
(0.00053985145 9.4223538e-10 0)
(0.00053078391 8.9432347e-10 0)
(0.00052173117 8.4815399e-10 0)
(0.00051268674 8.0365727e-10 0)
(0.00050364422 7.6076352e-10 0)
(0.00049459695 7.1942345e-10 0)
(0.00048553788 6.7958263e-10 0)
(0.00047645986 6.4117859e-10 0)
(0.00046735549 6.0426174e-10 0)
(0.00045821386 5.6854261e-10 0)
(0.00044903449 5.3394121e-10 0)
(0.00044001414 5.0160237e-10 0)
(0.00043142208 4.7250263e-10 0)
(0.00042331459 4.4621765e-10 0)
(0.00041565153 4.2205323e-10 0)
(0.00040839806 3.9987397e-10 0)
(0.00040151888 3.7959478e-10 0)
(0.00039498213 3.6102769e-10 0)
(0.00038875916 3.4400893e-10 0)
(0.00038282391 3.2839632e-10 0)
(0.00037715273 3.1405794e-10 0)
(0.00037172423 3.0088502e-10 0)
(0.00036651862 2.888056e-10 0)
(0.00036151705 2.7776701e-10 0)
(0.00035670158 2.6775053e-10 0)
(0.00035205403 2.5874363e-10 0)
(0.0003475569 2.5088123e-10 0)
(0.00034318723 2.4413342e-10 0)
(0.00033892861 2.3933968e-10 0)
(0.0003347284 2.3530919e-10 0)
(0.00033061228 2.3868673e-10 0)
(0.00032629273 2.3003798e-10 0)
(0.00032246796 2.6244514e-10 0)
(0.00031700925 1.5452519e-10 0)
(1 2.8427591e-09 8.7555525e-25)
(0.9999702 7.5738595e-09 0)
(0.99992645 1.0688698e-08 0)
(0.99987791 1.3759993e-08 0)
(0.99982186 1.8015982e-08 0)
(0.99975717 2.3468808e-08 0)
(0.99968308 3.0444295e-08 0)
(0.99959825 3.9526448e-08 0)
(0.99950085 5.1443588e-08 0)
(0.99938859 6.7145606e-08 0)
(0.99925863 8.7930537e-08 0)
(0.99910739 1.156708e-07 0)
(0.99893007 1.5292115e-07 0)
(0.9987206 2.0391936e-07 0)
(0.99846939 2.7359522e-07 0)
(0.99816619 3.7492892e-07 0)
(0.99778511 5.1274522e-07 0)
(0.99731683 7.5084747e-07 0)
(0.99665195 1.0310486e-06 0)
(0.9958764 1.7896146e-06 0)
(0.9943424 2.3681592e-06 0)
(0.99296156 5.8467317e-06 0)
(0.98755934 2.3239374e-06 0)
(0.99021447 0.00087981785 -2.8061504e-55)
(0.022482135 0.00088821213 2.8057196e-55)
(0.008858544 7.0832437e-06 0)
(0.0063161683 1.592289e-06 0)
(0.0051831034 7.6550761e-07 0)
(0.0045335141 4.6735234e-07 0)
(0.0040846817 3.3022547e-07 0)
(0.0037502096 2.4998535e-07 0)
(0.0034860954 1.9848284e-07 0)
(0.0032703464 1.6240785e-07 0)
(0.003089549 1.3603825e-07 0)
(0.0029348014 1.1610854e-07 0)
(0.0028001692 1.0054369e-07 0)
(0.0026815289 8.8076077e-08 0)
(0.0025758648 7.790413e-08 0)
(0.0024808943 6.9480206e-08 0)
(0.0023948592 6.2405649e-08 0)
(0.0023163957 5.6394489e-08 0)
(0.0022444043 5.1239444e-08 0)
(0.0021779975 4.6773649e-08 0)
(0.0021164633 4.2875095e-08 0)
(0.0020591951 3.9450917e-08 0)
(0.0020056942 3.6422521e-08 0)
(0.0019555366 3.3729609e-08 0)
(0.0019083627 3.1322184e-08 0)
(0.0018638646 2.9159226e-08 0)
(0.0018217781 2.7207327e-08 0)
(0.0017818728 2.5439426e-08 0)
(0.0017439469 2.3832354e-08 0)
(0.0017078239 2.2366462e-08 0)
(0.0016733476 2.1024972e-08 0)
(0.0016403806 1.9793198e-08 0)
(0.0016088015 1.8659112e-08 0)
(0.0015785007 1.7612688e-08 0)
(0.0015493798 1.664479e-08 0)
(0.0015213507 1.5747375e-08 0)
(0.0014943337 1.4913627e-08 0)
(0.0014682565 1.4137355e-08 0)
(0.0014430542 1.3412908e-08 0)
(0.0014186679 1.2735717e-08 0)
(0.0013950432 1.2101908e-08 0)
(0.0013721302 1.1507712e-08 0)
(0.001349883 1.0949717e-08 0)
(0.0013282599 1.0424981e-08 0)
(0.001307222 9.9308943e-09 0)
(0.0012867334 9.4649083e-09 0)
(0.0012667615 9.0246703e-09 0)
(0.0012472762 8.6084284e-09 0)
(0.0012282488 8.2146239e-09 0)
(0.0012096523 7.8415664e-09 0)
(0.0011914621 7.4877511e-09 0)
(0.0011736549 7.1518626e-09 0)
(0.0011562091 6.8327138e-09 0)
(0.0011391039 6.5292081e-09 0)
(0.0011223202 6.2401158e-09 0)
(0.0011058408 5.9645023e-09 0)
(0.0010896488 5.7017954e-09 0)
(0.0010737274 5.4511932e-09 0)
(0.0010580615 5.2118633e-09 0)
(0.0010426365 4.9831617e-09 0)
(0.0010274386 4.7644813e-09 0)
(0.0010124546 4.5552659e-09 0)
(0.00099767171 4.3549244e-09 0)
(0.00098307837 4.1628745e-09 0)
(0.00096866349 3.9787537e-09 0)
(0.00095441573 3.8022414e-09 0)
(0.00094032416 3.6328936e-09 0)
(0.00092637857 3.4703176e-09 0)
(0.00091256889 3.3141802e-09 0)
(0.00089888545 3.1641722e-09 0)
(0.00088531865 3.0200016e-09 0)
(0.00087185923 2.8813024e-09 0)
(0.00085849881 2.7478186e-09 0)
(0.0008452285 2.6194164e-09 0)
(0.00083203917 2.495852e-09 0)
(0.00081892228 2.376877e-09 0)
(0.00080586921 2.2622996e-09 0)
(0.00079287143 2.1519389e-09 0)
(0.00077992027 2.0456201e-09 0)
(0.00076700713 1.9431311e-09 0)
(0.00075412383 1.8443245e-09 0)
(0.00074126155 1.7491113e-09 0)
(0.00072841109 1.6573477e-09 0)
(0.00071556333 1.5688898e-09 0)
(0.00070270884 1.483636e-09 0)
(0.00068983758 1.401474e-09 0)
(0.00067693937 1.322275e-09 0)
(0.00066400374 1.246143e-09 0)
(0.00065101516 1.172481e-09 0)
(0.00063797297 1.1011246e-09 0)
(0.00062515668 1.0344341e-09 0)
(0.00061294893 9.7442253e-10 0)
(0.00060142965 9.2021579e-10 0)
(0.00059054184 8.7038283e-10 0)
(0.00058023598 8.2464338e-10 0)
(0.00057046191 7.8282254e-10 0)
(0.00056117437 7.4453249e-10 0)
(0.00055233264 7.0943543e-10 0)
(0.00054389971 6.7723821e-10 0)
(0.00053584198 6.4766872e-10 0)
(0.00052812906 6.2050269e-10 0)
(0.00052073281 5.9559168e-10 0)
(0.00051362647 5.7282707e-10 0)
(0.00050678455 5.5217023e-10 0)
(0.00050018121 5.3359529e-10 0)
(0.0004937916 5.1738042e-10 0)
(0.00048758311 5.0346389e-10 0)
(0.0004815324 4.9357659e-10 0)
(0.00047556472 4.8526324e-10 0)
(0.00046971651 4.9222392e-10 0)
(0.00046357949 4.7512977e-10 0)
(0.00045814512 5.4134704e-10 0)
(0.00045038922 3.1898962e-10 0)
(1 3.7335588e-09 0)
(0.99997007 9.9485702e-09 0)
(0.99992612 1.4041559e-08 0)
(0.99987735 1.8076548e-08 0)
(0.99982103 2.3667436e-08 0)
(0.99975602 3.0830379e-08 0)
(0.99968158 3.9993238e-08 0)
(0.99959636 5.1922982e-08 0)
(0.9994985 6.7576097e-08 0)
(0.99938572 8.8199996e-08 0)
(0.99925517 1.154992e-07 0)
(0.99910326 1.5193242e-07 0)
(0.99892515 2.0085417e-07 0)
(0.99871477 2.6782883e-07 0)
(0.9984625 3.5932868e-07 0)
(0.99815805 4.9239661e-07 0)
(0.99777542 6.7336332e-07 0)
(0.99730529 9.8600007e-07 0)
(0.99663788 1.3538912e-06 0)
(0.99585947 2.3497893e-06 0)
(0.99432013 3.1093582e-06 0)
(0.99293445 7.6762774e-06 0)
(0.9875142 3.054711e-06 0)
(0.99017113 0.0011493276 0)
(0.029381377 0.0011628175 0)
(0.011613769 1.2313566e-05 0)
(0.0082809239 2.7619203e-06 0)
(0.0067955419 1.3274511e-06 0)
(0.0059438288 8.1047095e-07 0)
(0.0053553573 5.7266456e-07 0)
(0.0049168217 4.3351428e-07 0)
(0.0045705392 3.4419859e-07 0)
(0.0042876695 2.8163875e-07 0)
(0.0040506256 2.3590937e-07 0)
(0.0038477366 2.013478e-07 0)
(0.0036712217 1.7435583e-07 0)
(0.0035156738 1.5273513e-07 0)
(0.0033771393 1.3509551e-07 0)
(0.003252625 1.2048725e-07 0)
(0.003139826 1.0821901e-07 0)
(0.0030369539 9.7794899e-08 0)
(0.0029425673 8.8855346e-08 0)
(0.002855503 8.1111079e-08 0)
(0.0027748267 7.4350547e-08 0)
(0.0026997436 6.8412585e-08 0)
(0.0026295997 6.3160977e-08 0)
(0.0025638392 5.8491142e-08 0)
(0.0025019905 5.4316378e-08 0)
(0.00244365 5.0565551e-08 0)
(0.0023884713 4.7180728e-08 0)
(0.0023361523 4.4114979e-08 0)
(0.0022864284 4.1328126e-08 0)
(0.0022390683 3.8786098e-08 0)
(0.0021938671 3.6459795e-08 0)
(0.0021506448 3.4323755e-08 0)
(0.002109242 3.2357118e-08 0)
(0.0020695153 3.0542496e-08 0)
(0.0020313355 2.8864049e-08 0)
(0.001994587 2.7307826e-08 0)
(0.0019591656 2.5862009e-08 0)
(0.0019249763 2.4515864e-08 0)
(0.0018919339 2.3259587e-08 0)
(0.0018599615 2.208526e-08 0)
(0.0018289877 2.0986161e-08 0)
(0.0017989468 1.9955755e-08 0)
(0.001769779 1.8988127e-08 0)
(0.0017414293 1.8078173e-08 0)
(0.0017138468 1.7221368e-08 0)
(0.0016869845 1.6413294e-08 0)
(0.0016607997 1.564987e-08 0)
(0.0016352528 1.4928058e-08 0)
(0.0016103063 1.4245154e-08 0)
(0.0015859248 1.3598229e-08 0)
(0.0015620759 1.2984671e-08 0)
(0.0015387292 1.2402201e-08 0)
(0.0015158561 1.1848759e-08 0)
(0.0014934298 1.1322444e-08 0)
(0.0014714249 1.0821123e-08 0)
(0.0014498191 1.0343177e-08 0)
(0.00142859 9.887612e-09 0)
(0.0014077157 9.4530379e-09 0)
(0.0013871762 9.0380112e-09 0)
(0.0013669527 8.6414152e-09 0)
(0.0013470269 8.2621971e-09 0)
(0.0013273816 7.8993924e-09 0)
(0.001308 7.5519762e-09 0)
(0.0012888669 7.2189387e-09 0)
(0.0012699677 6.899651e-09 0)
(0.0012512876 6.5935573e-09 0)
(0.0012328123 6.2998877e-09 0)
(0.0012145284 6.0179613e-09 0)
(0.0011964227 5.7472e-09 0)
(0.0011784825 5.4870678e-09 0)
(0.0011606952 5.2370585e-09 0)
(0.0011430487 4.9965372e-09 0)
(0.001125532 4.76506e-09 0)
(0.0011081335 4.5423949e-09 0)
(0.0010908411 4.3281191e-09 0)
(0.0010736437 4.1218018e-09 0)
(0.0010565299 3.9231106e-09 0)
(0.0010394886 3.7317315e-09 0)
(0.0010225085 3.5473616e-09 0)
(0.0010055782 3.3696332e-09 0)
(0.00098868703 3.1982904e-09 0)
(0.00097182341 3.0331789e-09 0)
(0.00095497529 2.8740494e-09 0)
(0.0009381307 2.7206525e-09 0)
(0.00092127728 2.5728118e-09 0)
(0.00090440187 2.4303327e-09 0)
(0.00088749114 2.2929919e-09 0)
(0.00087053134 2.1609694e-09 0)
(0.00085350211 2.0332304e-09 0)
(0.00083640258 1.9094906e-09 0)
(0.00081959921 1.7938416e-09 0)
(0.00080359369 1.6897735e-09 0)
(0.00078849083 1.5957717e-09 0)
(0.00077421587 1.5093553e-09 0)
(0.0007607039 1.4300377e-09 0)
(0.00074788914 1.3575153e-09 0)
(0.00073571228 1.2911158e-09 0)
(0.00072411991 1.2302532e-09 0)
(0.0007130635 1.1744192e-09 0)
(0.00070249901 1.123142e-09 0)
(0.0006923866 1.0760326e-09 0)
(0.00068268939 1.0328336e-09 0)
(0.00067337227 9.9335665e-10 0)
(0.00066440182 9.5753467e-10 0)
(0.00065574419 9.2532279e-10 0)
(0.00064736678 8.9720323e-10 0)
(0.00063922685 8.7306897e-10 0)
(0.0006312938 8.5592071e-10 0)
(0.00062346965 8.4150246e-10 0)
(0.00061580213 8.5356349e-10 0)
(0.00060775628 8.2418574e-10 0)
(0.00060063119 9.3888527e-10 -5.1740884e-24)
(0.00059046238 5.5316949e-10 3.3623598e-25)
(1 4.6846174e-09 0)
(0.99996992 1.2484864e-08 0)
(0.99992573 1.7623604e-08 0)
(0.99987667 2.2688352e-08 0)
(0.99982003 2.9705296e-08 0)
(0.99975465 3.8695025e-08 0)
(0.99967978 5.0194288e-08 0)
(0.99959408 6.5165374e-08 0)
(0.99949568 8.4808332e-08 0)
(0.99938228 1.1068813e-07 0)
(0.99925103 1.449431e-07 0)
(0.9990983 1.9065761e-07 0)
(0.99891927 2.5203951e-07 0)
(0.9987078 3.3606861e-07 0)
(0.99845426 4.5086249e-07 0)
(0.9981483 6.1779841e-07 0)
(0.99776383 8.4481089e-07 0)
(0.9972915 1.2369728e-06 0)
(0.99662106 1.6984102e-06 0)
(0.99583922 2.9474463e-06 0)
(0.99429351 3.9001034e-06 0)
(0.99290207 9.6278521e-06 0)
(0.98746036 3.8365401e-06 0)
(0.99011944 0.0014336485 0)
(0.036666045 0.0014538204 0)
(0.014541802 1.9300784e-05 0)
(0.01036905 4.3480529e-06 0)
(0.0085093025 2.0899284e-06 0)
(0.0074427445 1.2760768e-06 0)
(0.0067058547 9.016455e-07 0)
(0.006156711 6.8255588e-07 0)
(0.0057230951 5.4192732e-07 0)
(0.0053688858 4.434285e-07 0)
(0.0050720604 3.7142847e-07 0)
(0.0048180049 3.1701181e-07 0)
(0.0045969755 2.7451367e-07 0)
(0.0044022013 2.4047268e-07 0)
(0.0042287313 2.1269987e-07 0)
(0.0040728173 1.8969984e-07 0)
(0.0039315731 1.703841e-07 0)
(0.0038027593 1.5397196e-07 0)
(0.0036845707 1.3989707e-07 6.7909261e-25)
(0.0035755512 1.2770415e-07 0)
(0.0034745304 1.1706018e-07 -6.7536275e-35)
(0.0033805133 1.077112e-07 0)
(0.003292681 9.9442875e-08 0)
(0.0032103374 9.2090516e-08 0)
(0.0031328921 8.5517618e-08 0)
(0.0030598397 7.9612186e-08 0)
(0.0029907463 7.4283006e-08 0)
(0.0029252338 6.9456186e-08 0)
(0.0028629709 6.5068471e-08 0)
(0.0028036677 6.1066216e-08 0)
(0.002747068 5.7403606e-08 0)
(0.0026929461 5.4040554e-08 0)
(0.0026411025 5.0944217e-08 0)
(0.0025913577 4.8087217e-08 0)
(0.0025435499 4.5444613e-08 0)
(0.0024975343 4.2994444e-08 0)
(0.0024531804 4.0718101e-08 0)
(0.0024103694 3.8598685e-08 0)
(0.0023689945 3.6620762e-08 0)
(0.0023289594 3.4771863e-08 0)
(0.0022901746 3.3041404e-08 0)
(0.002252558 3.1419097e-08 0)
(0.0022160347 2.9895631e-08 0)
(0.0021805358 2.8462969e-08 0)
(0.0021459977 2.7113986e-08 0)
(0.0021123612 2.5841726e-08 0)
(0.0020795731 2.4639765e-08 0)
(0.0020475838 2.3503319e-08 0)
(0.0020163462 2.2428132e-08 0)
(0.0019858162 2.1409589e-08 0)
(0.0019559531 2.0443583e-08 0)
(0.0019267188 1.952652e-08 0)
(0.0018980776 1.8655162e-08 0)
(0.0018699957 1.7826512e-08 0)
(0.0018424416 1.7037215e-08 0)
(0.0018153871 1.628472e-08 0)
(0.0017888044 1.5567461e-08 0)
(0.0017626659 1.4883252e-08 0)
(0.0017369468 1.4229818e-08 0)
(0.0017116232 1.3605403e-08 0)
(0.0016866725 1.3008347e-08 0)
(0.0016620729 1.2437134e-08 0)
(0.0016378036 1.1890148e-08 0)
(0.0016138453 1.1365801e-08 0)
(0.0015901801 1.0863103e-08 0)
(0.0015667892 1.0381177e-08 0)
(0.0015436547 9.918812e-09 0)
(0.0015207598 9.4749359e-09 0)
(0.0014980881 9.0486386e-09 0)
(0.0014756236 8.6390762e-09 0)
(0.0014533506 8.2454514e-09 0)
(0.0014312539 7.8667651e-09 0)
(0.0014093197 7.5023182e-09 0)
(0.0013875335 7.1517451e-09 0)
(0.0013658801 6.8143806e-09 0)
(0.0013443457 6.4895462e-09 0)
(0.0013229161 6.1767186e-09 0)
(0.0013015772 5.8754034e-09 0)
(0.0012803149 5.5851237e-09 0)
(0.001259115 5.3053007e-09 0)
(0.001237964 5.0355315e-09 0)
(0.0012168476 4.775573e-09 0)
(0.0011957506 4.5250328e-09 0)
(0.0011746579 4.2835182e-09 0)
(0.0011535543 4.0507516e-09 0)
(0.001132423 3.8264265e-09 0)
(0.0011112476 3.6101913e-09 0)
(0.0010900107 3.4023292e-09 0)
(0.0010686868 3.2012117e-09 0)
(0.0010472749 3.006392e-09 0)
(0.0010262339 2.8243103e-09 0)
(0.0010061919 2.6604602e-09 0)
(0.00098728015 2.5124591e-09 0)
(0.00096940513 2.3764015e-09 0)
(0.00095248551 2.2515212e-09 0)
(0.00093643892 2.1373393e-09 0)
(0.00092119109 2.0327972e-09 0)
(0.00090667514 1.9369728e-09 0)
(0.00089283032 1.8490654e-09 0)
(0.00087960147 1.7683324e-09 0)
(0.00086693871 1.6941612e-09 0)
(0.00085479585 1.6261466e-09 0)
(0.00084312894 1.563992e-09 0)
(0.00083189614 1.5075916e-09 0)
(0.00082105505 1.4568749e-09 0)
(0.00081056485 1.4126007e-09 0)
(0.00080037205 1.3746008e-09 0)
(0.00079043832 1.3475978e-09 0)
(0.00078064103 1.3248946e-09 0)
(0.00077103982 1.3438665e-09 0)
(0.00076096534 1.297593e-09 0)
(0.00075204318 1.4783497e-09 0)
(0.0007393097 8.7074992e-10 -1.9190373e-25)
(1 5.711559e-09 0)
(0.99996975 1.5224745e-08 0)
(0.99992526 2.1494531e-08 0)
(0.99987587 2.7672341e-08 0)
(0.99981884 3.6230237e-08 0)
(0.99975302 4.7193784e-08 0)
(0.99967765 6.1217256e-08 0)
(0.99959138 7.9473812e-08 0)
(0.99949234 1.0342645e-07 0)
(0.99937821 1.3498291e-07 0)
(0.99924611 1.7674975e-07 0)
(0.99909243 2.3248649e-07 0)
(0.99891229 3.0732177e-07 0)
(0.99869954 4.0976258e-07 0)
(0.99844448 5.4970115e-07 0)
(0.99813675 7.531908e-07 0)
(0.99775009 1.0298928e-06 0)
(0.99727515 1.5078593e-06 0)
(0.99660113 2.0702102e-06 0)
(0.99581525 3.5922625e-06 0)
(0.99426201 4.7531847e-06 0)
(0.99286375 1.1732906e-05 0)
(0.98739673 4.6828154e-06 0)
(0.99005836 0.0017365902 0)
(0.044435121 0.0017653679 0)
(0.017686222 2.8508822e-05 0)
(0.012611654 6.4465369e-06 0)
(0.010349931 3.0988077e-06 0)
(0.0090526009 1.8922089e-06 0)
(0.0081563 1.3369765e-06 0)
(0.0074883538 1.012105e-06 0)
(0.0069609372 8.0357307e-07 0)
(0.0065301059 6.575172e-07 0)
(0.0061690726 5.5075378e-07 0)
(0.0058600626 4.700632e-07 0)
(0.0055912238 4.0704619e-07 0)
(0.0053543199 3.5656996e-07 0)
(0.0051433286 3.153884e-07 0)
(0.004953691 2.8128399e-07 0)
(0.0047818963 2.5264271e-07 0)
(0.004625221 2.2830704e-07 0)
(0.0044814687 2.0743684e-07 0)
(0.0043488694 1.8935731e-07 0)
(0.0042259983 1.7357473e-07 7.2851603e-35)
(0.0041116461 1.5971217e-07 0)
(0.0040048163 1.4745204e-07 0)
(0.0039046624 1.3655009e-07 0)
(0.0038104662 1.2680393e-07 0)
(0.0037216131 1.1804747e-07 0)
(0.0036375752 1.1014547e-07 0)
(0.0035578928 1.0298836e-07 0)
(0.0034821628 9.648235e-08 0)
(0.0034100327 9.0547889e-08 0)
(0.0033411907 8.5117047e-08 0)
(0.0032753625 8.0130386e-08 0)
(0.0032123055 7.5539204e-08 0)
(0.0031518011 7.1302905e-08 0)
(0.0030936526 6.7384508e-08 0)
(0.003037684 6.3751448e-08 0)
(0.0029837365 6.0376134e-08 0)
(0.0029316655 5.7233507e-08 0)
(0.0028813413 5.4300685e-08 0)
(0.0028326467 5.1559176e-08 0)
(0.0027854729 4.8993287e-08 0)
(0.0027397198 4.6587764e-08 0)
(0.0026952966 4.4328798e-08 0)
(0.0026521193 4.2204476e-08 0)
(0.0026101105 4.0204229e-08 0)
(0.0025691985 3.8317746e-08 0)
(0.0025293183 3.6535502e-08 0)
(0.0024904098 3.4850403e-08 0)
(0.0024524154 3.3256135e-08 0)
(0.0024152817 3.1745858e-08 0)
(0.0023789591 3.0313481e-08 0)
(0.0023434013 2.8953677e-08 0)
(0.0023085649 2.7661642e-08 0)
(0.0022744088 2.6432934e-08 0)
(0.0022408947 2.5262579e-08 0)
(0.0022079883 2.4146792e-08 0)
(0.0021756555 2.3083253e-08 0)
(0.0021438632 2.2068718e-08 0)
(0.0021125809 2.1099817e-08 0)
(0.0020817797 2.0173943e-08 0)
(0.002051432 1.9288639e-08 0)
(0.0020215114 1.8441652e-08 0)
(0.0019919924 1.763059e-08 0)
(0.0019628519 1.6853096e-08 0)
(0.0019340676 1.6107702e-08 0)
(0.0019056171 1.5393109e-08 0)
(0.0018774785 1.4707521e-08 0)
(0.0018496313 1.4049347e-08 0)
(0.0018220555 1.3417239e-08 0)
(0.0017947317 1.2809945e-08 0)
(0.0017676409 1.2226283e-08 0)
(0.0017407645 1.1664772e-08 0)
(0.0017140857 1.1124375e-08 0)
(0.0016875869 1.0604549e-08 0)
(0.0016612497 1.0104309e-08 0)
(0.0016350572 9.6226483e-09 0)
(0.0016089921 9.1587909e-09 0)
(0.0015830375 8.712004e-09 0)
(0.0015571758 8.2815805e-09 0)
(0.0015313901 7.866662e-09 0)
(0.001505664 7.4666512e-09 0)
(0.0014799798 7.0811872e-09 0)
(0.0014543193 6.7096888e-09 0)
(0.0014286641 6.3515733e-09 0)
(0.0014029954 6.0064292e-09 0)
(0.0013772932 5.6738021e-09 0)
(0.0013515372 5.3531708e-09 0)
(0.0013257065 5.0449546e-09 0)
(0.00129977 4.7467398e-09 0)
(0.0012737264 4.4578655e-09 0)
(0.0012481338 4.1878782e-09 0)
(0.0012237564 3.9449217e-09 0)
(0.0012007537 3.725466e-09 0)
(0.001179012 3.5237218e-09 0)
(0.0011584324 3.3385513e-09 0)
(0.0011389146 3.1692441e-09 0)